
     Program PWSCF v.7.1 starts on  2Mar2024 at  9:35: 9 

     This program is part of the open-source Quantum ESPRESSO suite
     for quantum simulation of materials; please cite
         "P. Giannozzi et al., J. Phys.:Condens. Matter 21 395502 (2009);
         "P. Giannozzi et al., J. Phys.:Condens. Matter 29 465901 (2017);
         "P. Giannozzi et al., J. Chem. Phys. 152 154105 (2020);
          URL http://www.quantum-espresso.org", 
     in publications or presentations arising from this work. More details at
     http://www.quantum-espresso.org/quote

     Parallel version (MPI & OpenMP), running on     128 processor cores
     Number of MPI processes:               128
     Threads/MPI process:                     1

     MPI processes distributed on     1 nodes
     1823123 MiB available memory on the printing compute node when the environment starts
 
     Reading input from espresso.pwi
Warning: card &CELL ignored
Warning: card    CELL_DYNAMICS    = 'BFGS' ignored
Warning: card / ignored

     Current dimensions of program PWSCF are:
     Max number of different atomic species (ntypx) = 10
     Max number of k-points (npk) =  40000
     Max angular momentum in pseudopotentials (lmaxx) =  4
     file Pb.pbe-dn-kjpaw_psl.1.0.0.UPF: wavefunction(s)  6S 6P 5D renormalized
     file I.pbe-dn-kjpaw_psl.1.0.0.UPF: wavefunction(s)  5S 5P renormalized

     **************************************************************************
     Initializing libbeef V0.1.2 with the BEEF-vdW functional.
     Citation: Wellendorff et al., PRB 85, 235149 (2012).
     **************************************************************************


     IMPORTANT: XC functional enforced from input :
     Exchange-correlation= BEEF-VDW
                           (   1   4  43  14   2   0   0)
     Any further DFT definition will be discarded
     Please, verify this is what you really want

 
     R & G space division:  proc/nbgrp/npool/nimage =     128
     Subspace diagonalization in iterative solution of the eigenvalue problem:
     a serial algorithm will be used

 
     Parallelization info
     --------------------
     sticks:   dense  smooth     PW     G-vecs:    dense   smooth      PW
     Min         238     190     47                26444    18918    2361
     Max         239     191     48                26451    18927    2368
     Sum       30577   24439   6121              3385235  2422379  302703
 
     Using Slab Decomposition
 


     bravais-lattice index     =            4
     lattice parameter (alat)  =      35.6073  a.u.
     unit-cell volume          =   30614.2220 (a.u.)^3
     number of atoms/cell      =           96
     number of atomic types    =            2
     number of electrons       =      1536.00
     number of Kohn-Sham states=          922
     kinetic-energy cutoff     =      70.0000  Ry
     charge density cutoff     =     350.0000  Ry
     scf convergence threshold =      1.0E-07
     mixing beta               =       0.7000
     number of iterations used =            8  plain     mixing
     energy convergence thresh.=      1.0E-04
     force convergence thresh. =      1.0E-03
     Exchange-correlation= BEEF-VDW
                           (   1   4  43  14   2   0   0)
     nstep                     =           50


     celldm(1)=  35.607290  celldm(2)=   0.000000  celldm(3)=   0.783025
     celldm(4)=   0.000000  celldm(5)=   0.000000  celldm(6)=   0.000000

     crystal axes: (cart. coord. in units of alat)
               a(1) = (   1.000000   0.000000   0.000000 )  
               a(2) = (  -0.500000   0.866025   0.000000 )  
               a(3) = (   0.000000   0.000000   0.783025 )  

     reciprocal axes: (cart. coord. in units 2 pi/alat)
               b(1) = (  1.000000  0.577350 -0.000000 )  
               b(2) = (  0.000000  1.154701  0.000000 )  
               b(3) = (  0.000000 -0.000000  1.277098 )  


     PseudoPot. # 1 for Pb read from file:
     /trace/group/acmegroup/atimmins/packages/espresso/pseudo/psl_1.0.0/pslibrary.1.0.0/pbe/PSEUDOPOTENTIALS/Pb.pbe-dn-kjpaw_psl.1.0.0.UPF
     MD5 check sum: 39ab5b8a6bbd56b7735ad9f188aac93a
     Pseudo is Projector augmented-wave + core cor, Zval = 14.0
     Generated using 'atomic' code by A. Dal Corso  v.7.1
     Shape of augmentation charge: PSQ
     Using radial grid of 1281 points,  6 beta functions with: 
                l(1) =   0
                l(2) =   0
                l(3) =   1
                l(4) =   1
                l(5) =   2
                l(6) =   2
     Q(r) pseudized with 0 coefficients 


     PseudoPot. # 2 for I  read from file:
     /trace/group/acmegroup/atimmins/packages/espresso/pseudo/psl_1.0.0/pslibrary.1.0.0/pbe/PSEUDOPOTENTIALS/I.pbe-dn-kjpaw_psl.1.0.0.UPF
     MD5 check sum: bfa8781bc1224d19af3f3980e3fab11e
     Pseudo is Projector augmented-wave + core cor, Zval = 17.0
     Generated using 'atomic' code by A. Dal Corso  v.7.1
     Shape of augmentation charge: PSQ
     Using radial grid of 1247 points,  6 beta functions with: 
                l(1) =   0
                l(2) =   0
                l(3) =   1
                l(4) =   1
                l(5) =   2
                l(6) =   2
     Q(r) pseudized with 0 coefficients 


     atomic species   valence    mass     pseudopotential
        Pb            14.00   207.20000     Pb( 1.00)
        I             17.00   126.90447     I ( 1.00)

     No symmetry found


                                    s                        frac. trans.

      isym =  1     identity                                     

 cryst.   s( 1) = (     1          0          0      )
                  (     0          1          0      )
                  (     0          0          1      )

 cart.    s( 1) = (  1.0000000  0.0000000  0.0000000 )
                  (  0.0000000  1.0000000  0.0000000 )
                  (  0.0000000  0.0000000  1.0000000 )


     point group C_1 (1)    
     there are  1 classes
     the character table:

       E    
A      1.00

     the symmetry operations in each class and the name of the first element:

     E        1
          identity                                               

   Cartesian axes

     site n.     atom                  positions (alat units)
         1           Pb  tau(   1) = (   0.1250034   0.2164916   0.3915076  )
         2           Pb  tau(   2) = (   0.0000077   0.4329922   0.7830161  )
         3           Pb  tau(   3) = (   0.0000025   0.4329968   0.3915034  )
         4           Pb  tau(   4) = (  -0.1249932   0.6494975   0.7830119  )
         5           Pb  tau(   5) = (  -0.1249984   0.6495021   0.3914992  )
         6           Pb  tau(   6) = (  -0.2499941   0.8660028   0.7830077  )
         7           Pb  tau(   7) = (  -0.2499993   0.8660074   0.3914950  )
         8           Pb  tau(   8) = (   0.3750086   0.2164859   0.7830237  )
         9           Pb  tau(   9) = (   0.3750034   0.2164905   0.3915110  )
        10           Pb  tau(  10) = (   0.2500077   0.4329912   0.7830194  )
        11           Pb  tau(  11) = (   0.2500025   0.4329958   0.3915068  )
        12           Pb  tau(  12) = (   0.1250068   0.6494965   0.7830152  )
        13           Pb  tau(  13) = (   0.1250016   0.6495011   0.3915026  )
        14           Pb  tau(  14) = (   0.0000059   0.8660017   0.7830110  )
        15           Pb  tau(  15) = (   0.0000007   0.8660063   0.3914983  )
        16           Pb  tau(  16) = (   0.6250086   0.2164849   0.7830270  )
        17           Pb  tau(  17) = (   0.6250034   0.2164895   0.3915143  )
        18           Pb  tau(  18) = (   0.5000077   0.4329901   0.7830228  )
        19           Pb  tau(  19) = (   0.5000025   0.4329947   0.3915101  )
        20           Pb  tau(  20) = (   0.3750068   0.6494954   0.7830186  )
        21           Pb  tau(  21) = (   0.3750016   0.6495000   0.3915059  )
        22           Pb  tau(  22) = (   0.2500059   0.8660007   0.7830144  )
        23           Pb  tau(  23) = (   0.2500007   0.8660053   0.3915017  )
        24           Pb  tau(  24) = (   0.8750086   0.2164838   0.7830303  )
        25           Pb  tau(  25) = (   0.8750034   0.2164884   0.3915177  )
        26           Pb  tau(  26) = (   0.7500077   0.4329891   0.7830261  )
        27           Pb  tau(  27) = (   0.7500025   0.4329937   0.3915135  )
        28           Pb  tau(  28) = (   0.6250068   0.6494944   0.7830219  )
        29           Pb  tau(  29) = (   0.6250016   0.6494990   0.3915092  )
        30           Pb  tau(  30) = (   0.5000059   0.8659996   0.7830177  )
        31           Pb  tau(  31) = (   0.5000007   0.8660042   0.3915050  )
        32           I   tau(  32) = (   0.1250056   0.0721546   0.2909163  )
        33           I   tau(  33) = (   0.1250108   0.0721500   0.6824290  )
        34           I   tau(  34) = (   0.0000047   0.2886599   0.2909121  )
        35           I   tau(  35) = (   0.0000099   0.2886553   0.6824248  )
        36           I   tau(  36) = (  -0.1249962   0.5051652   0.2909079  )
        37           I   tau(  37) = (  -0.1249910   0.5051606   0.6824206  )
        38           I   tau(  38) = (  -0.2499972   0.7216704   0.2909037  )
        39           I   tau(  39) = (  -0.2499919   0.7216658   0.6824164  )
        40           I   tau(  40) = (   0.3750056   0.0721536   0.2909197  )
        41           I   tau(  41) = (   0.3750108   0.0721490   0.6824324  )
        42           I   tau(  42) = (   0.2500047   0.2886589   0.2909155  )
        43           I   tau(  43) = (   0.2500099   0.2886543   0.6824282  )
        44           I   tau(  44) = (   0.1250038   0.5051641   0.2909113  )
        45           I   tau(  45) = (   0.1250090   0.5051595   0.6824240  )
        46           I   tau(  46) = (   0.0000028   0.7216694   0.2909071  )
        47           I   tau(  47) = (   0.0000081   0.7216648   0.6824197  )
        48           I   tau(  48) = (   0.6250056   0.0721525   0.2909230  )
        49           I   tau(  49) = (   0.6250108   0.0721479   0.6824357  )
        50           I   tau(  50) = (   0.5000047   0.2886578   0.2909188  )
        51           I   tau(  51) = (   0.5000099   0.2886532   0.6824315  )
        52           I   tau(  52) = (   0.3750038   0.5051631   0.2909146  )
        53           I   tau(  53) = (   0.3750090   0.5051585   0.6824273  )
        54           I   tau(  54) = (   0.2500028   0.7216683   0.2909104  )
        55           I   tau(  55) = (   0.2500081   0.7216637   0.6824231  )
        56           I   tau(  56) = (   0.8750056   0.0721515   0.2909264  )
        57           I   tau(  57) = (   0.8750108   0.0721469   0.6824391  )
        58           I   tau(  58) = (   0.7500047   0.2886567   0.2909222  )
        59           I   tau(  59) = (   0.7500099   0.2886521   0.6824348  )
        60           I   tau(  60) = (   0.6250038   0.5051620   0.2909180  )
        61           I   tau(  61) = (   0.6250090   0.5051574   0.6824306  )
        62           I   tau(  62) = (   0.5000028   0.7216673   0.2909137  )
        63           I   tau(  63) = (   0.5000081   0.7216627   0.6824264  )
        64           I   tau(  64) = (  -0.0000018   0.1443297   0.1005933  )
        65           I   tau(  65) = (   0.0000034   0.1443251   0.4921060  )
        66           I   tau(  66) = (  -0.1250027   0.3608350   0.1005891  )
        67           I   tau(  67) = (  -0.1249975   0.3608304   0.4921018  )
        68           I   tau(  68) = (  -0.2500036   0.5773403   0.1005849  )
        69           I   tau(  69) = (  -0.2499984   0.5773357   0.4920975  )
        70           I   tau(  70) = (  -0.3750045   0.7938455   0.1005807  )
        71           I   tau(  71) = (  -0.3749993   0.7938409   0.4920933  )
        72           I   tau(  72) = (   0.2499982   0.1443287   0.1005966  )
        73           I   tau(  73) = (   0.2500034   0.1443241   0.4921093  )
        74           I   tau(  74) = (   0.1249973   0.3608340   0.1005924  )
        75           I   tau(  75) = (   0.1250025   0.3608294   0.4921051  )
        76           I   tau(  76) = (  -0.0000036   0.5773392   0.1005882  )
        77           I   tau(  77) = (   0.0000016   0.5773346   0.4921009  )
        78           I   tau(  78) = (  -0.1250045   0.7938445   0.1005840  )
        79           I   tau(  79) = (  -0.1249993   0.7938399   0.4920967  )
        80           I   tau(  80) = (   0.4999982   0.1443276   0.1006000  )
        81           I   tau(  81) = (   0.5000034   0.1443230   0.4921126  )
        82           I   tau(  82) = (   0.3749973   0.3608329   0.1005958  )
        83           I   tau(  83) = (   0.3750025   0.3608283   0.4921084  )
        84           I   tau(  84) = (   0.2499964   0.5773382   0.1005915  )
        85           I   tau(  85) = (   0.2500016   0.5773336   0.4921042  )
        86           I   tau(  86) = (   0.1249955   0.7938434   0.1005873  )
        87           I   tau(  87) = (   0.1250007   0.7938388   0.4921000  )
        88           I   tau(  88) = (   0.7499982   0.1443266   0.1006033  )
        89           I   tau(  89) = (   0.7500034   0.1443220   0.4921160  )
        90           I   tau(  90) = (   0.6249973   0.3608319   0.1005991  )
        91           I   tau(  91) = (   0.6250025   0.3608273   0.4921118  )
        92           I   tau(  92) = (   0.4999964   0.5773371   0.1005949  )
        93           I   tau(  93) = (   0.5000016   0.5773325   0.4921076  )
        94           I   tau(  94) = (   0.3749955   0.7938424   0.1005907  )
        95           I   tau(  95) = (   0.3750007   0.7938378   0.4921034  )
        96           I   tau(  96) = (   0.1250086   0.2164870   0.7830203  )

   Crystallographic axes

     site n.     atom                  positions (cryst. coord.)
         1           Pb  tau(   1) = (  0.2499949  0.2499829  0.4999935  )
         2           Pb  tau(   2) = (  0.2499959  0.4999764  0.9999882  )
         3           Pb  tau(   3) = (  0.2499933  0.4999817  0.4999882  )
         4           Pb  tau(   4) = (  0.2499944  0.7499751  0.9999828  )
         5           Pb  tau(   5) = (  0.2499918  0.7499804  0.4999828  )
         6           Pb  tau(   6) = (  0.2499928  0.9999739  0.9999774  )
         7           Pb  tau(   7) = (  0.2499903  0.9999792  0.4999774  )
         8           Pb  tau(   8) = (  0.4999968  0.2499764  0.9999978  )
         9           Pb  tau(   9) = (  0.4999943  0.2499817  0.4999978  )
        10           Pb  tau(  10) = (  0.4999953  0.4999752  0.9999924  )
        11           Pb  tau(  11) = (  0.4999927  0.4999805  0.4999924  )
        12           Pb  tau(  12) = (  0.4999938  0.7499739  0.9999871  )
        13           Pb  tau(  13) = (  0.4999912  0.7499792  0.4999871  )
        14           Pb  tau(  14) = (  0.4999922  0.9999727  0.9999817  )
        15           Pb  tau(  15) = (  0.4999896  0.9999780  0.4999817  )
        16           Pb  tau(  16) = (  0.7499962  0.2499752  1.0000021  )
        17           Pb  tau(  17) = (  0.7499936  0.2499805  0.5000021  )
        18           Pb  tau(  18) = (  0.7499947  0.4999739  0.9999967  )
        19           Pb  tau(  19) = (  0.7499921  0.4999793  0.4999967  )
        20           Pb  tau(  20) = (  0.7499932  0.7499727  0.9999913  )
        21           Pb  tau(  21) = (  0.7499906  0.7499780  0.4999913  )
        22           Pb  tau(  22) = (  0.7499916  0.9999714  0.9999860  )
        23           Pb  tau(  23) = (  0.7499890  0.9999767  0.4999860  )
        24           Pb  tau(  24) = (  0.9999956  0.2499740  1.0000064  )
        25           Pb  tau(  25) = (  0.9999930  0.2499793  0.5000064  )
        26           Pb  tau(  26) = (  0.9999941  0.4999727  1.0000010  )
        27           Pb  tau(  27) = (  0.9999915  0.4999780  0.5000010  )
        28           Pb  tau(  28) = (  0.9999926  0.7499715  0.9999956  )
        29           Pb  tau(  29) = (  0.9999900  0.7499768  0.4999956  )
        30           Pb  tau(  30) = (  0.9999910  0.9999702  0.9999902  )
        31           Pb  tau(  31) = (  0.9999884  0.9999755  0.4999902  )
        32           I   tau(  32) = (  0.1666641  0.0833170  0.3715286  )
        33           I   tau(  33) = (  0.1666667  0.0833117  0.8715286  )
        34           I   tau(  34) = (  0.1666625  0.3333157  0.3715233  )
        35           I   tau(  35) = (  0.1666651  0.3333104  0.8715233  )
        36           I   tau(  36) = (  0.1666610  0.5833145  0.3715179  )
        37           I   tau(  37) = (  0.1666636  0.5833092  0.8715179  )
        38           I   tau(  38) = (  0.1666595  0.8333132  0.3715125  )
        39           I   tau(  39) = (  0.1666621  0.8333079  0.8715125  )
        40           I   tau(  40) = (  0.4166635  0.0833158  0.3715329  )
        41           I   tau(  41) = (  0.4166661  0.0833105  0.8715329  )
        42           I   tau(  42) = (  0.4166619  0.3333145  0.3715275  )
        43           I   tau(  43) = (  0.4166645  0.3333092  0.8715275  )
        44           I   tau(  44) = (  0.4166604  0.5833133  0.3715222  )
        45           I   tau(  45) = (  0.4166630  0.5833080  0.8715221  )
        46           I   tau(  46) = (  0.4166589  0.8333120  0.3715168  )
        47           I   tau(  47) = (  0.4166614  0.8333067  0.8715168  )
        48           I   tau(  48) = (  0.6666629  0.0833146  0.3715372  )
        49           I   tau(  49) = (  0.6666655  0.0833093  0.8715372  )
        50           I   tau(  50) = (  0.6666613  0.3333133  0.3715318  )
        51           I   tau(  51) = (  0.6666639  0.3333080  0.8715318  )
        52           I   tau(  52) = (  0.6666598  0.5833121  0.3715264  )
        53           I   tau(  53) = (  0.6666624  0.5833068  0.8715264  )
        54           I   tau(  54) = (  0.6666582  0.8333108  0.3715210  )
        55           I   tau(  55) = (  0.6666608  0.8333055  0.8715210  )
        56           I   tau(  56) = (  0.9166623  0.0833134  0.3715414  )
        57           I   tau(  57) = (  0.9166648  0.0833080  0.8715414  )
        58           I   tau(  58) = (  0.9166607  0.3333121  0.3715361  )
        59           I   tau(  59) = (  0.9166633  0.3333068  0.8715361  )
        60           I   tau(  60) = (  0.9166592  0.5833108  0.3715307  )
        61           I   tau(  61) = (  0.9166618  0.5833055  0.8715307  )
        62           I   tau(  62) = (  0.9166576  0.8333096  0.3715253  )
        63           I   tau(  63) = (  0.9166602  0.8333043  0.8715253  )
        64           I   tau(  64) = (  0.0833270  0.1666576  0.1284675  )
        65           I   tau(  65) = (  0.0833296  0.1666523  0.6284675  )
        66           I   tau(  66) = (  0.0833255  0.4166564  0.1284621  )
        67           I   tau(  67) = (  0.0833281  0.4166511  0.6284621  )
        68           I   tau(  68) = (  0.0833239  0.6666551  0.1284567  )
        69           I   tau(  69) = (  0.0833265  0.6666498  0.6284567  )
        70           I   tau(  70) = (  0.0833224  0.9166539  0.1284513  )
        71           I   tau(  71) = (  0.0833250  0.9166486  0.6284513  )
        72           I   tau(  72) = (  0.3333264  0.1666564  0.1284717  )
        73           I   tau(  73) = (  0.3333290  0.1666511  0.6284717  )
        74           I   tau(  74) = (  0.3333249  0.4166552  0.1284664  )
        75           I   tau(  75) = (  0.3333275  0.4166499  0.6284663  )
        76           I   tau(  76) = (  0.3333233  0.6666539  0.1284610  )
        77           I   tau(  77) = (  0.3333259  0.6666486  0.6284610  )
        78           I   tau(  78) = (  0.3333218  0.9166527  0.1284556  )
        79           I   tau(  79) = (  0.3333244  0.9166473  0.6284556  )
        80           I   tau(  80) = (  0.5833258  0.1666552  0.1284760  )
        81           I   tau(  81) = (  0.5833284  0.1666499  0.6284760  )
        82           I   tau(  82) = (  0.5833243  0.4166539  0.1284706  )
        83           I   tau(  83) = (  0.5833269  0.4166486  0.6284706  )
        84           I   tau(  84) = (  0.5833227  0.6666527  0.1284652  )
        85           I   tau(  85) = (  0.5833253  0.6666474  0.6284652  )
        86           I   tau(  86) = (  0.5833212  0.9166514  0.1284599  )
        87           I   tau(  87) = (  0.5833238  0.9166461  0.6284599  )
        88           I   tau(  88) = (  0.8333252  0.1666540  0.1284803  )
        89           I   tau(  89) = (  0.8333278  0.1666487  0.6284803  )
        90           I   tau(  90) = (  0.8333237  0.4166527  0.1284749  )
        91           I   tau(  91) = (  0.8333262  0.4166474  0.6284749  )
        92           I   tau(  92) = (  0.8333221  0.6666515  0.1284695  )
        93           I   tau(  93) = (  0.8333247  0.6666462  0.6284695  )
        94           I   tau(  94) = (  0.8333206  0.9166502  0.1284641  )
        95           I   tau(  95) = (  0.8333232  0.9166449  0.6284641  )
        96           I   tau(  96) = (  0.2499975  0.2499776  0.9999935  )

     number of k points=     1  Gaussian smearing, width (Ry)=  0.0100
                       cart. coord. in units 2pi/alat
        k(    1) = (   0.0000000   0.0000000   0.0000000), wk =   2.0000000

                       cryst. coord.
        k(    1) = (   0.0000000   0.0000000   0.0000000), wk =   2.0000000

     Dense  grid:  3385235 G-vectors     FFT dimensions: ( 216, 216, 180)

     Smooth grid:  2422379 G-vectors     FFT dimensions: ( 192, 192, 150)

     Dynamical RAM for                 wfc:      33.27 MB

     Dynamical RAM for     wfc (w. buffer):      33.27 MB

     Dynamical RAM for           str. fact:       0.81 MB

     Dynamical RAM for           local pot:       0.00 MB

     Dynamical RAM for          nlocal pot:      62.36 MB

     Dynamical RAM for                qrad:       3.00 MB

     Dynamical RAM for          rho,v,vnew:       3.35 MB

     Dynamical RAM for               rhoin:       1.12 MB

     Dynamical RAM for            rho*nmix:       6.46 MB

     Dynamical RAM for           G-vectors:       1.66 MB

     Dynamical RAM for          h,s,v(r/c):     622.62 MB

     Dynamical RAM for          <psi|beta>:      24.31 MB

     Dynamical RAM for                 psi:     133.09 MB

     Dynamical RAM for                hpsi:     133.09 MB

     Dynamical RAM for                spsi:     133.09 MB

     Dynamical RAM for      wfcinit/wfcrot:      86.01 MB

     Dynamical RAM for           addusdens:     101.31 MB

     Dynamical RAM for          addusforce:     153.42 MB

     Dynamical RAM for         addusstress:      81.13 MB

     Estimated static dynamical RAM per process >     110.33 MB

     Estimated max dynamical RAM per process >       1.14 GB

     Estimated total dynamical RAM >     145.37 GB

     Atomic positions and unit cell read from directory:
     ./PbI2.save/
     Atomic positions from file used, from input discarded
 

     Check: negative core charge=   -0.000001

     The initial density is read from file :
     ./PbI2.save/charge-density


     starting charge    1537.0000, renormalised to    1536.0000


     %%%%%%%%%%%%%%%%%%%%%%%%%%%%%%%%%%%%%%%%%%%%%%%%%%%%%%%%%%%%%%%%%%%%%%%%
     %                                                                      %
     % You are using vdW-DF, which was implemented by the Thonhauser group. %
     % Please cite the following two papers that made this development      %
     % possible and the two reviews that describe the various versions:     %
     %                                                                      %
     %   T. Thonhauser et al., PRL 115, 136402 (2015).                      %
     %   T. Thonhauser et al., PRB 76, 125112 (2007).                       %
     %   K. Berland et al., Rep. Prog. Phys. 78, 066501 (2015).             %
     %   D.C. Langreth et al., J. Phys.: Condens. Matter 21, 084203 (2009). %
     %                                                                      %
     % If you are calculating stress with vdW-DF, please also cite:         %
     %                                                                      %
     %   R. Sabatini et al., J. Phys.: Condens. Matter 24, 424209 (2012).   %
     %                                                                      %
     %%%%%%%%%%%%%%%%%%%%%%%%%%%%%%%%%%%%%%%%%%%%%%%%%%%%%%%%%%%%%%%%%%%%%%%%

     %%%%%%%%%%%%%%%%%%%%%%%%%%%%%%%%%%%%%%%%%%%%%%%%%%%%%%%%%%%%%%%%%%%%%%%%
     %                                                                      %
     %  vdW-DF NEWS:                                                        %
     %                                                                      %
     %  * vdW-DF3 is now available. DOI: 10.1021/acs.jctc.0c00471           %
     %    use with input_dft = 'vdW-DF3-opt1' or 'vdW-DF3-opt2'             %
     %                                                                      %
     %  * Unscreened and range-separated vdW-DF hybrid functionals          %
     %    DOI: 10.1063/1.4986522 and 10.1088/1361-648X/ac2ad2               %
     %    use with input_dft = 'vdW-DF-cx0' (etc) and 'vdW-DF-ahcx'         %
     %                                                                      %
     %%%%%%%%%%%%%%%%%%%%%%%%%%%%%%%%%%%%%%%%%%%%%%%%%%%%%%%%%%%%%%%%%%%%%%%%


     Carrying out vdW-DF run using the following parameters:
     Nqs    =  20  Npoints =  1024  r_max =  100.000
     q_mesh =  0.00001000  0.04494208  0.09755937  0.15916263
               0.23128650  0.31572767  0.41458969  0.53033537
               0.66584808  0.82450364  1.01025438  1.22772762
               1.48234092  1.78043706  2.12944203  2.53805004
               3.01644009  3.57652955  4.23227104  5.00000000


     -----------------------------------------------
     Non-local corr. energy    =      46.31248765 Ry
     -----------------------------------------------

     Wavefunctions not found or not readable, recomputing them from scratch
     Starting wfcs are  864 randomized atomic wfcs +   58 random wfcs
     Checking if some PAW data can be deallocated... 
       PAW data deallocated on   66 nodes for type:  1
       PAW data deallocated on   62 nodes for type:  2

     total cpu time spent up to now is       16.4 secs

     Self-consistent Calculation

     iteration #  1     ecut=    70.00 Ry     beta= 0.70
     Davidson diagonalization with overlap

---- Real-time Memory Report at c_bands before calling an iterative solver
           488 MiB given to the printing process from OS
             0 MiB allocation reported by mallinfo(arena+hblkhd)
       1800848 MiB available memory on the node where the printing process lives
------------------
     c_bands:  3 eigenvalues not converged
     ethr =  1.00E-05,  avg # of iterations = 20.0


     -----------------------------------------------
     Non-local corr. energy    =      46.36738590 Ry
     -----------------------------------------------


     total cpu time spent up to now is      367.6 secs

     total energy              =  -64424.05632445 Ry
     estimated scf accuracy    <       0.03433037 Ry

     iteration #  2     ecut=    70.00 Ry     beta= 0.70
     Davidson diagonalization with overlap

---- Real-time Memory Report at c_bands before calling an iterative solver
          1231 MiB given to the printing process from OS
             0 MiB allocation reported by mallinfo(arena+hblkhd)
       1788750 MiB available memory on the node where the printing process lives
------------------
     ethr =  2.24E-06,  avg # of iterations = 13.0


     -----------------------------------------------
     Non-local corr. energy    =      46.36636380 Ry
     -----------------------------------------------


     total cpu time spent up to now is      578.3 secs

     total energy              =  -64423.95646729 Ry
     estimated scf accuracy    <       4.01631452 Ry

     iteration #  3     ecut=    70.00 Ry     beta= 0.70
     Davidson diagonalization with overlap

---- Real-time Memory Report at c_bands before calling an iterative solver
          1231 MiB given to the printing process from OS
             0 MiB allocation reported by mallinfo(arena+hblkhd)
       1788640 MiB available memory on the node where the printing process lives
------------------
     ethr =  2.24E-06,  avg # of iterations = 17.0


     -----------------------------------------------
     Non-local corr. energy    =      46.35336554 Ry
     -----------------------------------------------


     total cpu time spent up to now is      823.4 secs

     total energy              =  -64424.07529395 Ry
     estimated scf accuracy    <       0.01802684 Ry

     iteration #  4     ecut=    70.00 Ry     beta= 0.70
     Davidson diagonalization with overlap

---- Real-time Memory Report at c_bands before calling an iterative solver
          1231 MiB given to the printing process from OS
             0 MiB allocation reported by mallinfo(arena+hblkhd)
       1788538 MiB available memory on the node where the printing process lives
------------------
     ethr =  1.17E-06,  avg # of iterations = 17.0


     -----------------------------------------------
     Non-local corr. energy    =      46.34763813 Ry
     -----------------------------------------------


     total cpu time spent up to now is     1026.8 secs

     total energy              =  -64424.07748643 Ry
     estimated scf accuracy    <       0.00829488 Ry

     iteration #  5     ecut=    70.00 Ry     beta= 0.70
     Davidson diagonalization with overlap

---- Real-time Memory Report at c_bands before calling an iterative solver
          1231 MiB given to the printing process from OS
             0 MiB allocation reported by mallinfo(arena+hblkhd)
       1788386 MiB available memory on the node where the printing process lives
------------------
     c_bands:  1 eigenvalues not converged
     ethr =  5.40E-07,  avg # of iterations = 20.0


     -----------------------------------------------
     Non-local corr. energy    =      46.34543485 Ry
     -----------------------------------------------


     total cpu time spent up to now is     1233.6 secs

     total energy              =  -64424.07858401 Ry
     estimated scf accuracy    <       0.00169450 Ry

     iteration #  6     ecut=    70.00 Ry     beta= 0.70
     Davidson diagonalization with overlap

---- Real-time Memory Report at c_bands before calling an iterative solver
          1231 MiB given to the printing process from OS
             0 MiB allocation reported by mallinfo(arena+hblkhd)
       1788269 MiB available memory on the node where the printing process lives
------------------
     ethr =  1.10E-07,  avg # of iterations = 19.0


     -----------------------------------------------
     Non-local corr. energy    =      46.34355334 Ry
     -----------------------------------------------


     total cpu time spent up to now is     1420.1 secs

     total energy              =  -64424.07876280 Ry
     estimated scf accuracy    <       0.00043892 Ry

     iteration #  7     ecut=    70.00 Ry     beta= 0.70
     Davidson diagonalization with overlap

---- Real-time Memory Report at c_bands before calling an iterative solver
          1231 MiB given to the printing process from OS
             0 MiB allocation reported by mallinfo(arena+hblkhd)
       1788149 MiB available memory on the node where the printing process lives
------------------
     c_bands:  2 eigenvalues not converged
     ethr =  2.86E-08,  avg # of iterations = 20.0


     -----------------------------------------------
     Non-local corr. energy    =      46.34218457 Ry
     -----------------------------------------------


     total cpu time spent up to now is     1743.1 secs

     total energy              =  -64424.07887536 Ry
     estimated scf accuracy    <       0.00045546 Ry

     iteration #  8     ecut=    70.00 Ry     beta= 0.70
     Davidson diagonalization with overlap

---- Real-time Memory Report at c_bands before calling an iterative solver
          1231 MiB given to the printing process from OS
             0 MiB allocation reported by mallinfo(arena+hblkhd)
       1788029 MiB available memory on the node where the printing process lives
------------------
     ethr =  2.86E-08,  avg # of iterations =  5.0


     -----------------------------------------------
     Non-local corr. energy    =      46.33289737 Ry
     -----------------------------------------------


     total cpu time spent up to now is     1800.1 secs

     total energy              =  -64424.07884295 Ry
     estimated scf accuracy    <       0.00032882 Ry

     iteration #  9     ecut=    70.00 Ry     beta= 0.70
     Davidson diagonalization with overlap

---- Real-time Memory Report at c_bands before calling an iterative solver
          1231 MiB given to the printing process from OS
             0 MiB allocation reported by mallinfo(arena+hblkhd)
       1787903 MiB available memory on the node where the printing process lives
------------------
     c_bands:  1 eigenvalues not converged
     ethr =  2.14E-08,  avg # of iterations = 20.0


     -----------------------------------------------
     Non-local corr. energy    =      46.32490397 Ry
     -----------------------------------------------


     total cpu time spent up to now is     1974.9 secs

     total energy              =  -64424.07881619 Ry
     estimated scf accuracy    <       0.00019864 Ry

     iteration # 10     ecut=    70.00 Ry     beta= 0.70
     Davidson diagonalization with overlap

---- Real-time Memory Report at c_bands before calling an iterative solver
          1231 MiB given to the printing process from OS
             0 MiB allocation reported by mallinfo(arena+hblkhd)
       1787780 MiB available memory on the node where the printing process lives
------------------
     ethr =  1.29E-08,  avg # of iterations = 18.0


     -----------------------------------------------
     Non-local corr. energy    =      46.32664815 Ry
     -----------------------------------------------


     total cpu time spent up to now is     2226.8 secs

     total energy              =  -64424.07884492 Ry
     estimated scf accuracy    <       0.00030712 Ry

     iteration # 11     ecut=    70.00 Ry     beta= 0.70
     Davidson diagonalization with overlap

---- Real-time Memory Report at c_bands before calling an iterative solver
          1231 MiB given to the printing process from OS
             0 MiB allocation reported by mallinfo(arena+hblkhd)
       1787757 MiB available memory on the node where the printing process lives
------------------
     ethr =  1.29E-08,  avg # of iterations = 13.0


     -----------------------------------------------
     Non-local corr. energy    =      46.33162667 Ry
     -----------------------------------------------


     total cpu time spent up to now is     2352.6 secs

     total energy              =  -64424.07884496 Ry
     estimated scf accuracy    <       0.00009771 Ry

     iteration # 12     ecut=    70.00 Ry     beta= 0.70
     Davidson diagonalization with overlap

---- Real-time Memory Report at c_bands before calling an iterative solver
          1231 MiB given to the printing process from OS
             0 MiB allocation reported by mallinfo(arena+hblkhd)
       1787747 MiB available memory on the node where the printing process lives
------------------
     c_bands:  1 eigenvalues not converged
     ethr =  6.36E-09,  avg # of iterations = 20.0


     -----------------------------------------------
     Non-local corr. energy    =      46.33027128 Ry
     -----------------------------------------------


     total cpu time spent up to now is     2544.6 secs

     total energy              =  -64424.07884593 Ry
     estimated scf accuracy    <       0.00006336 Ry

     iteration # 13     ecut=    70.00 Ry     beta= 0.70
     Davidson diagonalization with overlap

---- Real-time Memory Report at c_bands before calling an iterative solver
          1231 MiB given to the printing process from OS
             0 MiB allocation reported by mallinfo(arena+hblkhd)
       1787743 MiB available memory on the node where the printing process lives
------------------
     ethr =  4.12E-09,  avg # of iterations = 20.0


     -----------------------------------------------
     Non-local corr. energy    =      46.33174477 Ry
     -----------------------------------------------


     total cpu time spent up to now is     2717.3 secs

     total energy              =  -64424.07885091 Ry
     estimated scf accuracy    <       0.00002852 Ry

     iteration # 14     ecut=    70.00 Ry     beta= 0.70
     Davidson diagonalization with overlap

---- Real-time Memory Report at c_bands before calling an iterative solver
          1231 MiB given to the printing process from OS
             0 MiB allocation reported by mallinfo(arena+hblkhd)
       1787730 MiB available memory on the node where the printing process lives
------------------
     ethr =  1.86E-09,  avg # of iterations = 11.0


     -----------------------------------------------
     Non-local corr. energy    =      46.33209685 Ry
     -----------------------------------------------


     total cpu time spent up to now is     2827.8 secs

     total energy              =  -64424.07885303 Ry
     estimated scf accuracy    <       0.00000368 Ry

     iteration # 15     ecut=    70.00 Ry     beta= 0.70
     Davidson diagonalization with overlap

---- Real-time Memory Report at c_bands before calling an iterative solver
          1231 MiB given to the printing process from OS
             0 MiB allocation reported by mallinfo(arena+hblkhd)
       1787722 MiB available memory on the node where the printing process lives
------------------
     c_bands:  2 eigenvalues not converged
     ethr =  2.40E-10,  avg # of iterations = 20.0


     -----------------------------------------------
     Non-local corr. energy    =      46.33187396 Ry
     -----------------------------------------------


     total cpu time spent up to now is     3064.6 secs

     total energy              =  -64424.07885375 Ry
     estimated scf accuracy    <       0.00000314 Ry

     iteration # 16     ecut=    70.00 Ry     beta= 0.70
     Davidson diagonalization with overlap

---- Real-time Memory Report at c_bands before calling an iterative solver
          1231 MiB given to the printing process from OS
             0 MiB allocation reported by mallinfo(arena+hblkhd)
       1787593 MiB available memory on the node where the printing process lives
------------------
     c_bands:  1 eigenvalues not converged
     ethr =  2.05E-10,  avg # of iterations = 20.0


     -----------------------------------------------
     Non-local corr. energy    =      46.33176058 Ry
     -----------------------------------------------


     total cpu time spent up to now is     3224.1 secs

     total energy              =  -64424.07885376 Ry
     estimated scf accuracy    <       0.00000085 Ry

     iteration # 17     ecut=    70.00 Ry     beta= 0.70
     Davidson diagonalization with overlap

---- Real-time Memory Report at c_bands before calling an iterative solver
          1231 MiB given to the printing process from OS
             0 MiB allocation reported by mallinfo(arena+hblkhd)
       1787606 MiB available memory on the node where the printing process lives
------------------
     c_bands:  2 eigenvalues not converged
     ethr =  5.52E-11,  avg # of iterations = 20.0


     -----------------------------------------------
     Non-local corr. energy    =      46.33160600 Ry
     -----------------------------------------------


     total cpu time spent up to now is     3390.5 secs

     total energy              =  -64424.07885353 Ry
     estimated scf accuracy    <       0.00000078 Ry

     iteration # 18     ecut=    70.00 Ry     beta= 0.70
     Davidson diagonalization with overlap

---- Real-time Memory Report at c_bands before calling an iterative solver
          1231 MiB given to the printing process from OS
             0 MiB allocation reported by mallinfo(arena+hblkhd)
       1787600 MiB available memory on the node where the printing process lives
------------------
     c_bands:  2 eigenvalues not converged
     ethr =  5.08E-11,  avg # of iterations = 20.0


     -----------------------------------------------
     Non-local corr. energy    =      46.33154314 Ry
     -----------------------------------------------


     total cpu time spent up to now is     3575.3 secs

     total energy              =  -64424.07885345 Ry
     estimated scf accuracy    <       0.00000061 Ry

     iteration # 19     ecut=    70.00 Ry     beta= 0.70
     Davidson diagonalization with overlap

---- Real-time Memory Report at c_bands before calling an iterative solver
          1231 MiB given to the printing process from OS
             0 MiB allocation reported by mallinfo(arena+hblkhd)
       1787546 MiB available memory on the node where the printing process lives
------------------
     c_bands:  1 eigenvalues not converged
     ethr =  3.95E-11,  avg # of iterations = 20.0


     -----------------------------------------------
     Non-local corr. energy    =      46.33144233 Ry
     -----------------------------------------------


     total cpu time spent up to now is     3766.3 secs

     total energy              =  -64424.07885340 Ry
     estimated scf accuracy    <       0.00000032 Ry

     iteration # 20     ecut=    70.00 Ry     beta= 0.70
     Davidson diagonalization with overlap

---- Real-time Memory Report at c_bands before calling an iterative solver
          1231 MiB given to the printing process from OS
             0 MiB allocation reported by mallinfo(arena+hblkhd)
       1787548 MiB available memory on the node where the printing process lives
------------------
     c_bands:  1 eigenvalues not converged
     ethr =  2.08E-11,  avg # of iterations = 20.0


     -----------------------------------------------
     Non-local corr. energy    =      46.33143374 Ry
     -----------------------------------------------


     total cpu time spent up to now is     3976.5 secs

     total energy              =  -64424.07885339 Ry
     estimated scf accuracy    <       0.00000026 Ry

     iteration # 21     ecut=    70.00 Ry     beta= 0.70
     Davidson diagonalization with overlap

---- Real-time Memory Report at c_bands before calling an iterative solver
          1231 MiB given to the printing process from OS
             0 MiB allocation reported by mallinfo(arena+hblkhd)
       1787538 MiB available memory on the node where the printing process lives
------------------
     c_bands:  1 eigenvalues not converged
     ethr =  1.66E-11,  avg # of iterations = 20.0


     -----------------------------------------------
     Non-local corr. energy    =      46.33145167 Ry
     -----------------------------------------------


     total cpu time spent up to now is     4166.3 secs

     End of self-consistent calculation

          k = 0.0000 0.0000 0.0000 (302703 PWs)   bands (ev):

   -43.8085 -43.8071 -43.8029 -43.7995 -43.7935 -41.5817 -41.5817 -41.5645
   -41.5645 -41.5627 -41.5625 -41.5330 -41.5330 -41.5298 -41.5297 -41.5165
   -41.5165 -41.5147 -41.5146 -41.5134 -41.5134 -41.5116 -41.5115 -41.3773
   -41.3773 -41.3769 -41.3769 -41.3634 -41.3634 -41.3629 -41.3629 -41.3618
   -41.3618 -41.3614 -41.3614 -40.9167 -40.9167 -40.9166 -40.9166 -40.9148
   -40.9147 -40.9145 -40.9145 -40.9141 -40.9140 -40.9139 -40.9138 -40.9120
   -40.9119 -40.9119 -40.9118 -40.9101 -40.9100 -40.9098 -40.9098 -40.9094
   -40.9093 -40.9092 -40.9091 -40.9049 -40.9049 -40.9048 -40.9048 -40.9030
   -40.9030 -40.9028 -40.9028 -40.9025 -40.9024 -40.9022 -40.9021 -40.8872
   -40.8872 -40.8871 -40.8871 -40.8870 -40.8869 -40.8869 -40.8869 -40.8856
   -40.8855 -40.8854 -40.8854 -40.8853 -40.8853 -40.8851 -40.8851 -40.8850
   -40.8849 -40.8848 -40.8848 -40.8847 -40.8847 -40.8846 -40.8845 -40.8262
   -40.8260 -40.8258 -40.8257 -40.8256 -40.8255 -40.8254 -40.8254 -40.8252
   -40.8251 -40.8250 -40.8248 -40.8224 -40.8222 -40.8220 -40.8219 -40.8218
   -40.8218 -40.8216 -40.8216 -40.8214 -40.8214 -40.8213 -40.8212 -40.8212
   -40.8210 -40.8210 -40.8210 -40.8208 -40.8207 -40.8095 -40.8093 -40.8092
   -40.8092 -40.8091 -40.8090 -40.8087 -40.8085 -40.8084 -40.8084 -40.8083
   -40.8082 -40.8056 -40.8053 -40.8053 -40.8052 -40.8051 -40.8051 -40.8015
   -40.8013 -40.8012 -40.8012 -40.8011 -40.8011 -40.8006 -40.8004 -40.8004
   -40.8004 -40.8003 -40.8002 -40.7758 -40.7757 -40.7757 -40.7756 -40.7756
   -40.7755 -40.7745 -40.7745 -40.7743 -40.7743 -40.7349 -40.7349 -40.7348
   -40.7348 -40.7344 -40.7344 -40.7343 -40.7342 -40.7341 -40.7339 -40.7338
   -40.7337 -40.7337 -40.7337 -40.7330 -40.7330 -40.7300 -40.7299 -40.7299
   -40.7299 -40.7299 -40.7298 -40.7298 -40.7298 -40.7292 -40.7292 -40.7291
   -40.7291 -40.7187 -40.7186 -40.7186 -40.7186 -40.7183 -40.7182 -40.7182
   -40.7182 -40.7180 -40.7180 -40.7176 -40.7176 -40.6953 -40.6953 -40.6953
   -40.6952 -40.6951 -40.6951 -40.6949 -40.6949 -40.6949 -40.6948 -40.6947
   -40.6947 -40.6947 -40.6946 -40.6946 -40.6945 -40.6945 -40.6945 -40.6945
   -40.6945 -40.6944 -40.6944 -40.6943 -40.6943 -40.6942 -40.6942 -40.6942
   -40.6941 -40.6941 -40.6940 -40.6835 -40.6835 -40.6835 -40.6834 -40.6834
   -40.6834 -40.6834 -40.6834 -40.6833 -40.6833 -40.6833 -40.6833 -40.6832
   -40.6831 -40.6831 -40.6830 -40.6830 -40.6830 -40.6830 -40.6830 -40.6830
   -40.6829 -40.6829 -40.6829 -40.6829 -40.6829 -40.6828 -40.6828 -40.6828
   -40.6828 -40.6827 -40.6827 -40.6827 -40.6827 -40.6827 -40.6827 -40.6827
   -40.6826 -40.6826 -40.6826 -40.6826 -40.6826 -40.6826 -40.6826 -40.6825
   -40.6825 -40.6825 -40.6825 -40.6825 -40.6824 -40.6824 -40.6824 -40.6823
   -40.6823 -40.6823 -40.6823 -40.6823 -40.6823 -40.6823 -40.6822 -40.6822
   -40.6822 -40.6822 -40.6822 -40.6822 -40.6822 -40.6822 -40.6821 -40.6821
   -40.6821 -40.6821 -40.6821 -40.6821 -40.6821 -40.6820 -40.6820 -40.6820
   -40.6820 -40.6818 -40.6817 -40.6817 -40.6816 -40.6816 -40.6815 -40.6814
   -40.6813 -40.6812 -40.6812 -40.6812 -40.6811 -13.0659 -13.0657 -13.0645
   -13.0620 -13.0604 -13.0602 -13.0518 -13.0486 -13.0481 -13.0477 -13.0475
   -13.0474 -13.0471 -13.0454 -13.0451 -13.0425 -13.0411 -13.0382 -13.0353
   -13.0351 -13.0343 -13.0342 -13.0340 -13.0338 -13.0317 -13.0316 -13.0305
   -13.0302 -13.0301 -13.0299 -12.9838 -12.9836 -12.9825 -12.9788 -12.9783
   -12.9767 -12.9695 -12.9694 -12.9683 -12.9650 -12.9645 -12.9638 -12.9632
   -12.9631 -12.9621 -12.9441 -12.9440 -12.9436 -12.9423 -12.9415 -12.9414
   -12.9353 -12.9345 -12.9312 -12.9310 -12.9309 -12.9308 -12.9272 -12.9265
   -12.9261 -12.9260 -12.9253 -12.9253 -12.9252 -12.9250 -12.9235 -12.9234
   -12.9232 -12.9231 -12.9196 -12.9195 -12.9193 -12.9192 -12.9181 -12.9178
   -12.8472 -12.8437 -12.8392 -12.8392 -12.8376 -12.8376 -12.8335 -12.8335
   -12.8333 -12.8333 -12.8302 -12.8301 -12.8301 -12.8294 -12.8280 -12.8258
   -12.8247 -12.8247 -12.8232 -12.8224 -12.8223 -12.8218 -12.8212 -12.8212
   -12.8191 -12.8190 -12.8188 -12.8188 -12.8181 -12.8180 -12.8180 -12.8170
   -12.8165 -12.8165 -12.8164 -12.8160 -12.8157 -12.8157 -12.8151 -12.8141
   -12.8141 -12.8139 -12.8139 -12.8138 -12.8118 -12.8107 -12.8107 -12.8106
   -12.8106 -12.8104 -12.8104 -12.8080 -12.8079 -12.8069 -12.8068 -12.8066
   -12.8064 -12.8063 -12.8060 -12.8055 -12.8055 -12.8048 -12.8042 -12.8041
   -12.8041 -12.8029 -12.8026 -12.8024 -12.8024 -12.8000 -12.8000 -12.7925
   -12.7925 -12.7919 -12.7908 -12.7901 -12.7901 -12.7897 -12.7895 -12.7895
   -10.2780  -8.1998  -8.1905  -8.1372  -8.1331  -8.0803  -8.0722  -7.9536
    -7.9525  -7.9524  -7.9141  -7.9071  -7.8828  -7.8814  -7.7692  -7.7690
    -7.7660  -7.7658  -7.7570  -7.7570  -7.7535  -7.7050  -7.6932  -7.6922
    -7.6920  -7.6640  -7.6630  -7.6311  -7.6295  -7.6294  -7.6159  -7.6158
    -7.5987  -7.5929  -7.5662  -7.5661  -7.5541  -7.5536  -7.5383  -7.5370
    -7.5347  -7.5294  -7.5291  -7.5244  -7.5243  -7.5229  -7.5148  -7.5111
    -7.5010  -7.5010  -7.4551  -7.4550  -7.4522  -7.4434  -7.4426  -7.4425
    -7.4251  -7.4062  -7.4061  -7.4024  -7.3987  -7.3986  -7.3870  -7.3870
    -7.3817  -3.7327  -3.7317  -3.7173  -3.6844  -3.6837  -3.6614  -3.6478
    -3.6475  -3.5887  -3.5217  -3.5217  -3.5204  -3.5107  -3.5106  -3.5081
    -3.5072  -3.5071  -3.5061  -3.4501  -3.4493  -3.4147  -3.4141  -3.3699
    -3.2639  -3.2639  -3.2557  -3.2476  -3.2476  -3.2476  -3.2220  -3.0360
    -0.4987  -0.4830  -0.4808   0.9033   0.9035   0.9250   1.1524   1.1541
     1.1722   1.1723   1.1723   1.1813   1.2161   1.2162   1.2845   1.2880
     1.3316   1.3359   1.3369   1.4085   1.4088   1.4253   1.4259   1.4327
     1.4407   1.4408   1.4411   1.4564   1.4912   1.4914   1.5442   1.5442
     1.5467   1.5471   1.5472   1.5541   1.5952   1.6485   1.6496   1.6689
     1.6689   1.6790   1.6821   1.6883   1.6887   1.7463   1.7474   1.7550
     1.7557   1.7589   1.7720   1.8438   1.8445   1.8447   1.9299   1.9717
     1.9814   1.9842   2.0019   2.0026   2.0405   2.0407   2.0494   2.0690
     2.0808   2.0808   2.0900   2.0958   2.0973   2.0998   2.0999   2.1002
     2.1157   2.1157   2.1502   2.1791   2.1814   2.1818   2.1845   2.1932
     2.2000   2.2012   2.2463   2.2473   2.2931   2.3160   2.3164   2.3388
     2.3390   2.3392   2.3400   2.3724   2.3844   2.3844   2.3867   2.3878
     2.3938   2.3938   2.3964   2.3994   2.4517   2.4613   2.4831   2.4832
     2.5233   2.5235   2.5476   2.5627   2.5637   2.5891   2.5893   2.5907
     2.6124   2.6124   2.6718   2.6720   2.6721   2.6834   2.6849   2.7081
     2.7294   2.7472   2.7878   2.7882   2.7911   2.7925   2.8180   2.8247
     2.8250   2.8259   2.8384   2.8385   2.8533   2.8533   2.8535   2.8621
     2.8657   2.8660   2.8840   2.9254   2.9255   2.9407   2.9408   2.9553
     2.9670   2.9866   2.9867   2.9891   2.9893   2.9935   2.9936   3.0010
     3.0209   3.0262   3.0413   3.0414   3.0444   3.0504   3.0504   3.0545
     3.0590   3.0591   3.0654   3.0655   3.0722   3.0983   3.1563   3.1569
     3.1775   3.1778   3.1867   3.1870   3.2031   3.2178   3.2180   3.2389
     3.2403   3.2405   3.2409   3.3809   3.3876   3.4065   3.4065   3.4087
     3.4088   3.4197   3.4323   3.4404   3.4405   3.4469   3.4469   3.4756
     3.7097   3.7114   3.7171   5.9913   6.2076   6.4675   6.4955   6.4958
     6.5283   6.5285   6.5561   6.5822   6.5826   6.6535   6.7368   6.7419
     6.7423   6.7445   6.7447   6.7866   6.7868   6.8164   6.8866   6.9095
     6.9097   6.9277   6.9282   6.9741   6.9741   6.9761   7.0117   7.0532
     7.0533   7.0637   7.0986   7.0991   7.1540   7.1543   7.1564   7.2141
     7.2209   7.2212   7.2244   7.2542   7.2546   7.2637   7.2637   7.2888
     7.2889   7.2890   7.2997   7.3175   7.3176   7.3231   7.3365   7.3422
     7.3422   7.3469   7.4022   7.4025   7.4053   7.4196   7.4261   7.4264
     7.4323   7.4327   7.4683   7.4685   7.4877   7.4980   7.4981   7.4987
     7.5066   7.5067   7.5077   7.5118   7.5148   7.5163   7.5164   7.5582
     7.5630   7.5636   7.6005   7.6005   7.6149   7.6150   7.6165   7.7661
     7.7675   7.7677   7.7775   7.7906   7.7906   8.0468   8.0535   8.0535
     9.1273   9.1338   9.1339   9.6205   9.6212   9.6615   9.8261   9.8261
     9.8354   9.8427   9.8524   9.8925   9.8928  10.0187  10.0528  10.0529
    10.0633  10.0756  10.0761  10.0807  10.0913  10.0915  10.0998  10.1000
    10.1018  10.2942  10.2944  10.3239  10.3257  10.3556  10.3925  10.4301
    10.5040  10.5154  10.5156  10.5221  10.5223  10.5279  10.7315  10.7322
    10.7342  10.7884  10.8333  10.8333  10.8749  10.9259  10.9266  10.9601
    10.9601  10.9664  11.0733  11.1343  11.1362  11.1373  11.1378  11.2149
    11.2210  11.2215

     occupation numbers 
     1.0000   1.0000   1.0000   1.0000   1.0000   1.0000   1.0000   1.0000
     1.0000   1.0000   1.0000   1.0000   1.0000   1.0000   1.0000   1.0000
     1.0000   1.0000   1.0000   1.0000   1.0000   1.0000   1.0000   1.0000
     1.0000   1.0000   1.0000   1.0000   1.0000   1.0000   1.0000   1.0000
     1.0000   1.0000   1.0000   1.0000   1.0000   1.0000   1.0000   1.0000
     1.0000   1.0000   1.0000   1.0000   1.0000   1.0000   1.0000   1.0000
     1.0000   1.0000   1.0000   1.0000   1.0000   1.0000   1.0000   1.0000
     1.0000   1.0000   1.0000   1.0000   1.0000   1.0000   1.0000   1.0000
     1.0000   1.0000   1.0000   1.0000   1.0000   1.0000   1.0000   1.0000
     1.0000   1.0000   1.0000   1.0000   1.0000   1.0000   1.0000   1.0000
     1.0000   1.0000   1.0000   1.0000   1.0000   1.0000   1.0000   1.0000
     1.0000   1.0000   1.0000   1.0000   1.0000   1.0000   1.0000   1.0000
     1.0000   1.0000   1.0000   1.0000   1.0000   1.0000   1.0000   1.0000
     1.0000   1.0000   1.0000   1.0000   1.0000   1.0000   1.0000   1.0000
     1.0000   1.0000   1.0000   1.0000   1.0000   1.0000   1.0000   1.0000
     1.0000   1.0000   1.0000   1.0000   1.0000   1.0000   1.0000   1.0000
     1.0000   1.0000   1.0000   1.0000   1.0000   1.0000   1.0000   1.0000
     1.0000   1.0000   1.0000   1.0000   1.0000   1.0000   1.0000   1.0000
     1.0000   1.0000   1.0000   1.0000   1.0000   1.0000   1.0000   1.0000
     1.0000   1.0000   1.0000   1.0000   1.0000   1.0000   1.0000   1.0000
     1.0000   1.0000   1.0000   1.0000   1.0000   1.0000   1.0000   1.0000
     1.0000   1.0000   1.0000   1.0000   1.0000   1.0000   1.0000   1.0000
     1.0000   1.0000   1.0000   1.0000   1.0000   1.0000   1.0000   1.0000
     1.0000   1.0000   1.0000   1.0000   1.0000   1.0000   1.0000   1.0000
     1.0000   1.0000   1.0000   1.0000   1.0000   1.0000   1.0000   1.0000
     1.0000   1.0000   1.0000   1.0000   1.0000   1.0000   1.0000   1.0000
     1.0000   1.0000   1.0000   1.0000   1.0000   1.0000   1.0000   1.0000
     1.0000   1.0000   1.0000   1.0000   1.0000   1.0000   1.0000   1.0000
     1.0000   1.0000   1.0000   1.0000   1.0000   1.0000   1.0000   1.0000
     1.0000   1.0000   1.0000   1.0000   1.0000   1.0000   1.0000   1.0000
     1.0000   1.0000   1.0000   1.0000   1.0000   1.0000   1.0000   1.0000
     1.0000   1.0000   1.0000   1.0000   1.0000   1.0000   1.0000   1.0000
     1.0000   1.0000   1.0000   1.0000   1.0000   1.0000   1.0000   1.0000
     1.0000   1.0000   1.0000   1.0000   1.0000   1.0000   1.0000   1.0000
     1.0000   1.0000   1.0000   1.0000   1.0000   1.0000   1.0000   1.0000
     1.0000   1.0000   1.0000   1.0000   1.0000   1.0000   1.0000   1.0000
     1.0000   1.0000   1.0000   1.0000   1.0000   1.0000   1.0000   1.0000
     1.0000   1.0000   1.0000   1.0000   1.0000   1.0000   1.0000   1.0000
     1.0000   1.0000   1.0000   1.0000   1.0000   1.0000   1.0000   1.0000
     1.0000   1.0000   1.0000   1.0000   1.0000   1.0000   1.0000   1.0000
     1.0000   1.0000   1.0000   1.0000   1.0000   1.0000   1.0000   1.0000
     1.0000   1.0000   1.0000   1.0000   1.0000   1.0000   1.0000   1.0000
     1.0000   1.0000   1.0000   1.0000   1.0000   1.0000   1.0000   1.0000
     1.0000   1.0000   1.0000   1.0000   1.0000   1.0000   1.0000   1.0000
     1.0000   1.0000   1.0000   1.0000   1.0000   1.0000   1.0000   1.0000
     1.0000   1.0000   1.0000   1.0000   1.0000   1.0000   1.0000   1.0000
     1.0000   1.0000   1.0000   1.0000   1.0000   1.0000   1.0000   1.0000
     1.0000   1.0000   1.0000   1.0000   1.0000   1.0000   1.0000   1.0000
     1.0000   1.0000   1.0000   1.0000   1.0000   1.0000   1.0000   1.0000
     1.0000   1.0000   1.0000   1.0000   1.0000   1.0000   1.0000   1.0000
     1.0000   1.0000   1.0000   1.0000   1.0000   1.0000   1.0000   1.0000
     1.0000   1.0000   1.0000   1.0000   1.0000   1.0000   1.0000   1.0000
     1.0000   1.0000   1.0000   1.0000   1.0000   1.0000   1.0000   1.0000
     1.0000   1.0000   1.0000   1.0000   1.0000   1.0000   1.0000   1.0000
     1.0000   1.0000   1.0000   1.0000   1.0000   1.0000   1.0000   1.0000
     1.0000   1.0000   1.0000   1.0000   1.0000   1.0000   1.0000   1.0000
     1.0000   1.0000   1.0000   1.0000   1.0000   1.0000   1.0000   1.0000
     1.0000   1.0000   1.0000   1.0000   1.0000   1.0000   1.0000   1.0000
     1.0000   1.0000   1.0000   1.0000   1.0000   1.0000   1.0000   1.0000
     1.0000   1.0000   1.0000   1.0000   1.0000   1.0000   1.0000   1.0000
     1.0000   1.0000   1.0000   1.0000   1.0000   1.0000   1.0000   1.0000
     1.0000   1.0000   1.0000   1.0000   1.0000   1.0000   1.0000   1.0000
     1.0000   1.0000   1.0000   1.0000   1.0000   1.0000   1.0000   1.0000
     1.0000   1.0000   1.0000   1.0000   1.0000   1.0000   1.0000   1.0000
     1.0000   1.0000   1.0000   1.0000   1.0000   1.0000   1.0000   1.0000
     1.0000   1.0000   1.0000   1.0000   1.0000   1.0000   1.0000   1.0000
     1.0000   1.0000   1.0000   1.0000   1.0000   1.0000   1.0000   1.0000
     1.0000   1.0000   1.0000   1.0000   1.0000   1.0000   1.0000   1.0000
     1.0000   1.0000   1.0000   1.0000   1.0000   1.0000   1.0000   1.0000
     1.0000   1.0000   1.0000   1.0000   1.0000   1.0000   1.0000   1.0000
     1.0000   1.0000   1.0000   1.0000   1.0000   1.0000   1.0000   1.0000
     1.0000   1.0000   1.0000   1.0000   1.0000   1.0000   1.0000   1.0000
     1.0000   1.0000   1.0000   1.0000   1.0000   1.0000   1.0000   1.0000
     1.0000   1.0000   1.0000   1.0000   1.0000   1.0000   1.0000   1.0000
     1.0000   1.0000   1.0000   1.0000   1.0000   1.0000   1.0000   1.0000
     1.0000   1.0000   1.0000   1.0000   1.0000   1.0000   1.0000   1.0000
     1.0000   1.0000   1.0000   1.0000   1.0000   1.0000   1.0000   1.0000
     1.0000   1.0000   1.0000   1.0000   1.0000   1.0000   1.0000   1.0000
     1.0000   1.0000   1.0000   1.0000   1.0000   1.0000   1.0000   1.0000
     1.0000   1.0000   1.0000   1.0000   1.0000   1.0000   1.0000   1.0000
     1.0000   1.0000   1.0000   1.0000   1.0000   1.0000   1.0000   1.0000
     1.0000   1.0000   1.0000   1.0000   1.0000   1.0000   1.0000   1.0000
     1.0000   1.0000   1.0000   1.0000   1.0000   1.0000   1.0000   1.0000
     1.0000   1.0000   1.0000   1.0000   1.0000   1.0000   1.0000   1.0000
     1.0000   1.0000   1.0000   1.0000   1.0000   1.0000   1.0000   1.0000
     1.0000   1.0000   1.0000   1.0000   1.0000   1.0000   1.0000   1.0000
     1.0000   1.0000   1.0000   1.0000   1.0000   1.0000   1.0000   1.0000
     1.0000   1.0000   1.0000   1.0000   1.0000   1.0000   1.0000   1.0000
     1.0000   1.0000   1.0000   1.0000   1.0000   1.0000   1.0000   1.0000
     1.0000   1.0000   1.0000   1.0000   1.0000   1.0000   1.0000   1.0000
     1.0000   1.0000   1.0000   1.0000   1.0000   1.0000   1.0000   1.0000
     1.0000   1.0000   1.0000   1.0000   1.0000   1.0000   1.0000   1.0000
     1.0000   1.0000   1.0000   1.0000   1.0000   1.0000   1.0000   1.0000
     1.0000   1.0000   1.0000   1.0000   1.0000   1.0000   1.0000   0.9999
     0.9999   0.9999   0.9999   0.9909   0.9890   0.9819   0.9819   0.9808
     0.9808   0.9748   0.9661   0.9592   0.9592   0.9529   0.9529   0.9156
     0.1451   0.1411   0.1283   0.0000   0.0000   0.0000   0.0000   0.0000
     0.0000   0.0000   0.0000   0.0000   0.0000   0.0000   0.0000   0.0000
     0.0000   0.0000   0.0000   0.0000   0.0000   0.0000   0.0000   0.0000
     0.0000   0.0000   0.0000   0.0000   0.0000   0.0000   0.0000   0.0000
     0.0000   0.0000   0.0000   0.0000   0.0000   0.0000   0.0000   0.0000
     0.0000   0.0000   0.0000   0.0000   0.0000   0.0000   0.0000   0.0000
     0.0000   0.0000   0.0000   0.0000   0.0000   0.0000   0.0000   0.0000
     0.0000   0.0000   0.0000   0.0000   0.0000   0.0000   0.0000   0.0000
     0.0000   0.0000   0.0000   0.0000   0.0000   0.0000   0.0000   0.0000
     0.0000   0.0000   0.0000   0.0000   0.0000   0.0000   0.0000   0.0000
     0.0000   0.0000   0.0000   0.0000   0.0000   0.0000   0.0000   0.0000
     0.0000   0.0000   0.0000   0.0000   0.0000   0.0000   0.0000   0.0000
     0.0000   0.0000   0.0000   0.0000   0.0000   0.0000   0.0000   0.0000
     0.0000   0.0000   0.0000   0.0000   0.0000   0.0000   0.0000   0.0000
     0.0000   0.0000   0.0000   0.0000   0.0000   0.0000   0.0000   0.0000
     0.0000   0.0000   0.0000   0.0000   0.0000   0.0000   0.0000   0.0000
     0.0000   0.0000   0.0000   0.0000   0.0000   0.0000   0.0000   0.0000
     0.0000   0.0000   0.0000   0.0000   0.0000   0.0000   0.0000   0.0000
     0.0000   0.0000   0.0000   0.0000   0.0000   0.0000   0.0000   0.0000
     0.0000   0.0000

     the Fermi energy is     3.6080 ev

!    total energy              =  -64424.07885340 Ry
     total all-electron energy =  -2221426.225495 Ry
     estimated scf accuracy    <       0.00000004 Ry
     smearing contrib. (-TS)   =      -0.02205942 Ry
     internal energy E=F+TS    =  -64424.05679398 Ry

     The total energy is F=E-TS. E is the sum of the following terms:
     one-electron contribution =  -12027.19412590 Ry
     hartree contribution      =    6705.79355091 Ry
     xc contribution           =   -4554.35242780 Ry
     ewald contribution        =   -9921.72700348 Ry
     one-center paw contrib.   =  -44626.57678771 Ry
      -> PAW hartree energy AE =      95.77849854 Ry
      -> PAW hartree energy PS =     -96.01416734 Ry
      -> PAW xc energy AE      =    -798.41873299 Ry
      -> PAW xc energy PS      =      33.29957980 Ry
      -> total E_H with PAW    =    6705.55788210 Ry
      -> total E_XC with PAW   =   -5319.47158099 Ry

     convergence has been achieved in  21 iterations


     -----------------------------------------------
     Non-local corr. energy    =      46.33145167 Ry
     -----------------------------------------------


     Forces acting on atoms (cartesian axes, Ry/au):

     atom    1 type  1   force =    -0.00000099    0.00000521   -0.00001507
     atom    2 type  1   force =    -0.00073916    0.00139009    0.00008034
     atom    3 type  1   force =    -0.00022435    0.00037014   -0.00000504
     atom    4 type  1   force =    -0.00000328   -0.00000302    0.00000473
     atom    5 type  1   force =     0.00000051   -0.00000162   -0.00000874
     atom    6 type  1   force =     0.00074009   -0.00139876   -0.00006391
     atom    7 type  1   force =     0.00022499   -0.00036908   -0.00001768
     atom    8 type  1   force =     0.00158734    0.00005478   -0.00005084
     atom    9 type  1   force =     0.00043128   -0.00000709   -0.00001854
     atom   10 type  1   force =     0.00075159    0.00131319    0.00001877
     atom   11 type  1   force =     0.00021423    0.00037523   -0.00001282
     atom   12 type  1   force =     0.00001667    0.00069830    0.00047517
     atom   13 type  1   force =    -0.00000756    0.00022513   -0.00033179
     atom   14 type  1   force =     0.00060280   -0.00034972    0.00047884
     atom   15 type  1   force =     0.00019202   -0.00011219   -0.00033649
     atom   16 type  1   force =     0.00000026    0.00000780    0.00000676
     atom   17 type  1   force =    -0.00000001    0.00000375   -0.00000513
     atom   18 type  1   force =     0.00060049    0.00036671   -0.00046368
     atom   19 type  1   force =     0.00019846    0.00011001    0.00031858
     atom   20 type  1   force =     0.00000358   -0.00000320    0.00000511
     atom   21 type  1   force =     0.00000094   -0.00000095   -0.00000770
     atom   22 type  1   force =    -0.00059646   -0.00036486    0.00047413
     atom   23 type  1   force =    -0.00019943   -0.00010774   -0.00033046
     atom   24 type  1   force =    -0.00158399   -0.00004650    0.00007175
     atom   25 type  1   force =    -0.00043031    0.00001396   -0.00000141
     atom   26 type  1   force =    -0.00060682    0.00035040   -0.00046823
     atom   27 type  1   force =    -0.00019155    0.00011192    0.00032578
     atom   28 type  1   force =    -0.00001636   -0.00070642   -0.00046365
     atom   29 type  1   force =     0.00000479   -0.00022790    0.00031774
     atom   30 type  1   force =    -0.00075186   -0.00131635   -0.00000278
     atom   31 type  1   force =    -0.00021666   -0.00037333   -0.00000853
     atom   32 type  2   force =     0.00001470    0.00016199    0.00001723
     atom   33 type  2   force =     0.00000810    0.00239804    0.00022891
     atom   34 type  2   force =     0.00013748   -0.00007126    0.00001679
     atom   35 type  2   force =     0.00268484   -0.00155130    0.00052067
     atom   36 type  2   force =     0.00000891   -0.00002007    0.00034898
     atom   37 type  2   force =     0.00042411   -0.00037397    0.00025782
     atom   38 type  2   force =    -0.00000776    0.00001512    0.00034553
     atom   39 type  2   force =    -0.00010134    0.00056492    0.00025118
     atom   40 type  2   force =    -0.00054363    0.00030936    0.00022622
     atom   41 type  2   force =    -0.00023822    0.00012775   -0.00006907
     atom   42 type  2   force =    -0.00014199   -0.00008879    0.00001057
     atom   43 type  2   force =    -0.00213604   -0.00124479    0.00025308
     atom   44 type  2   force =    -0.00000952   -0.00060318    0.00021499
     atom   45 type  2   force =    -0.00002281   -0.00026544   -0.00007468
     atom   46 type  2   force =    -0.00028564   -0.00016692   -0.00031357
     atom   47 type  2   force =    -0.00001591   -0.00000797   -0.00011270
     atom   48 type  2   force =    -0.00000107    0.00032894   -0.00031200
     atom   49 type  2   force =    -0.00000182    0.00001280   -0.00011305
     atom   50 type  2   force =    -0.00001507   -0.00000396    0.00034556
     atom   51 type  2   force =    -0.00053264   -0.00019554    0.00024810
     atom   52 type  2   force =    -0.00000956   -0.00002529    0.00033998
     atom   53 type  2   force =    -0.00040562   -0.00036263    0.00025428
     atom   54 type  2   force =     0.00026953   -0.00015821   -0.00031648
     atom   55 type  2   force =    -0.00000217    0.00000035   -0.00012045
     atom   56 type  2   force =     0.00051456    0.00030287    0.00022735
     atom   57 type  2   force =     0.00022792    0.00014869   -0.00008700
     atom   58 type  2   force =     0.00002223    0.00000507    0.00035020
     atom   59 type  2   force =     0.00054113   -0.00017752    0.00025301
     atom   60 type  2   force =     0.00000987   -0.00000194    0.00104374
     atom   61 type  2   force =     0.00000958   -0.00000128    0.00027186
     atom   62 type  2   force =     0.00001960    0.00002104    0.00034213
     atom   63 type  2   force =     0.00012012    0.00054301    0.00024943
     atom   64 type  2   force =     0.00213857    0.00123800   -0.00020895
     atom   65 type  2   force =     0.00012104    0.00008420   -0.00006672
     atom   66 type  2   force =     0.00026320   -0.00014229    0.00010685
     atom   67 type  2   force =     0.00054768   -0.00031632   -0.00025970
     atom   68 type  2   force =     0.00003722    0.00001845    0.00014391
     atom   69 type  2   force =     0.00030696    0.00017542    0.00029382
     atom   70 type  2   force =     0.00002047    0.00030005    0.00011267
     atom   71 type  2   force =     0.00000565    0.00060635   -0.00024651
     atom   72 type  2   force =    -0.00268370    0.00154439   -0.00047431
     atom   73 type  2   force =    -0.00012662    0.00006385   -0.00006895
     atom   74 type  2   force =    -0.00000885   -0.00240602   -0.00018000
     atom   75 type  2   force =    -0.00002029   -0.00014499   -0.00007599
     atom   76 type  2   force =     0.00012392   -0.00055805   -0.00021476
     atom   77 type  2   force =     0.00002544    0.00000747   -0.00038913
     atom   78 type  2   force =    -0.00040613    0.00038899   -0.00023127
     atom   79 type  2   force =     0.00002253    0.00002381   -0.00038649
     atom   80 type  2   force =    -0.00054184    0.00015456   -0.00022646
     atom   81 type  2   force =    -0.00000755   -0.00003485   -0.00038583
     atom   82 type  2   force =    -0.00025391   -0.00016116    0.00012356
     atom   83 type  2   force =    -0.00052086   -0.00030753   -0.00025299
     atom   84 type  2   force =    -0.00014519   -0.00053207   -0.00022215
     atom   85 type  2   force =    -0.00004074    0.00000683   -0.00038266
     atom   86 type  2   force =    -0.00001136    0.00000287   -0.00024532
     atom   87 type  2   force =    -0.00000483    0.00000271   -0.00108155
     atom   88 type  2   force =     0.00053700    0.00017273   -0.00022142
     atom   89 type  2   force =     0.00000851   -0.00002602   -0.00038796
     atom   90 type  2   force =     0.00000541   -0.00003488    0.00014489
     atom   91 type  2   force =     0.00000583   -0.00035219    0.00029383
     atom   92 type  2   force =    -0.00001652    0.00001282    0.00014671
     atom   93 type  2   force =    -0.00029120    0.00017256    0.00029978
     atom   94 type  2   force =     0.00038847    0.00038150   -0.00022981
     atom   95 type  2   force =    -0.00002172    0.00003519   -0.00038127
     atom   96 type  2   force =     0.00000037   -0.00000420    0.00009035
     The non-local contrib.  to forces
     atom    1 type  1   force =     0.00000878   -0.00003275    0.00000441
     atom    2 type  1   force =    -0.03904181    0.06857520    0.00064289
     atom    3 type  1   force =     0.00048023   -0.00079828   -0.00001651
     atom    4 type  1   force =     0.00000396   -0.00000540    0.00000897
     atom    5 type  1   force =     0.00000946   -0.00002502    0.00000766
     atom    6 type  1   force =     0.03901203   -0.06854065   -0.00062888
     atom    7 type  1   force =    -0.00045073    0.00075911    0.00002923
     atom    8 type  1   force =     0.07895554    0.00039664   -0.00059959
     atom    9 type  1   force =    -0.00092334   -0.00001977    0.00001590
     atom   10 type  1   force =     0.03911640    0.06783004    0.00008154
     atom   11 type  1   force =    -0.00043161   -0.00075486    0.00000609
     atom   12 type  1   force =     0.00013228    0.01419062   -0.01892482
     atom   13 type  1   force =     0.00000240    0.00930471    0.00895786
     atom   14 type  1   force =     0.01229734   -0.00713677   -0.01885287
     atom   15 type  1   force =     0.00814934   -0.00473896    0.00901892
     atom   16 type  1   force =     0.00000131   -0.00005527   -0.00001095
     atom   17 type  1   force =     0.00000359   -0.00003548   -0.00001628
     atom   18 type  1   force =     0.01222316    0.00720978    0.01892079
     atom   19 type  1   force =     0.00809601    0.00465518   -0.00898794
     atom   20 type  1   force =    -0.00000086   -0.00001065    0.00001350
     atom   21 type  1   force =    -0.00000351   -0.00002548    0.00000412
     atom   22 type  1   force =    -0.01222514   -0.00725163   -0.01890333
     atom   23 type  1   force =    -0.00808396   -0.00470529    0.00897241
     atom   24 type  1   force =    -0.07896308   -0.00045580    0.00054891
     atom   25 type  1   force =     0.00092959   -0.00004416   -0.00002928
     atom   26 type  1   force =    -0.01227715    0.00709696    0.01888893
     atom   27 type  1   force =    -0.00814046    0.00468564   -0.00903754
     atom   28 type  1   force =    -0.00012869   -0.01422407    0.01890427
     atom   29 type  1   force =    -0.00000035   -0.00934288   -0.00896688
     atom   30 type  1   force =    -0.03907572   -0.06781151   -0.00004423
     atom   31 type  1   force =     0.00042394    0.00072016    0.00000615
     atom   32 type  2   force =     0.00007574    0.00128858    0.24056812
     atom   33 type  2   force =     0.00005835   -0.00080089    0.22344995
     atom   34 type  2   force =     0.00108369   -0.00061270    0.24066988
     atom   35 type  2   force =     0.00221794   -0.00126957    0.22529087
     atom   36 type  2   force =     0.00129065   -0.00002641    0.24522849
     atom   37 type  2   force =     0.02759586   -0.00691059    0.26702599
     atom   38 type  2   force =     0.00060598    0.00114328    0.24523925
     atom   39 type  2   force =     0.00787662    0.02771794    0.26723935
     atom   40 type  2   force =    -0.01194230    0.00689026    0.22636082
     atom   41 type  2   force =     0.00440495   -0.00254944    0.25348847
     atom   42 type  2   force =    -0.00108065   -0.00069822    0.24056483
     atom   43 type  2   force =     0.00040742    0.00018116    0.22361139
     atom   44 type  2   force =    -0.00002431   -0.01364062    0.22661536
     atom   45 type  2   force =    -0.00006971    0.00510591    0.25355733
     atom   46 type  2   force =    -0.00096322   -0.00055599    0.24045186
     atom   47 type  2   force =     0.00720034    0.00420082    0.26042888
     atom   48 type  2   force =    -0.00000532    0.00110819    0.24045325
     atom   49 type  2   force =    -0.00004033   -0.00832876    0.26042187
     atom   50 type  2   force =    -0.00068466   -0.00108226    0.24523130
     atom   51 type  2   force =    -0.02007134   -0.02067200    0.26723885
     atom   52 type  2   force =    -0.00130661   -0.00004851    0.24524793
     atom   53 type  2   force =    -0.02750045   -0.00689371    0.26700725
     atom   54 type  2   force =     0.00092000   -0.00053665    0.24049668
     atom   55 type  2   force =    -0.00730481    0.00421619    0.26049395
     atom   56 type  2   force =     0.01182781    0.00685141    0.22661346
     atom   57 type  2   force =    -0.00443090   -0.00248567    0.25353984
     atom   58 type  2   force =     0.00069054   -0.00106942    0.24522894
     atom   59 type  2   force =     0.01983581   -0.02044261    0.26704376
     atom   60 type  2   force =     0.00003588   -0.00000506    0.25150264
     atom   61 type  2   force =     0.00001659    0.00001195    0.25723191
     atom   62 type  2   force =    -0.00058363    0.00116715    0.24525537
     atom   63 type  2   force =    -0.00775824    0.02730653    0.26702861
     atom   64 type  2   force =    -0.00039219   -0.00015603   -0.22358846
     atom   65 type  2   force =     0.00105913    0.00071341   -0.24060875
     atom   66 type  2   force =    -0.00440090    0.00254618   -0.25345300
     atom   67 type  2   force =     0.01193416   -0.00688693   -0.22639525
     atom   68 type  2   force =    -0.00719541   -0.00419461   -0.26040500
     atom   69 type  2   force =     0.00097255    0.00057257   -0.24045854
     atom   70 type  2   force =     0.00004649   -0.00505114   -0.25353744
     atom   71 type  2   force =     0.00000563    0.01367109   -0.22666805
     atom   72 type  2   force =    -0.00223839    0.00131530   -0.22526730
     atom   73 type  2   force =    -0.00107789    0.00064597   -0.24071229
     atom   74 type  2   force =    -0.00004108    0.00072913   -0.22340888
     atom   75 type  2   force =    -0.00006873   -0.00126354   -0.24059244
     atom   76 type  2   force =    -0.00784021   -0.02770406   -0.26721898
     atom   77 type  2   force =    -0.00059048   -0.00111364   -0.24525758
     atom   78 type  2   force =    -0.02755047    0.00694956   -0.26699857
     atom   79 type  2   force =    -0.00126974    0.00007110   -0.24525167
     atom   80 type  2   force =    -0.01981932    0.02044699   -0.26702336
     atom   81 type  2   force =    -0.00067640    0.00108543   -0.24525364
     atom   82 type  2   force =     0.00441239    0.00249590   -0.25350147
     atom   83 type  2   force =    -0.01183800   -0.00683888   -0.22663222
     atom   84 type  2   force =     0.00774487   -0.02729719   -0.26700352
     atom   85 type  2   force =     0.00057827   -0.00113758   -0.24527630
     atom   86 type  2   force =    -0.00001044    0.00002028   -0.25722289
     atom   87 type  2   force =    -0.00002581    0.00003498   -0.25152976
     atom   88 type  2   force =     0.02006228    0.02066708   -0.26722478
     atom   89 type  2   force =     0.00066789    0.00108796   -0.24526112
     atom   90 type  2   force =     0.00002847    0.00832727   -0.26038994
     atom   91 type  2   force =    -0.00000537   -0.00112405   -0.24045116
     atom   92 type  2   force =     0.00727032   -0.00420211   -0.26047165
     atom   93 type  2   force =    -0.00095629    0.00055658   -0.24050166
     atom   94 type  2   force =     0.02746010    0.00693204   -0.26698694
     atom   95 type  2   force =     0.00127858    0.00008849   -0.24527289
     atom   96 type  2   force =     0.00000270    0.00002043    0.00015148
     The ionic contribution  to forces
     atom    1 type  1   force =    -0.00021382    0.00211156    0.00148637
     atom    2 type  1   force =     0.54056095   -0.98248591   -0.02262998
     atom    3 type  1   force =    -0.23302033    0.39627894    0.00653970
     atom    4 type  1   force =     0.00177019    0.00018198   -0.00246696
     atom    5 type  1   force =     0.00213461    0.00073138    0.00005191
     atom    6 type  1   force =    -0.53722522    0.98141440    0.01742690
     atom    7 type  1   force =     0.23449080   -0.39447146   -0.00506522
     atom    8 type  1   force =    -1.12150341   -0.02087254    0.01878869
     atom    9 type  1   force =     0.45921396   -0.00411339   -0.00362292
     atom   10 type  1   force =    -0.55533550   -0.96263734   -0.00378085
     atom   11 type  1   force =     0.22662702    0.39517494    0.00150021
     atom   12 type  1   force =    -0.00602337   -0.15680383    0.40159776
     atom   13 type  1   force =    -0.00350511   -0.12077349   -0.26265319
     atom   14 type  1   force =    -0.14362103    0.08266060    0.40598131
     atom   15 type  1   force =    -0.10996501    0.06334564   -0.26722208
     atom   16 type  1   force =    -0.00002102    0.00112221    0.00017680
     atom   17 type  1   force =    -0.00007057   -0.00045101    0.00288747
     atom   18 type  1   force =    -0.13360778   -0.08421614   -0.40430765
     atom   19 type  1   force =    -0.10519021   -0.06374288    0.26615555
     atom   20 type  1   force =    -0.00190723    0.00027422   -0.00164477
     atom   21 type  1   force =    -0.00210724    0.00074267    0.00111427
     atom   22 type  1   force =     0.13245917    0.08330110    0.40199604
     atom   23 type  1   force =     0.10283023    0.06324733   -0.26265746
     atom   24 type  1   force =     1.12221145    0.02353449   -0.01895236
     atom   25 type  1   force =    -0.45926840    0.00558431    0.00751534
     atom   26 type  1   force =     0.14449601   -0.08368304   -0.40979359
     atom   27 type  1   force =     0.11189345   -0.06383456    0.27041497
     atom   28 type  1   force =     0.00600842    0.15683845   -0.40384308
     atom   29 type  1   force =     0.00333900    0.12185052    0.26444967
     atom   30 type  1   force =     0.55160156    0.96266295   -0.00120750
     atom   31 type  1   force =    -0.22856228   -0.39356255    0.00106812
     atom   32 type  2   force =     0.00885169   -0.73274836  -13.77073391
     atom   33 type  2   force =     0.00380890   -3.89737562  -14.41382429
     atom   34 type  2   force =    -0.63516381    0.36785170  -13.76753958
     atom   35 type  2   force =    -3.45261507    1.99506830  -14.43893524
     atom   36 type  2   force =    -0.13652662    0.11209660  -14.16516707
     atom   37 type  2   force =    -0.87945482    0.00334758  -14.69592690
     atom   38 type  2   force =     0.03515235   -0.17085322  -14.17056626
     atom   39 type  2   force =    -0.41655302   -0.79056338  -14.69355525
     atom   40 type  2   force =     0.43497734   -0.25169580  -13.93706169
     atom   41 type  2   force =     0.05047507   -0.02982273  -14.27711603
     atom   42 type  2   force =     0.63873011    0.35974651  -13.77211459
     atom   43 type  2   force =     3.38474862    1.95150766  -14.41547595
     atom   44 type  2   force =    -0.00245990    0.50807304  -13.91819803
     atom   45 type  2   force =    -0.00945324    0.05315340  -14.29769197
     atom   46 type  2   force =    -0.00420505    0.00237896  -14.28380924
     atom   47 type  2   force =    -0.14731307   -0.08487469  -14.58776421
     atom   48 type  2   force =    -0.00560818    0.00097254  -14.28394361
[...]
I             2.3484211505        6.7992715998        9.2513522169
I            -0.0060495066       10.8960325993        1.9147062064
I             0.0037793134       10.8887884636        9.2530940093
I            -2.3845581963       14.9765026311        1.8598582982
I            -2.3298645119       14.9626357437        9.2455960197
I             9.3891894158        2.7351164372        1.8722705736
I             9.4286760533        2.6961480952        9.2447618529
I             7.0610874560        6.7958722556        1.8902617122
I             7.0405536880        6.7888136983        9.2932448994
I             4.7304951531       10.9083460766        1.9175924098
I             4.7044702169       10.8909089207        9.2524103773
I             2.3615309076       14.9561522694        1.8802274964
I             2.3500785519       14.9730066173        9.2155829142
I            14.1587834251        2.7294720665        1.9037541262
I            14.1296429248        2.7099743672        9.2472068259
I            11.7674750298        6.7979586295        1.8735192568
I            11.7691594077        6.7655575452        9.3134713947
I             9.4233611052       10.8777716875        1.9000927476
I             9.4027532954       10.8929852104        9.3080389056
I             7.0767078072       14.9505593022        1.8920355516
I             7.0535532705       14.9625530925        9.2463160534
I             2.3520314343        4.0812830025       14.7495608801



     Writing config-only to output data dir ./PbI2.save/
     NEW-OLD atomic charge density approx. for the potential

     Check: negative core charge=   -0.000001


     -----------------------------------------------
     Non-local corr. energy    =      46.33257140 Ry
     -----------------------------------------------


     total cpu time spent up to now is   151676.2 secs

     Self-consistent Calculation

     iteration #  1     ecut=    70.00 Ry     beta= 0.70
     Davidson diagonalization with overlap

---- Real-time Memory Report at c_bands before calling an iterative solver
          1516 MiB given to the printing process from OS
             0 MiB allocation reported by mallinfo(arena+hblkhd)
       1779349 MiB available memory on the node where the printing process lives
------------------
     c_bands:  2 eigenvalues not converged
     ethr =  1.00E-06,  avg # of iterations = 20.0


     -----------------------------------------------
     Non-local corr. energy    =      46.30186328 Ry
     -----------------------------------------------


     total cpu time spent up to now is   151860.6 secs

     total energy              =  -64424.03632783 Ry
     estimated scf accuracy    <       0.08508621 Ry

     iteration #  2     ecut=    70.00 Ry     beta= 0.70
     Davidson diagonalization with overlap

---- Real-time Memory Report at c_bands before calling an iterative solver
          1536 MiB given to the printing process from OS
             0 MiB allocation reported by mallinfo(arena+hblkhd)
       1774071 MiB available memory on the node where the printing process lives
------------------
     ethr =  5.54E-06,  avg # of iterations = 14.0


     -----------------------------------------------
     Non-local corr. energy    =      46.30590090 Ry
     -----------------------------------------------


     total cpu time spent up to now is   152052.8 secs

     total energy              =  -64423.97010404 Ry
     estimated scf accuracy    <       1.33800088 Ry

     iteration #  3     ecut=    70.00 Ry     beta= 0.70
     Davidson diagonalization with overlap

---- Real-time Memory Report at c_bands before calling an iterative solver
          1536 MiB given to the printing process from OS
             0 MiB allocation reported by mallinfo(arena+hblkhd)
       1774128 MiB available memory on the node where the printing process lives
------------------
     c_bands:  1 eigenvalues not converged
     ethr =  5.54E-06,  avg # of iterations = 20.0


     -----------------------------------------------
     Non-local corr. energy    =      46.31131081 Ry
     -----------------------------------------------


     total cpu time spent up to now is   152327.6 secs

     total energy              =  -64424.05396941 Ry
     estimated scf accuracy    <       0.49711597 Ry

     iteration #  4     ecut=    70.00 Ry     beta= 0.70
     Davidson diagonalization with overlap

---- Real-time Memory Report at c_bands before calling an iterative solver
          1536 MiB given to the printing process from OS
             0 MiB allocation reported by mallinfo(arena+hblkhd)
       1774099 MiB available memory on the node where the printing process lives
------------------
     c_bands:  1 eigenvalues not converged
     ethr =  5.54E-06,  avg # of iterations = 20.0


     -----------------------------------------------
     Non-local corr. energy    =      46.31539271 Ry
     -----------------------------------------------


     total cpu time spent up to now is   152559.7 secs

     total energy              =  -64424.08661900 Ry
     estimated scf accuracy    <       0.08086230 Ry

     iteration #  5     ecut=    70.00 Ry     beta= 0.70
     Davidson diagonalization with overlap

---- Real-time Memory Report at c_bands before calling an iterative solver
          1536 MiB given to the printing process from OS
             0 MiB allocation reported by mallinfo(arena+hblkhd)
       1774466 MiB available memory on the node where the printing process lives
------------------
     c_bands:  2 eigenvalues not converged
     ethr =  5.26E-06,  avg # of iterations = 20.0


     -----------------------------------------------
     Non-local corr. energy    =      46.31733484 Ry
     -----------------------------------------------


     total cpu time spent up to now is   152742.5 secs

     total energy              =  -64424.09441622 Ry
     estimated scf accuracy    <       0.01484451 Ry

     iteration #  6     ecut=    70.00 Ry     beta= 0.70
     Davidson diagonalization with overlap

---- Real-time Memory Report at c_bands before calling an iterative solver
          1536 MiB given to the printing process from OS
             0 MiB allocation reported by mallinfo(arena+hblkhd)
       1774123 MiB available memory on the node where the printing process lives
------------------
     ethr =  9.66E-07,  avg # of iterations = 20.0


     -----------------------------------------------
     Non-local corr. energy    =      46.31914095 Ry
     -----------------------------------------------


     total cpu time spent up to now is   152930.5 secs

     total energy              =  -64424.09536243 Ry
     estimated scf accuracy    <       0.00914154 Ry

     iteration #  7     ecut=    70.00 Ry     beta= 0.70
     Davidson diagonalization with overlap

---- Real-time Memory Report at c_bands before calling an iterative solver
          1536 MiB given to the printing process from OS
             0 MiB allocation reported by mallinfo(arena+hblkhd)
       1774088 MiB available memory on the node where the printing process lives
------------------
     ethr =  5.95E-07,  avg # of iterations = 12.0


     -----------------------------------------------
     Non-local corr. energy    =      46.32120815 Ry
     -----------------------------------------------


     total cpu time spent up to now is   153035.2 secs

     total energy              =  -64424.09582695 Ry
     estimated scf accuracy    <       0.00572520 Ry

     iteration #  8     ecut=    70.00 Ry     beta= 0.70
     Davidson diagonalization with overlap

---- Real-time Memory Report at c_bands before calling an iterative solver
          1536 MiB given to the printing process from OS
             0 MiB allocation reported by mallinfo(arena+hblkhd)
       1773966 MiB available memory on the node where the printing process lives
------------------
     ethr =  3.73E-07,  avg # of iterations =  3.0


     -----------------------------------------------
     Non-local corr. energy    =      46.32357154 Ry
     -----------------------------------------------


     total cpu time spent up to now is   153081.6 secs

     total energy              =  -64424.09614318 Ry
     estimated scf accuracy    <       0.00400744 Ry

     iteration #  9     ecut=    70.00 Ry     beta= 0.70
     Davidson diagonalization with overlap

---- Real-time Memory Report at c_bands before calling an iterative solver
          1536 MiB given to the printing process from OS
             0 MiB allocation reported by mallinfo(arena+hblkhd)
       1773868 MiB available memory on the node where the printing process lives
------------------
     ethr =  2.61E-07,  avg # of iterations =  1.0


     -----------------------------------------------
     Non-local corr. energy    =      46.32588942 Ry
     -----------------------------------------------


     total cpu time spent up to now is   153116.7 secs

     total energy              =  -64424.09637966 Ry
     estimated scf accuracy    <       0.00254088 Ry

     iteration # 10     ecut=    70.00 Ry     beta= 0.70
     Davidson diagonalization with overlap

---- Real-time Memory Report at c_bands before calling an iterative solver
          1536 MiB given to the printing process from OS
             0 MiB allocation reported by mallinfo(arena+hblkhd)
       1773721 MiB available memory on the node where the printing process lives
------------------
     ethr =  1.65E-07,  avg # of iterations = 19.0


     -----------------------------------------------
     Non-local corr. energy    =      46.33220348 Ry
     -----------------------------------------------


     total cpu time spent up to now is   153270.8 secs

     total energy              =  -64424.09663729 Ry
     estimated scf accuracy    <       0.00147066 Ry

     iteration # 11     ecut=    70.00 Ry     beta= 0.70
     Davidson diagonalization with overlap

---- Real-time Memory Report at c_bands before calling an iterative solver
          1536 MiB given to the printing process from OS
             0 MiB allocation reported by mallinfo(arena+hblkhd)
       1773669 MiB available memory on the node where the printing process lives
------------------
     ethr =  9.57E-08,  avg # of iterations = 19.0


     -----------------------------------------------
     Non-local corr. energy    =      46.33222476 Ry
     -----------------------------------------------


     total cpu time spent up to now is   153431.6 secs

     total energy              =  -64424.09667552 Ry
     estimated scf accuracy    <       0.00009717 Ry

     iteration # 12     ecut=    70.00 Ry     beta= 0.70
     Davidson diagonalization with overlap

---- Real-time Memory Report at c_bands before calling an iterative solver
          1536 MiB given to the printing process from OS
             0 MiB allocation reported by mallinfo(arena+hblkhd)
       1774238 MiB available memory on the node where the printing process lives
------------------
     ethr =  6.33E-09,  avg # of iterations = 17.0


     -----------------------------------------------
     Non-local corr. energy    =      46.33228806 Ry
     -----------------------------------------------


     total cpu time spent up to now is   153729.2 secs

     total energy              =  -64424.09669058 Ry
     estimated scf accuracy    <       0.00007840 Ry

     iteration # 13     ecut=    70.00 Ry     beta= 0.70
     Davidson diagonalization with overlap

---- Real-time Memory Report at c_bands before calling an iterative solver
          1536 MiB given to the printing process from OS
             0 MiB allocation reported by mallinfo(arena+hblkhd)
       1773758 MiB available memory on the node where the printing process lives
------------------
     c_bands:  1 eigenvalues not converged
     ethr =  5.10E-09,  avg # of iterations = 20.0


     -----------------------------------------------
     Non-local corr. energy    =      46.33237728 Ry
     -----------------------------------------------


     total cpu time spent up to now is   153949.7 secs

     total energy              =  -64424.09669829 Ry
     estimated scf accuracy    <       0.00004898 Ry

     iteration # 14     ecut=    70.00 Ry     beta= 0.70
     Davidson diagonalization with overlap

---- Real-time Memory Report at c_bands before calling an iterative solver
          1536 MiB given to the printing process from OS
             0 MiB allocation reported by mallinfo(arena+hblkhd)
       1773651 MiB available memory on the node where the printing process lives
------------------
     ethr =  3.19E-09,  avg # of iterations = 20.0


     -----------------------------------------------
     Non-local corr. energy    =      46.33243267 Ry
     -----------------------------------------------


     total cpu time spent up to now is   154158.6 secs

     total energy              =  -64424.09669522 Ry
     estimated scf accuracy    <       0.00016467 Ry

     iteration # 15     ecut=    70.00 Ry     beta= 0.70
     Davidson diagonalization with overlap

---- Real-time Memory Report at c_bands before calling an iterative solver
          1536 MiB given to the printing process from OS
             0 MiB allocation reported by mallinfo(arena+hblkhd)
       1773856 MiB available memory on the node where the printing process lives
------------------
     c_bands:  1 eigenvalues not converged
     ethr =  3.19E-09,  avg # of iterations = 20.0


     -----------------------------------------------
     Non-local corr. energy    =      46.33246619 Ry
     -----------------------------------------------


     total cpu time spent up to now is   154342.9 secs

     total energy              =  -64424.09670350 Ry
     estimated scf accuracy    <       0.00001660 Ry

     iteration # 16     ecut=    70.00 Ry     beta= 0.70
     Davidson diagonalization with overlap

---- Real-time Memory Report at c_bands before calling an iterative solver
          1536 MiB given to the printing process from OS
             0 MiB allocation reported by mallinfo(arena+hblkhd)
       1773766 MiB available memory on the node where the printing process lives
------------------
     c_bands:  1 eigenvalues not converged
     ethr =  1.08E-09,  avg # of iterations = 20.0


     -----------------------------------------------
     Non-local corr. energy    =      46.33251468 Ry
     -----------------------------------------------


     total cpu time spent up to now is   154539.8 secs

     total energy              =  -64424.09670530 Ry
     estimated scf accuracy    <       0.00000247 Ry

     iteration # 17     ecut=    70.00 Ry     beta= 0.70
     Davidson diagonalization with overlap

---- Real-time Memory Report at c_bands before calling an iterative solver
          1536 MiB given to the printing process from OS
             0 MiB allocation reported by mallinfo(arena+hblkhd)
       1773863 MiB available memory on the node where the printing process lives
------------------
     c_bands:  1 eigenvalues not converged
     ethr =  1.61E-10,  avg # of iterations = 20.0


     -----------------------------------------------
     Non-local corr. energy    =      46.33256712 Ry
     -----------------------------------------------


     total cpu time spent up to now is   154752.4 secs

     total energy              =  -64424.09670566 Ry
     estimated scf accuracy    <       0.00000039 Ry

     iteration # 18     ecut=    70.00 Ry     beta= 0.70
     Davidson diagonalization with overlap

---- Real-time Memory Report at c_bands before calling an iterative solver
          1536 MiB given to the printing process from OS
             0 MiB allocation reported by mallinfo(arena+hblkhd)
       1773681 MiB available memory on the node where the printing process lives
------------------

     Maximum CPU time exceeded

     max_seconds     =  154800.00
     elapsed seconds =  155064.56
     Calculation stopped in k-point loop, point #     1
     Calculation stopped in scf loop at iteration #    17

     Writing config to output data dir ./PbI2.save/
     Message from routine punch:
     wavefunctions written to file
 
     init_run     :     14.03s CPU     14.66s WALL (       1 calls)
     electrons    : 147362.03s CPU 150062.94s WALL (      41 calls)
     update_pot   :     70.75s CPU     71.44s WALL (      40 calls)
     forces       :    288.86s CPU    301.19s WALL (      40 calls)
     stress       :   4424.58s CPU   4483.76s WALL (      40 calls)

     Called by init_run:
     wfcinit      :      9.73s CPU     10.02s WALL (       1 calls)
     wfcinit:atom :      0.04s CPU      0.06s WALL (       1 calls)
     wfcinit:wfcr :      9.49s CPU      9.66s WALL (       1 calls)
     potinit      :      1.30s CPU      1.43s WALL (       1 calls)
     hinit0       :      0.56s CPU      0.59s WALL (       1 calls)

     Called by electrons:
     c_bands      : 143640.94s CPU 146126.69s WALL (     766 calls)
     sum_band     :   2541.80s CPU   2661.15s WALL (     765 calls)
     v_of_rho     :    643.22s CPU    654.34s WALL (     789 calls)
     v_h          :      7.05s CPU      7.25s WALL (     789 calls)
     v_xc         :    694.58s CPU    706.32s WALL (     869 calls)
     newd         :    243.34s CPU    322.41s WALL (     789 calls)
     PAW_pot      :    232.37s CPU    235.01s WALL (     829 calls)
     mix_rho      :     30.01s CPU     30.86s WALL (     765 calls)
     vdW_kernel   :      0.25s CPU      0.26s WALL (       1 calls)

     Called by c_bands:
     init_us_2    :     65.25s CPU     66.73s WALL (    1572 calls)
     init_us_2:cp :     65.23s CPU     66.72s WALL (    1572 calls)
     cegterg      : 143424.25s CPU 145444.84s WALL (     766 calls)

     Called by sum_band:
     sum_band:wei :      0.68s CPU      0.74s WALL (     765 calls)
     sum_band:loo :   2244.87s CPU   2267.63s WALL (     765 calls)
     sum_band:buf :      0.00s CPU      0.00s WALL (     765 calls)
     sum_band:ini :     53.64s CPU     54.78s WALL (     765 calls)
     sum_band:cal :    986.85s CPU    994.57s WALL (     805 calls)
     sum_band:bec :     14.84s CPU     15.12s WALL (     805 calls)
     addusdens    :    249.49s CPU    344.43s WALL (     765 calls)
     addusd:skk   :     23.28s CPU     23.75s WALL (    1530 calls)
     addusd:dgemm :    132.76s CPU    225.64s WALL (    1530 calls)
     addusd:qvan2 :     88.21s CPU     89.13s WALL (    1530 calls)

     Called by *egterg:
     cdiaghg      : 118275.94s CPU 119102.56s WALL (   13701 calls)
     cegterg:over :   4953.56s CPU   5099.61s WALL (   12992 calls)
     cegterg:upda :   2916.68s CPU   2970.33s WALL (   12992 calls)
     cegterg:last :   1246.08s CPU   1255.66s WALL (     777 calls)
     h_psi        :  11949.28s CPU  12104.32s WALL (   13759 calls)
     s_psi        :   2516.88s CPU   2536.96s WALL (   13759 calls)
     g_psi        :     10.54s CPU     10.68s WALL (   12992 calls)

     Called by h_psi:
     h_psi:calbec :   2820.80s CPU   2843.27s WALL (   13759 calls)
     vloc_psi     :   6550.04s CPU   6613.55s WALL (   13759 calls)
     add_vuspsi   :   2518.27s CPU   2538.73s WALL (   13759 calls)

     General routines
     calbec       :   4048.74s CPU   4081.04s WALL (   14764 calls)
     fft          :    484.34s CPU    491.79s WALL (   56444 calls)
     ffts         :     16.24s CPU     16.51s WALL (    1554 calls)
     fftw         :   7386.31s CPU   7457.65s WALL ( 4417298 calls)
     interpolate  :     14.78s CPU     14.98s WALL (     789 calls)
     davcio       :      0.00s CPU      0.02s WALL (      19 calls)
 
     Parallel routines

     PAW routines
     PAW_pot      :    232.37s CPU    235.01s WALL (     829 calls)
 
     PWSCF        :   1d18h17m CPU   1d19h 4m WALL

 
   This run was terminated on:   4:39:45   4Mar2024            

=------------------------------------------------------------------------------=
   JOB DONE.
=------------------------------------------------------------------------------=
