
     Program PWSCF v.7.1 starts on 16Feb2024 at  0:28:44 

     This program is part of the open-source Quantum ESPRESSO suite
     for quantum simulation of materials; please cite
         "P. Giannozzi et al., J. Phys.:Condens. Matter 21 395502 (2009);
         "P. Giannozzi et al., J. Phys.:Condens. Matter 29 465901 (2017);
         "P. Giannozzi et al., J. Chem. Phys. 152 154105 (2020);
          URL http://www.quantum-espresso.org", 
     in publications or presentations arising from this work. More details at
     http://www.quantum-espresso.org/quote

     Parallel version (MPI & OpenMP), running on     128 processor cores
     Number of MPI processes:               128
     Threads/MPI process:                     1

     MPI processes distributed on     1 nodes
     1896670 MiB available memory on the printing compute node when the environment starts
 
     Reading input from espresso.pwi
Warning: card &CELL ignored
Warning: card    CELL_DYNAMICS    = 'BFGS' ignored
Warning: card / ignored

     Current dimensions of program PWSCF are:
     Max number of different atomic species (ntypx) = 10
     Max number of k-points (npk) =  40000
     Max angular momentum in pseudopotentials (lmaxx) =  4
     file Pb.pbe-dn-kjpaw_psl.1.0.0.UPF: wavefunction(s)  6S 6P 5D renormalized
     file I.pbe-dn-kjpaw_psl.1.0.0.UPF: wavefunction(s)  5S 5P renormalized

     **************************************************************************
     Initializing libbeef V0.1.2 with the BEEF-vdW functional.
     Citation: Wellendorff et al., PRB 85, 235149 (2012).
     **************************************************************************


     IMPORTANT: XC functional enforced from input :
     Exchange-correlation= BEEF-VDW
                           (   1   4  43  14   2   0   0)
     Any further DFT definition will be discarded
     Please, verify this is what you really want

 
     R & G space division:  proc/nbgrp/npool/nimage =     128
     Subspace diagonalization in iterative solution of the eigenvalue problem:
     a serial algorithm will be used

 
     Parallelization info
     --------------------
     sticks:   dense  smooth     PW     G-vecs:    dense   smooth      PW
     Min         238     190     47                26444    18918    2361
     Max         239     191     48                26451    18927    2368
     Sum       30577   24439   6121              3385235  2422379  302703
 
     Using Slab Decomposition
 


     bravais-lattice index     =            4
     lattice parameter (alat)  =      35.6073  a.u.
     unit-cell volume          =   30614.2220 (a.u.)^3
     number of atoms/cell      =           96
     number of atomic types    =            2
     number of electrons       =      1537.00
     number of Kohn-Sham states=          923
     kinetic-energy cutoff     =      70.0000  Ry
     charge density cutoff     =     350.0000  Ry
     scf convergence threshold =      1.0E-07
     mixing beta               =       0.7000
     number of iterations used =            8  plain     mixing
     energy convergence thresh.=      1.0E-04
     force convergence thresh. =      1.0E-03
     Exchange-correlation= BEEF-VDW
                           (   1   4  43  14   2   0   0)
     nstep                     =           50


     celldm(1)=  35.607290  celldm(2)=   0.000000  celldm(3)=   0.783025
     celldm(4)=   0.000000  celldm(5)=   0.000000  celldm(6)=   0.000000

     crystal axes: (cart. coord. in units of alat)
               a(1) = (   1.000000   0.000000   0.000000 )  
               a(2) = (  -0.500000   0.866025   0.000000 )  
               a(3) = (   0.000000   0.000000   0.783025 )  

     reciprocal axes: (cart. coord. in units 2 pi/alat)
               b(1) = (  1.000000  0.577350 -0.000000 )  
               b(2) = (  0.000000  1.154701  0.000000 )  
               b(3) = (  0.000000 -0.000000  1.277098 )  


     PseudoPot. # 1 for Pb read from file:
     //group///packages/espresso/pseudo/psl_1.0.0/pslibrary.1.0.0/pbe/PSEUDOPOTENTIALS/Pb.pbe-dn-kjpaw_psl.1.0.0.UPF
     MD5 check sum: 39ab5b8a6bbd56b7735ad9f188aac93a
     Pseudo is Projector augmented-wave + core cor, Zval = 14.0
     Generated using 'atomic' code by A. Dal Corso  v.7.1
     Shape of augmentation charge: PSQ
     Using radial grid of 1281 points,  6 beta functions with: 
                l(1) =   0
                l(2) =   0
                l(3) =   1
                l(4) =   1
                l(5) =   2
                l(6) =   2
     Q(r) pseudized with 0 coefficients 


     PseudoPot. # 2 for I  read from file:
     //group///packages/espresso/pseudo/psl_1.0.0/pslibrary.1.0.0/pbe/PSEUDOPOTENTIALS/I.pbe-dn-kjpaw_psl.1.0.0.UPF
     MD5 check sum: bfa8781bc1224d19af3f3980e3fab11e
     Pseudo is Projector augmented-wave + core cor, Zval = 17.0
     Generated using 'atomic' code by A. Dal Corso  v.7.1
     Shape of augmentation charge: PSQ
     Using radial grid of 1247 points,  6 beta functions with: 
                l(1) =   0
                l(2) =   0
                l(3) =   1
                l(4) =   1
                l(5) =   2
                l(6) =   2
     Q(r) pseudized with 0 coefficients 


     atomic species   valence    mass     pseudopotential
        Pb            14.00   207.20000     Pb( 1.00)
        I             17.00   126.90447     I ( 1.00)

     No symmetry found


                                    s                        frac. trans.

      isym =  1     identity                                     

 cryst.   s( 1) = (     1          0          0      )
                  (     0          1          0      )
                  (     0          0          1      )

 cart.    s( 1) = (  1.0000000  0.0000000  0.0000000 )
                  (  0.0000000  1.0000000  0.0000000 )
                  (  0.0000000  0.0000000  1.0000000 )


     point group C_1 (1)    
     there are  1 classes
     the character table:

       E    
A      1.00

     the symmetry operations in each class and the name of the first element:

     E        1
          identity                                               

   Cartesian axes

     site n.     atom                  positions (alat units)
         1           Pb  tau(   1) = (   0.1250034   0.2164916   0.3915076  )
         2           Pb  tau(   2) = (   0.0000077   0.4329922   0.7830161  )
         3           Pb  tau(   3) = (   0.0000025   0.4329968   0.3915034  )
         4           Pb  tau(   4) = (  -0.1249932   0.6494975   0.7830119  )
         5           Pb  tau(   5) = (  -0.1249984   0.6495021   0.3914992  )
         6           Pb  tau(   6) = (  -0.2499941   0.8660028   0.7830077  )
         7           Pb  tau(   7) = (  -0.2499993   0.8660074   0.3914950  )
         8           Pb  tau(   8) = (   0.3750086   0.2164859   0.7830237  )
         9           Pb  tau(   9) = (   0.3750034   0.2164905   0.3915110  )
        10           Pb  tau(  10) = (   0.2500077   0.4329912   0.7830194  )
        11           Pb  tau(  11) = (   0.2500025   0.4329958   0.3915068  )
        12           Pb  tau(  12) = (   0.1250068   0.6494965   0.7830152  )
        13           Pb  tau(  13) = (   0.1250016   0.6495011   0.3915026  )
        14           Pb  tau(  14) = (   0.0000059   0.8660017   0.7830110  )
        15           Pb  tau(  15) = (   0.0000007   0.8660063   0.3914983  )
        16           Pb  tau(  16) = (   0.6250086   0.2164849   0.7830270  )
        17           Pb  tau(  17) = (   0.6250034   0.2164895   0.3915143  )
        18           Pb  tau(  18) = (   0.5000077   0.4329901   0.7830228  )
        19           Pb  tau(  19) = (   0.5000025   0.4329947   0.3915101  )
        20           Pb  tau(  20) = (   0.3750068   0.6494954   0.7830186  )
        21           Pb  tau(  21) = (   0.3750016   0.6495000   0.3915059  )
        22           Pb  tau(  22) = (   0.2500059   0.8660007   0.7830144  )
        23           Pb  tau(  23) = (   0.2500007   0.8660053   0.3915017  )
        24           Pb  tau(  24) = (   0.8750086   0.2164838   0.7830303  )
        25           Pb  tau(  25) = (   0.8750034   0.2164884   0.3915177  )
        26           Pb  tau(  26) = (   0.7500077   0.4329891   0.7830261  )
        27           Pb  tau(  27) = (   0.7500025   0.4329937   0.3915135  )
        28           Pb  tau(  28) = (   0.6250068   0.6494944   0.7830219  )
        29           Pb  tau(  29) = (   0.6250016   0.6494990   0.3915092  )
        30           Pb  tau(  30) = (   0.5000059   0.8659996   0.7830177  )
        31           Pb  tau(  31) = (   0.5000007   0.8660042   0.3915050  )
        32           I   tau(  32) = (   0.1250056   0.0721546   0.2909163  )
        33           I   tau(  33) = (   0.1250108   0.0721500   0.6824290  )
        34           I   tau(  34) = (   0.0000047   0.2886599   0.2909121  )
        35           I   tau(  35) = (   0.0000099   0.2886553   0.6824248  )
        36           I   tau(  36) = (  -0.1249962   0.5051652   0.2909079  )
        37           I   tau(  37) = (  -0.1249910   0.5051606   0.6824206  )
        38           I   tau(  38) = (  -0.2499972   0.7216704   0.2909037  )
        39           I   tau(  39) = (  -0.2499919   0.7216658   0.6824164  )
        40           I   tau(  40) = (   0.3750056   0.0721536   0.2909197  )
        41           I   tau(  41) = (   0.3750108   0.0721490   0.6824324  )
        42           I   tau(  42) = (   0.2500047   0.2886589   0.2909155  )
        43           I   tau(  43) = (   0.2500099   0.2886543   0.6824282  )
        44           I   tau(  44) = (   0.1250038   0.5051641   0.2909113  )
        45           I   tau(  45) = (   0.1250090   0.5051595   0.6824240  )
        46           I   tau(  46) = (   0.0000028   0.7216694   0.2909071  )
        47           I   tau(  47) = (   0.0000081   0.7216648   0.6824197  )
        48           I   tau(  48) = (   0.6250056   0.0721525   0.2909230  )
        49           I   tau(  49) = (   0.6250108   0.0721479   0.6824357  )
        50           I   tau(  50) = (   0.5000047   0.2886578   0.2909188  )
        51           I   tau(  51) = (   0.5000099   0.2886532   0.6824315  )
        52           I   tau(  52) = (   0.3750038   0.5051631   0.2909146  )
        53           I   tau(  53) = (   0.3750090   0.5051585   0.6824273  )
        54           I   tau(  54) = (   0.2500028   0.7216683   0.2909104  )
        55           I   tau(  55) = (   0.2500081   0.7216637   0.6824231  )
        56           I   tau(  56) = (   0.8750056   0.0721515   0.2909264  )
        57           I   tau(  57) = (   0.8750108   0.0721469   0.6824391  )
        58           I   tau(  58) = (   0.7500047   0.2886567   0.2909222  )
        59           I   tau(  59) = (   0.7500099   0.2886521   0.6824348  )
        60           I   tau(  60) = (   0.6250038   0.5051620   0.2909180  )
        61           I   tau(  61) = (   0.6250090   0.5051574   0.6824306  )
        62           I   tau(  62) = (   0.5000028   0.7216673   0.2909137  )
        63           I   tau(  63) = (   0.5000081   0.7216627   0.6824264  )
        64           I   tau(  64) = (  -0.0000018   0.1443297   0.1005933  )
        65           I   tau(  65) = (   0.0000034   0.1443251   0.4921060  )
        66           I   tau(  66) = (  -0.1250027   0.3608350   0.1005891  )
        67           I   tau(  67) = (  -0.1249975   0.3608304   0.4921018  )
        68           I   tau(  68) = (  -0.2500036   0.5773403   0.1005849  )
        69           I   tau(  69) = (  -0.2499984   0.5773357   0.4920975  )
        70           I   tau(  70) = (  -0.3750045   0.7938455   0.1005807  )
        71           I   tau(  71) = (  -0.3749993   0.7938409   0.4920933  )
        72           I   tau(  72) = (   0.2499982   0.1443287   0.1005966  )
        73           I   tau(  73) = (   0.2500034   0.1443241   0.4921093  )
        74           I   tau(  74) = (   0.1249973   0.3608340   0.1005924  )
        75           I   tau(  75) = (   0.1250025   0.3608294   0.4921051  )
        76           I   tau(  76) = (  -0.0000036   0.5773392   0.1005882  )
        77           I   tau(  77) = (   0.0000016   0.5773346   0.4921009  )
        78           I   tau(  78) = (  -0.1250045   0.7938445   0.1005840  )
        79           I   tau(  79) = (  -0.1249993   0.7938399   0.4920967  )
        80           I   tau(  80) = (   0.4999982   0.1443276   0.1006000  )
        81           I   tau(  81) = (   0.5000034   0.1443230   0.4921126  )
        82           I   tau(  82) = (   0.3749973   0.3608329   0.1005958  )
        83           I   tau(  83) = (   0.3750025   0.3608283   0.4921084  )
        84           I   tau(  84) = (   0.2499964   0.5773382   0.1005915  )
        85           I   tau(  85) = (   0.2500016   0.5773336   0.4921042  )
        86           I   tau(  86) = (   0.1249955   0.7938434   0.1005873  )
        87           I   tau(  87) = (   0.1250007   0.7938388   0.4921000  )
        88           I   tau(  88) = (   0.7499982   0.1443266   0.1006033  )
        89           I   tau(  89) = (   0.7500034   0.1443220   0.4921160  )
        90           I   tau(  90) = (   0.6249973   0.3608319   0.1005991  )
        91           I   tau(  91) = (   0.6250025   0.3608273   0.4921118  )
        92           I   tau(  92) = (   0.4999964   0.5773371   0.1005949  )
        93           I   tau(  93) = (   0.5000016   0.5773325   0.4921076  )
        94           I   tau(  94) = (   0.3749955   0.7938424   0.1005907  )
        95           I   tau(  95) = (   0.3750007   0.7938378   0.4921034  )
        96           I   tau(  96) = (   0.1250086   0.2164870   0.7830203  )

   Crystallographic axes

     site n.     atom                  positions (cryst. coord.)
         1           Pb  tau(   1) = (  0.2499949  0.2499829  0.4999935  )
         2           Pb  tau(   2) = (  0.2499959  0.4999764  0.9999882  )
         3           Pb  tau(   3) = (  0.2499933  0.4999817  0.4999882  )
         4           Pb  tau(   4) = (  0.2499944  0.7499751  0.9999828  )
         5           Pb  tau(   5) = (  0.2499918  0.7499804  0.4999828  )
         6           Pb  tau(   6) = (  0.2499928  0.9999739  0.9999774  )
         7           Pb  tau(   7) = (  0.2499903  0.9999792  0.4999774  )
         8           Pb  tau(   8) = (  0.4999968  0.2499764  0.9999978  )
         9           Pb  tau(   9) = (  0.4999943  0.2499817  0.4999978  )
        10           Pb  tau(  10) = (  0.4999953  0.4999752  0.9999924  )
        11           Pb  tau(  11) = (  0.4999927  0.4999805  0.4999924  )
        12           Pb  tau(  12) = (  0.4999938  0.7499739  0.9999871  )
        13           Pb  tau(  13) = (  0.4999912  0.7499792  0.4999871  )
        14           Pb  tau(  14) = (  0.4999922  0.9999727  0.9999817  )
        15           Pb  tau(  15) = (  0.4999896  0.9999780  0.4999817  )
        16           Pb  tau(  16) = (  0.7499962  0.2499752  1.0000021  )
        17           Pb  tau(  17) = (  0.7499936  0.2499805  0.5000021  )
        18           Pb  tau(  18) = (  0.7499947  0.4999739  0.9999967  )
        19           Pb  tau(  19) = (  0.7499921  0.4999793  0.4999967  )
        20           Pb  tau(  20) = (  0.7499932  0.7499727  0.9999913  )
        21           Pb  tau(  21) = (  0.7499906  0.7499780  0.4999913  )
        22           Pb  tau(  22) = (  0.7499916  0.9999714  0.9999860  )
        23           Pb  tau(  23) = (  0.7499890  0.9999767  0.4999860  )
        24           Pb  tau(  24) = (  0.9999956  0.2499740  1.0000064  )
        25           Pb  tau(  25) = (  0.9999930  0.2499793  0.5000064  )
        26           Pb  tau(  26) = (  0.9999941  0.4999727  1.0000010  )
        27           Pb  tau(  27) = (  0.9999915  0.4999780  0.5000010  )
        28           Pb  tau(  28) = (  0.9999926  0.7499715  0.9999956  )
        29           Pb  tau(  29) = (  0.9999900  0.7499768  0.4999956  )
        30           Pb  tau(  30) = (  0.9999910  0.9999702  0.9999902  )
        31           Pb  tau(  31) = (  0.9999884  0.9999755  0.4999902  )
        32           I   tau(  32) = (  0.1666641  0.0833170  0.3715286  )
        33           I   tau(  33) = (  0.1666667  0.0833117  0.8715286  )
        34           I   tau(  34) = (  0.1666625  0.3333157  0.3715233  )
        35           I   tau(  35) = (  0.1666651  0.3333104  0.8715233  )
        36           I   tau(  36) = (  0.1666610  0.5833145  0.3715179  )
        37           I   tau(  37) = (  0.1666636  0.5833092  0.8715179  )
        38           I   tau(  38) = (  0.1666595  0.8333132  0.3715125  )
        39           I   tau(  39) = (  0.1666621  0.8333079  0.8715125  )
        40           I   tau(  40) = (  0.4166635  0.0833158  0.3715329  )
        41           I   tau(  41) = (  0.4166661  0.0833105  0.8715329  )
        42           I   tau(  42) = (  0.4166619  0.3333145  0.3715275  )
        43           I   tau(  43) = (  0.4166645  0.3333092  0.8715275  )
        44           I   tau(  44) = (  0.4166604  0.5833133  0.3715222  )
        45           I   tau(  45) = (  0.4166630  0.5833080  0.8715221  )
        46           I   tau(  46) = (  0.4166589  0.8333120  0.3715168  )
        47           I   tau(  47) = (  0.4166614  0.8333067  0.8715168  )
        48           I   tau(  48) = (  0.6666629  0.0833146  0.3715372  )
        49           I   tau(  49) = (  0.6666655  0.0833093  0.8715372  )
        50           I   tau(  50) = (  0.6666613  0.3333133  0.3715318  )
        51           I   tau(  51) = (  0.6666639  0.3333080  0.8715318  )
        52           I   tau(  52) = (  0.6666598  0.5833121  0.3715264  )
        53           I   tau(  53) = (  0.6666624  0.5833068  0.8715264  )
        54           I   tau(  54) = (  0.6666582  0.8333108  0.3715210  )
        55           I   tau(  55) = (  0.6666608  0.8333055  0.8715210  )
        56           I   tau(  56) = (  0.9166623  0.0833134  0.3715414  )
        57           I   tau(  57) = (  0.9166648  0.0833080  0.8715414  )
        58           I   tau(  58) = (  0.9166607  0.3333121  0.3715361  )
        59           I   tau(  59) = (  0.9166633  0.3333068  0.8715361  )
        60           I   tau(  60) = (  0.9166592  0.5833108  0.3715307  )
        61           I   tau(  61) = (  0.9166618  0.5833055  0.8715307  )
        62           I   tau(  62) = (  0.9166576  0.8333096  0.3715253  )
        63           I   tau(  63) = (  0.9166602  0.8333043  0.8715253  )
        64           I   tau(  64) = (  0.0833270  0.1666576  0.1284675  )
        65           I   tau(  65) = (  0.0833296  0.1666523  0.6284675  )
        66           I   tau(  66) = (  0.0833255  0.4166564  0.1284621  )
        67           I   tau(  67) = (  0.0833281  0.4166511  0.6284621  )
        68           I   tau(  68) = (  0.0833239  0.6666551  0.1284567  )
        69           I   tau(  69) = (  0.0833265  0.6666498  0.6284567  )
        70           I   tau(  70) = (  0.0833224  0.9166539  0.1284513  )
        71           I   tau(  71) = (  0.0833250  0.9166486  0.6284513  )
        72           I   tau(  72) = (  0.3333264  0.1666564  0.1284717  )
        73           I   tau(  73) = (  0.3333290  0.1666511  0.6284717  )
        74           I   tau(  74) = (  0.3333249  0.4166552  0.1284664  )
        75           I   tau(  75) = (  0.3333275  0.4166499  0.6284663  )
        76           I   tau(  76) = (  0.3333233  0.6666539  0.1284610  )
        77           I   tau(  77) = (  0.3333259  0.6666486  0.6284610  )
        78           I   tau(  78) = (  0.3333218  0.9166527  0.1284556  )
        79           I   tau(  79) = (  0.3333244  0.9166473  0.6284556  )
        80           I   tau(  80) = (  0.5833258  0.1666552  0.1284760  )
        81           I   tau(  81) = (  0.5833284  0.1666499  0.6284760  )
        82           I   tau(  82) = (  0.5833243  0.4166539  0.1284706  )
        83           I   tau(  83) = (  0.5833269  0.4166486  0.6284706  )
        84           I   tau(  84) = (  0.5833227  0.6666527  0.1284652  )
        85           I   tau(  85) = (  0.5833253  0.6666474  0.6284652  )
        86           I   tau(  86) = (  0.5833212  0.9166514  0.1284599  )
        87           I   tau(  87) = (  0.5833238  0.9166461  0.6284599  )
        88           I   tau(  88) = (  0.8333252  0.1666540  0.1284803  )
        89           I   tau(  89) = (  0.8333278  0.1666487  0.6284803  )
        90           I   tau(  90) = (  0.8333237  0.4166527  0.1284749  )
        91           I   tau(  91) = (  0.8333262  0.4166474  0.6284749  )
        92           I   tau(  92) = (  0.8333221  0.6666515  0.1284695  )
        93           I   tau(  93) = (  0.8333247  0.6666462  0.6284695  )
        94           I   tau(  94) = (  0.8333206  0.9166502  0.1284641  )
        95           I   tau(  95) = (  0.8333232  0.9166449  0.6284641  )
        96           I   tau(  96) = (  0.2499975  0.2499776  0.9999935  )

     number of k points=     1  Gaussian smearing, width (Ry)=  0.0100
                       cart. coord. in units 2pi/alat
        k(    1) = (   0.0000000   0.0000000   0.0000000), wk =   2.0000000

                       cryst. coord.
        k(    1) = (   0.0000000   0.0000000   0.0000000), wk =   2.0000000

     Dense  grid:  3385235 G-vectors     FFT dimensions: ( 216, 216, 180)

     Smooth grid:  2422379 G-vectors     FFT dimensions: ( 192, 192, 150)

     Dynamical RAM for                 wfc:      33.31 MB

     Dynamical RAM for     wfc (w. buffer):      33.31 MB

     Dynamical RAM for           str. fact:       0.81 MB

     Dynamical RAM for           local pot:       0.00 MB

     Dynamical RAM for          nlocal pot:      62.36 MB

     Dynamical RAM for                qrad:       3.00 MB

     Dynamical RAM for          rho,v,vnew:       3.35 MB

     Dynamical RAM for               rhoin:       1.12 MB

     Dynamical RAM for            rho*nmix:       6.46 MB

     Dynamical RAM for           G-vectors:       1.66 MB

     Dynamical RAM for          h,s,v(r/c):     623.97 MB

     Dynamical RAM for          <psi|beta>:      24.34 MB

     Dynamical RAM for                 psi:     133.23 MB

     Dynamical RAM for                hpsi:     133.23 MB

     Dynamical RAM for                spsi:     133.23 MB

     Dynamical RAM for      wfcinit/wfcrot:      86.12 MB

     Dynamical RAM for           addusdens:     101.31 MB

     Dynamical RAM for          addusforce:     153.42 MB

     Dynamical RAM for         addusstress:      81.13 MB

     Estimated static dynamical RAM per process >     110.37 MB

     Estimated max dynamical RAM per process >       1.14 GB

     Estimated total dynamical RAM >     145.60 GB

     Atomic positions and unit cell read from directory:
     ./PbI2.save/
     Atomic positions from file used, from input discarded
 

     Check: negative core charge=   -0.000001

     The initial density is read from file :
     ./PbI2.save/charge-density


     starting charge    1538.0000, renormalised to    1537.0000


     %%%%%%%%%%%%%%%%%%%%%%%%%%%%%%%%%%%%%%%%%%%%%%%%%%%%%%%%%%%%%%%%%%%%%%%%
     %                                                                      %
     % You are using vdW-DF, which was implemented by the Thonhauser group. %
     % Please cite the following two papers that made this development      %
     % possible and the two reviews that describe the various versions:     %
     %                                                                      %
     %   T. Thonhauser et al., PRL 115, 136402 (2015).                      %
     %   T. Thonhauser et al., PRB 76, 125112 (2007).                       %
     %   K. Berland et al., Rep. Prog. Phys. 78, 066501 (2015).             %
     %   D.C. Langreth et al., J. Phys.: Condens. Matter 21, 084203 (2009). %
     %                                                                      %
     % If you are calculating stress with vdW-DF, please also cite:         %
     %                                                                      %
     %   R. Sabatini et al., J. Phys.: Condens. Matter 24, 424209 (2012).   %
     %                                                                      %
     %%%%%%%%%%%%%%%%%%%%%%%%%%%%%%%%%%%%%%%%%%%%%%%%%%%%%%%%%%%%%%%%%%%%%%%%

     %%%%%%%%%%%%%%%%%%%%%%%%%%%%%%%%%%%%%%%%%%%%%%%%%%%%%%%%%%%%%%%%%%%%%%%%
     %                                                                      %
     %  vdW-DF NEWS:                                                        %
     %                                                                      %
     %  * vdW-DF3 is now available. DOI: 10.1021/acs.jctc.0c00471           %
     %    use with input_dft = 'vdW-DF3-opt1' or 'vdW-DF3-opt2'             %
     %                                                                      %
     %  * Unscreened and range-separated vdW-DF hybrid functionals          %
     %    DOI: 10.1063/1.4986522 and 10.1088/1361-648X/ac2ad2               %
     %    use with input_dft = 'vdW-DF-cx0' (etc) and 'vdW-DF-ahcx'         %
     %                                                                      %
     %%%%%%%%%%%%%%%%%%%%%%%%%%%%%%%%%%%%%%%%%%%%%%%%%%%%%%%%%%%%%%%%%%%%%%%%


     Carrying out vdW-DF run using the following parameters:
     Nqs    =  20  Npoints =  1024  r_max =  100.000
     q_mesh =  0.00001000  0.04494208  0.09755937  0.15916263
               0.23128650  0.31572767  0.41458969  0.53033537
               0.66584808  0.82450364  1.01025438  1.22772762
               1.48234092  1.78043706  2.12944203  2.53805004
               3.01644009  3.57652955  4.23227104  5.00000000


     -----------------------------------------------
     Non-local corr. energy    =      46.31125581 Ry
     -----------------------------------------------

     Wavefunctions not found or not readable, recomputing them from scratch
     Starting wfcs are  864 randomized atomic wfcs +   59 random wfcs
     Checking if some PAW data can be deallocated... 
       PAW data deallocated on   66 nodes for type:  1
       PAW data deallocated on   62 nodes for type:  2

     total cpu time spent up to now is       17.1 secs

     Self-consistent Calculation

     iteration #  1     ecut=    70.00 Ry     beta= 0.70
     Davidson diagonalization with overlap

---- Real-time Memory Report at c_bands before calling an iterative solver
           533 MiB given to the printing process from OS
             0 MiB allocation reported by mallinfo(arena+hblkhd)
       1874304 MiB available memory on the node where the printing process lives
------------------
     c_bands:  2 eigenvalues not converged
     ethr =  1.00E-05,  avg # of iterations = 40.0


     -----------------------------------------------
     Non-local corr. energy    =      46.36548063 Ry
     -----------------------------------------------


     total cpu time spent up to now is      490.9 secs

     total energy              =  -64423.74256607 Ry
     estimated scf accuracy    <       0.08973152 Ry

     iteration #  2     ecut=    70.00 Ry     beta= 0.70
     Davidson diagonalization with overlap

---- Real-time Memory Report at c_bands before calling an iterative solver
          1275 MiB given to the printing process from OS
             0 MiB allocation reported by mallinfo(arena+hblkhd)
       1862224 MiB available memory on the node where the printing process lives
------------------
     ethr =  5.84E-06,  avg # of iterations = 12.0


     -----------------------------------------------
     Non-local corr. energy    =      46.36362565 Ry
     -----------------------------------------------


     total cpu time spent up to now is      680.5 secs

     total energy              =  -64423.63848450 Ry
     estimated scf accuracy    <       4.40875763 Ry

     iteration #  3     ecut=    70.00 Ry     beta= 0.70
     Davidson diagonalization with overlap

---- Real-time Memory Report at c_bands before calling an iterative solver
          1275 MiB given to the printing process from OS
             0 MiB allocation reported by mallinfo(arena+hblkhd)
       1862111 MiB available memory on the node where the printing process lives
------------------
     c_bands:  1 eigenvalues not converged
     ethr =  5.84E-06,  avg # of iterations = 20.0


     -----------------------------------------------
     Non-local corr. energy    =      46.35664621 Ry
     -----------------------------------------------


     total cpu time spent up to now is      986.5 secs

     total energy              =  -64423.79458427 Ry
     estimated scf accuracy    <       0.05964272 Ry

     iteration #  4     ecut=    70.00 Ry     beta= 0.70
     Davidson diagonalization with overlap

---- Real-time Memory Report at c_bands before calling an iterative solver
          1275 MiB given to the printing process from OS
             0 MiB allocation reported by mallinfo(arena+hblkhd)
       1861991 MiB available memory on the node where the printing process lives
------------------
     ethr =  3.88E-06,  avg # of iterations = 14.0


     -----------------------------------------------
     Non-local corr. energy    =      46.34612959 Ry
     -----------------------------------------------


     total cpu time spent up to now is     1141.9 secs

     total energy              =  -64423.80470617 Ry
     estimated scf accuracy    <       0.01799671 Ry

     iteration #  5     ecut=    70.00 Ry     beta= 0.70
     Davidson diagonalization with overlap

---- Real-time Memory Report at c_bands before calling an iterative solver
          1275 MiB given to the printing process from OS
             0 MiB allocation reported by mallinfo(arena+hblkhd)
       1861868 MiB available memory on the node where the printing process lives
------------------
     ethr =  1.17E-06,  avg # of iterations = 16.0


     -----------------------------------------------
     Non-local corr. energy    =      46.34236091 Ry
     -----------------------------------------------


     total cpu time spent up to now is     1302.5 secs

     total energy              =  -64423.80622531 Ry
     estimated scf accuracy    <       0.00078076 Ry

     iteration #  6     ecut=    70.00 Ry     beta= 0.70
     Davidson diagonalization with overlap

---- Real-time Memory Report at c_bands before calling an iterative solver
          1275 MiB given to the printing process from OS
             0 MiB allocation reported by mallinfo(arena+hblkhd)
       1861738 MiB available memory on the node where the printing process lives
------------------
     ethr =  5.08E-08,  avg # of iterations = 16.0


     -----------------------------------------------
     Non-local corr. energy    =      46.34022511 Ry
     -----------------------------------------------


     total cpu time spent up to now is     1675.8 secs

     total energy              =  -64423.80647200 Ry
     estimated scf accuracy    <       0.00070489 Ry

     iteration #  7     ecut=    70.00 Ry     beta= 0.70
     Davidson diagonalization with overlap

---- Real-time Memory Report at c_bands before calling an iterative solver
          1290 MiB given to the printing process from OS
             0 MiB allocation reported by mallinfo(arena+hblkhd)
       1861619 MiB available memory on the node where the printing process lives
------------------
     ethr =  4.59E-08,  avg # of iterations = 10.0


     -----------------------------------------------
     Non-local corr. energy    =      46.33742784 Ry
     -----------------------------------------------


     total cpu time spent up to now is     1769.8 secs

     total energy              =  -64423.80646949 Ry
     estimated scf accuracy    <       0.00055305 Ry

     iteration #  8     ecut=    70.00 Ry     beta= 0.70
     Davidson diagonalization with overlap

---- Real-time Memory Report at c_bands before calling an iterative solver
          1290 MiB given to the printing process from OS
             0 MiB allocation reported by mallinfo(arena+hblkhd)
       1861493 MiB available memory on the node where the printing process lives
------------------
     ethr =  3.60E-08,  avg # of iterations =  8.0


     -----------------------------------------------
     Non-local corr. energy    =      46.32737815 Ry
     -----------------------------------------------


     total cpu time spent up to now is     1850.3 secs

     total energy              =  -64423.80646471 Ry
     estimated scf accuracy    <       0.00020848 Ry

     iteration #  9     ecut=    70.00 Ry     beta= 0.70
     Davidson diagonalization with overlap

---- Real-time Memory Report at c_bands before calling an iterative solver
          1290 MiB given to the printing process from OS
             0 MiB allocation reported by mallinfo(arena+hblkhd)
       1861366 MiB available memory on the node where the printing process lives
------------------
     ethr =  1.36E-08,  avg # of iterations = 12.0


     -----------------------------------------------
     Non-local corr. energy    =      46.32702089 Ry
     -----------------------------------------------


     total cpu time spent up to now is     1981.9 secs

     total energy              =  -64423.80647341 Ry
     estimated scf accuracy    <       0.00004177 Ry

     iteration # 10     ecut=    70.00 Ry     beta= 0.70
     Davidson diagonalization with overlap

---- Real-time Memory Report at c_bands before calling an iterative solver
          1290 MiB given to the printing process from OS
             0 MiB allocation reported by mallinfo(arena+hblkhd)
       1861245 MiB available memory on the node where the printing process lives
------------------
     ethr =  2.72E-09,  avg # of iterations = 11.0


     -----------------------------------------------
     Non-local corr. energy    =      46.32806530 Ry
     -----------------------------------------------


     total cpu time spent up to now is     2177.9 secs

     total energy              =  -64423.80648064 Ry
     estimated scf accuracy    <       0.00006322 Ry

     iteration # 11     ecut=    70.00 Ry     beta= 0.70
     Davidson diagonalization with overlap

---- Real-time Memory Report at c_bands before calling an iterative solver
          1290 MiB given to the printing process from OS
             0 MiB allocation reported by mallinfo(arena+hblkhd)
       1861243 MiB available memory on the node where the printing process lives
------------------
     ethr =  2.72E-09,  avg # of iterations = 15.0


     -----------------------------------------------
     Non-local corr. energy    =      46.32963878 Ry
     -----------------------------------------------


     total cpu time spent up to now is     2323.3 secs

     total energy              =  -64423.80648255 Ry
     estimated scf accuracy    <       0.00002517 Ry

     iteration # 12     ecut=    70.00 Ry     beta= 0.70
     Davidson diagonalization with overlap

---- Real-time Memory Report at c_bands before calling an iterative solver
          1290 MiB given to the printing process from OS
             0 MiB allocation reported by mallinfo(arena+hblkhd)
       1861235 MiB available memory on the node where the printing process lives
------------------
     ethr =  1.64E-09,  avg # of iterations = 10.0


     -----------------------------------------------
     Non-local corr. energy    =      46.33057067 Ry
     -----------------------------------------------


     total cpu time spent up to now is     2418.8 secs

     total energy              =  -64423.80648181 Ry
     estimated scf accuracy    <       0.00001451 Ry

     iteration # 13     ecut=    70.00 Ry     beta= 0.70
     Davidson diagonalization with overlap

---- Real-time Memory Report at c_bands before calling an iterative solver
          1290 MiB given to the printing process from OS
             0 MiB allocation reported by mallinfo(arena+hblkhd)
       1861202 MiB available memory on the node where the printing process lives
------------------
     ethr =  9.44E-10,  avg # of iterations = 13.0


     -----------------------------------------------
     Non-local corr. energy    =      46.33050851 Ry
     -----------------------------------------------


     total cpu time spent up to now is     2584.8 secs

     total energy              =  -64423.80647997 Ry
     estimated scf accuracy    <       0.00004743 Ry

     iteration # 14     ecut=    70.00 Ry     beta= 0.70
     Davidson diagonalization with overlap

---- Real-time Memory Report at c_bands before calling an iterative solver
          1290 MiB given to the printing process from OS
             0 MiB allocation reported by mallinfo(arena+hblkhd)
       1861191 MiB available memory on the node where the printing process lives
------------------
     ethr =  9.44E-10,  avg # of iterations = 15.0


     -----------------------------------------------
     Non-local corr. energy    =      46.33041104 Ry
     -----------------------------------------------


     total cpu time spent up to now is     2764.5 secs

     total energy              =  -64423.80648107 Ry
     estimated scf accuracy    <       0.00007140 Ry

     iteration # 15     ecut=    70.00 Ry     beta= 0.70
     Davidson diagonalization with overlap

---- Real-time Memory Report at c_bands before calling an iterative solver
          1290 MiB given to the printing process from OS
             0 MiB allocation reported by mallinfo(arena+hblkhd)
       1861189 MiB available memory on the node where the printing process lives
------------------
     ethr =  9.44E-10,  avg # of iterations = 13.0


     -----------------------------------------------
     Non-local corr. energy    =      46.33024748 Ry
     -----------------------------------------------


     total cpu time spent up to now is     2895.3 secs

     total energy              =  -64423.80648450 Ry
     estimated scf accuracy    <       0.00000040 Ry

     iteration # 16     ecut=    70.00 Ry     beta= 0.70
     Davidson diagonalization with overlap

---- Real-time Memory Report at c_bands before calling an iterative solver
          1290 MiB given to the printing process from OS
             0 MiB allocation reported by mallinfo(arena+hblkhd)
       1861175 MiB available memory on the node where the printing process lives
------------------
     ethr =  2.63E-11,  avg # of iterations = 15.0


     -----------------------------------------------
     Non-local corr. energy    =      46.33018378 Ry
     -----------------------------------------------


     total cpu time spent up to now is     3209.9 secs

     total energy              =  -64423.80648456 Ry
     estimated scf accuracy    <       0.00000051 Ry

     iteration # 17     ecut=    70.00 Ry     beta= 0.70
     Davidson diagonalization with overlap

---- Real-time Memory Report at c_bands before calling an iterative solver
          1290 MiB given to the printing process from OS
             0 MiB allocation reported by mallinfo(arena+hblkhd)
       1861130 MiB available memory on the node where the printing process lives
------------------
     ethr =  2.63E-11,  avg # of iterations = 15.0


     -----------------------------------------------
     Non-local corr. energy    =      46.33014748 Ry
     -----------------------------------------------


     total cpu time spent up to now is     3367.7 secs

     total energy              =  -64423.80648456 Ry
     estimated scf accuracy    <       0.00000022 Ry

     iteration # 18     ecut=    70.00 Ry     beta= 0.70
     Davidson diagonalization with overlap

---- Real-time Memory Report at c_bands before calling an iterative solver
          1290 MiB given to the printing process from OS
             0 MiB allocation reported by mallinfo(arena+hblkhd)
       1861134 MiB available memory on the node where the printing process lives
------------------
     ethr =  1.46E-11,  avg # of iterations = 14.0


     -----------------------------------------------
     Non-local corr. energy    =      46.32997941 Ry
     -----------------------------------------------


     total cpu time spent up to now is     3494.8 secs

     End of self-consistent calculation

          k = 0.0000 0.0000 0.0000 (302703 PWs)   bands (ev):

   -43.1473 -43.1472 -43.1217 -43.1213 -43.1186 -41.4016 -41.4015 -41.3998
   -41.3997 -41.3996 -41.3994 -41.3650 -41.3650 -41.3645 -41.3644 -41.3633
   -41.3632 -41.3631 -41.3630 -41.3628 -41.3626 -41.3626 -41.3624 -41.2519
   -41.2519 -41.2514 -41.2514 -41.2505 -41.2504 -41.2503 -41.2502 -41.2500
   -41.2499 -41.2498 -41.2497 -40.8733 -40.8733 -40.8732 -40.8732 -40.8731
   -40.8731 -40.8730 -40.8730 -40.8730 -40.8730 -40.8729 -40.8729 -40.8695
   -40.8695 -40.8694 -40.8694 -40.8693 -40.8693 -40.8693 -40.8693 -40.8692
   -40.8692 -40.8692 -40.8691 -40.8656 -40.8656 -40.8656 -40.8655 -40.8654
   -40.8654 -40.8654 -40.8654 -40.8654 -40.8653 -40.8653 -40.8653 -40.8529
   -40.8529 -40.8529 -40.8528 -40.8527 -40.8527 -40.8527 -40.8527 -40.8527
   -40.8527 -40.8526 -40.8526 -40.8526 -40.8526 -40.8526 -40.8525 -40.8525
   -40.8524 -40.8524 -40.8524 -40.8524 -40.8523 -40.8523 -40.8523 -40.8082
   -40.8082 -40.8082 -40.8081 -40.8081 -40.8081 -40.8078 -40.8078 -40.8078
   -40.8077 -40.8077 -40.8077 -40.8062 -40.8062 -40.8061 -40.8061 -40.8061
   -40.8060 -40.8037 -40.8037 -40.8037 -40.8036 -40.8036 -40.8036 -40.8032
   -40.8032 -40.8032 -40.8031 -40.8031 -40.8031 -40.7980 -40.7980 -40.7979
   -40.7979 -40.7979 -40.7978 -40.7974 -40.7974 -40.7974 -40.7974 -40.7973
   -40.7973 -40.7954 -40.7954 -40.7954 -40.7954 -40.7953 -40.7953 -40.7952
   -40.7952 -40.7952 -40.7951 -40.7951 -40.7951 -40.7949 -40.7949 -40.7949
   -40.7948 -40.7948 -40.7948 -40.7723 -40.7723 -40.7723 -40.7723 -40.7715
   -40.7715 -40.7715 -40.7715 -40.7712 -40.7712 -40.7642 -40.7641 -40.7641
   -40.7640 -40.7640 -40.7640 -40.7608 -40.7607 -40.7607 -40.7606 -40.7606
   -40.7606 -40.7602 -40.7602 -40.7601 -40.7601 -40.7601 -40.7600 -40.7503
   -40.7503 -40.7503 -40.7502 -40.7502 -40.7501 -40.7498 -40.7498 -40.7497
   -40.7497 -40.7497 -40.7496 -40.7479 -40.7479 -40.7478 -40.7478 -40.7478
   -40.7477 -40.7466 -40.7466 -40.7466 -40.7466 -40.7139 -40.7138 -40.7138
   -40.7138 -40.7138 -40.7137 -40.7134 -40.7134 -40.7134 -40.7133 -40.7133
   -40.7133 -40.7132 -40.7132 -40.7132 -40.7132 -40.7131 -40.7131 -40.7128
   -40.7128 -40.7128 -40.7128 -40.7127 -40.7127 -40.7126 -40.7126 -40.7126
   -40.7125 -40.7125 -40.7125 -40.6981 -40.6981 -40.6981 -40.6981 -40.6981
   -40.6981 -40.6980 -40.6979 -40.6979 -40.6979 -40.6979 -40.6979 -40.6975
   -40.6975 -40.6974 -40.6974 -40.6974 -40.6974 -40.6964 -40.6964 -40.6963
   -40.6963 -40.6963 -40.6963 -40.6963 -40.6963 -40.6963 -40.6963 -40.6963
   -40.6963 -40.6961 -40.6960 -40.6960 -40.6960 -40.6960 -40.6960 -40.6960
   -40.6960 -40.6960 -40.6960 -40.6960 -40.6960 -40.6960 -40.6959 -40.6959
   -40.6959 -40.6959 -40.6959 -40.6956 -40.6955 -40.6955 -40.6955 -40.6955
   -40.6955 -40.6954 -40.6953 -40.6953 -40.6953 -40.6953 -40.6953 -40.6953
   -40.6953 -40.6952 -40.6952 -40.6952 -40.6952 -40.6951 -40.6951 -40.6951
   -40.6951 -40.6951 -40.6951 -40.6951 -40.6951 -40.6950 -40.6950 -40.6950
   -40.6950 -40.6949 -40.6948 -40.6948 -40.6948 -40.6948 -40.6948 -40.6948
   -40.6948 -40.6947 -40.6947 -40.6947 -40.6947 -13.0393 -13.0380 -13.0379
   -13.0335 -13.0334 -13.0317 -13.0298 -13.0257 -13.0256 -13.0204 -13.0203
   -13.0201 -13.0196 -13.0194 -13.0190 -13.0177 -13.0176 -13.0146 -13.0122
   -13.0114 -13.0113 -13.0107 -13.0105 -13.0104 -13.0076 -13.0076 -13.0074
   -13.0066 -13.0065 -13.0056 -12.9565 -12.9564 -12.9554 -12.9530 -12.9530
   -12.9505 -12.9404 -12.9404 -12.9403 -12.9391 -12.9372 -12.9372 -12.9362
   -12.9356 -12.9355 -12.9347 -12.9341 -12.9341 -12.9330 -12.9294 -12.9294
   -12.9259 -12.9246 -12.9240 -12.9239 -12.9234 -12.9234 -12.9178 -12.9175
   -12.9167 -12.9167 -12.9164 -12.9159 -12.9159 -12.9154 -12.9146 -12.9146
   -12.9141 -12.9141 -12.9116 -12.9116 -12.9113 -12.9113 -12.9100 -12.9098
   -12.8733 -12.8689 -12.8648 -12.8648 -12.8643 -12.8643 -12.8593 -12.8593
   -12.8592 -12.8592 -12.8573 -12.8569 -12.8569 -12.8559 -12.8558 -12.8519
   -12.8519 -12.8516 -12.8489 -12.8489 -12.8487 -12.8474 -12.8466 -12.8466
   -12.8455 -12.8455 -12.8455 -12.8455 -12.8451 -12.8441 -12.8434 -12.8434
   -12.8431 -12.8431 -12.8421 -12.8416 -12.8416 -12.8414 -12.8409 -12.8408
   -12.8404 -12.8404 -12.8401 -12.8400 -12.8400 -12.8389 -12.8389 -12.8388
   -12.8386 -12.8386 -12.8379 -12.8354 -12.8354 -12.8353 -12.8353 -12.8350
   -12.8348 -12.8348 -12.8337 -12.8337 -12.8332 -12.8319 -12.8305 -12.8279
   -12.8279 -12.8268 -12.8262 -12.8262 -12.8254 -12.8240 -12.8240 -12.8143
   -12.8143 -12.8138 -12.8124 -12.8120 -12.8120 -12.8117 -12.8114 -12.8114
    -9.6261  -8.1154  -8.0990  -8.0982  -7.9948  -7.9909  -7.9904  -7.9769
    -7.9069  -7.9066  -7.8997  -7.8732  -7.8378  -7.8376  -7.7918  -7.7918
    -7.7887  -7.7834  -7.7804  -7.7804  -7.7116  -7.6818  -7.6648  -7.6648
    -7.6584  -7.6473  -7.6472  -7.6320  -7.6107  -7.6107  -7.6058  -7.6057
    -7.5869  -7.5681  -7.5662  -7.5633  -7.5633  -7.5611  -7.5513  -7.5513
    -7.5390  -7.5390  -7.5377  -7.5377  -7.5340  -7.5332  -7.5298  -7.5207
    -7.5207  -7.5184  -7.4772  -7.4772  -7.4703  -7.4647  -7.4647  -7.4617
    -7.4534  -7.4264  -7.4264  -7.4241  -7.4236  -7.4236  -7.4067  -7.4067
    -7.4006  -3.7175  -3.7174  -3.7131  -3.6688  -3.6687  -3.6479  -3.6389
    -3.6389  -3.5625  -3.5547  -3.5547  -3.5491  -3.5435  -3.5435  -3.5434
    -3.5367  -3.5357  -3.5357  -3.4351  -3.4350  -3.3968  -3.3968  -3.3652
    -3.2910  -3.2910  -3.2862  -3.2798  -3.2742  -3.2742  -3.2071  -3.0595
     0.0369   0.0379   0.1124   0.9076   0.9076   0.9324   1.1578   1.1578
     1.1663   1.1684   1.1685   1.1719   1.2181   1.2181   1.2867   1.3268
     1.3376   1.3376   1.3481   1.3991   1.3991   1.3997   1.3998   1.4036
     1.4416   1.4416   1.4542   1.4586   1.4885   1.4885   1.5170   1.5170
     1.5225   1.5281   1.5281   1.5317   1.5718   1.6408   1.6409   1.6454
     1.6454   1.6547   1.6617   1.6923   1.6924   1.7299   1.7577   1.7578
     1.7693   1.7847   1.7848   1.8459   1.8460   1.8591   1.9294   1.9980
     1.9981   2.0077   2.0128   2.0130   2.0350   2.0351   2.0456   2.0653
     2.0670   2.0670   2.0698   2.0731   2.0731   2.1136   2.1184   2.1184
     2.1523   2.1634   2.1638   2.1736   2.1737   2.1793   2.1926   2.1927
     2.1984   2.1985   2.2826   2.2827   2.2917   2.3089   2.3089   2.3296
     2.3297   2.3409   2.3422   2.3612   2.3612   2.3614   2.3614   2.3629
     2.3638   2.3737   2.4077   2.4078   2.4831   2.4868   2.5025   2.5025
     2.5143   2.5143   2.5545   2.5858   2.5859   2.6300   2.6300   2.6350
     2.6353   2.6417   2.6611   2.7016   2.7017   2.7063   2.7064   2.7315
     2.7456   2.7495   2.7978   2.7978   2.8028   2.8029   2.8129   2.8130
     2.8235   2.8235   2.8353   2.8399   2.8468   2.8510   2.8510   2.8614
     2.8760   2.8760   2.8805   2.9079   2.9079   2.9257   2.9257   2.9399
     2.9499   2.9722   2.9722   2.9848   2.9869   2.9869   2.9882   2.9882
     3.0160   3.0240   3.0243   3.0243   3.0321   3.0321   3.0352   3.0354
     3.0354   3.0427   3.0479   3.0479   3.0505   3.1094   3.1563   3.1564
     3.1850   3.1850   3.2091   3.2091   3.2115   3.2235   3.2236   3.2299
     3.2416   3.2416   3.2444   3.3682   3.3684   3.3817   3.3817   3.3893
     3.3893   3.4055   3.4150   3.4265   3.4265   3.4327   3.4327   3.4706
     3.6740   3.6958   3.6959   5.9903   6.1891   6.4724   6.4967   6.4968
     6.5471   6.5471   6.5635   6.5962   6.5963   6.6598   6.7200   6.7246
     6.7246   6.7384   6.7384   6.8001   6.8001   6.8317   6.8943   6.9010
     6.9010   6.9484   6.9484   6.9534   6.9535   6.9973   7.0165   7.0580
     7.0580   7.1083   7.1412   7.1412   7.1642   7.1842   7.1842   7.2389
     7.2390   7.2394   7.2574   7.2715   7.2715   7.2750   7.2750   7.2967
     7.2979   7.2979   7.3010   7.3036   7.3036   7.3179   7.3216   7.3216
     7.3239   7.3300   7.4000   7.4000   7.4145   7.4176   7.4176   7.4247
     7.4319   7.4320   7.4669   7.4669   7.4755   7.4830   7.4830   7.4876
     7.4877   7.4896   7.4899   7.4941   7.4952   7.4952   7.5286   7.5701
     7.5743   7.5743   7.5984   7.6065   7.6065   7.6159   7.6160   7.7489
     7.7526   7.7528   7.7528   7.7673   7.7673   8.0529   8.0565   8.0565
     9.1493   9.1493   9.1544   9.6695   9.6695   9.7081   9.8254   9.8260
     9.8260   9.8571   9.8688   9.8833   9.8833  10.0170  10.0428  10.0428
    10.0611  10.0611  10.0712  10.0713  10.0774  10.0774  10.0787  10.0823
    10.0823  10.3126  10.3126  10.3448  10.3450  10.3866  10.3982  10.4239
    10.4814  10.4900  10.4902  10.4902  10.4914  10.4914  10.7601  10.7635
    10.7636  10.7731  10.8153  10.8153  10.8774  10.9453  10.9453  10.9469
    10.9469  10.9615  11.1006  11.1553  11.1553  11.1592  11.1594  11.1785
    11.2072  11.2178  11.2179

     occupation numbers 
     1.0000   1.0000   1.0000   1.0000   1.0000   1.0000   1.0000   1.0000
     1.0000   1.0000   1.0000   1.0000   1.0000   1.0000   1.0000   1.0000
     1.0000   1.0000   1.0000   1.0000   1.0000   1.0000   1.0000   1.0000
     1.0000   1.0000   1.0000   1.0000   1.0000   1.0000   1.0000   1.0000
     1.0000   1.0000   1.0000   1.0000   1.0000   1.0000   1.0000   1.0000
     1.0000   1.0000   1.0000   1.0000   1.0000   1.0000   1.0000   1.0000
     1.0000   1.0000   1.0000   1.0000   1.0000   1.0000   1.0000   1.0000
     1.0000   1.0000   1.0000   1.0000   1.0000   1.0000   1.0000   1.0000
     1.0000   1.0000   1.0000   1.0000   1.0000   1.0000   1.0000   1.0000
     1.0000   1.0000   1.0000   1.0000   1.0000   1.0000   1.0000   1.0000
     1.0000   1.0000   1.0000   1.0000   1.0000   1.0000   1.0000   1.0000
     1.0000   1.0000   1.0000   1.0000   1.0000   1.0000   1.0000   1.0000
     1.0000   1.0000   1.0000   1.0000   1.0000   1.0000   1.0000   1.0000
     1.0000   1.0000   1.0000   1.0000   1.0000   1.0000   1.0000   1.0000
     1.0000   1.0000   1.0000   1.0000   1.0000   1.0000   1.0000   1.0000
     1.0000   1.0000   1.0000   1.0000   1.0000   1.0000   1.0000   1.0000
     1.0000   1.0000   1.0000   1.0000   1.0000   1.0000   1.0000   1.0000
     1.0000   1.0000   1.0000   1.0000   1.0000   1.0000   1.0000   1.0000
     1.0000   1.0000   1.0000   1.0000   1.0000   1.0000   1.0000   1.0000
     1.0000   1.0000   1.0000   1.0000   1.0000   1.0000   1.0000   1.0000
     1.0000   1.0000   1.0000   1.0000   1.0000   1.0000   1.0000   1.0000
     1.0000   1.0000   1.0000   1.0000   1.0000   1.0000   1.0000   1.0000
     1.0000   1.0000   1.0000   1.0000   1.0000   1.0000   1.0000   1.0000
     1.0000   1.0000   1.0000   1.0000   1.0000   1.0000   1.0000   1.0000
     1.0000   1.0000   1.0000   1.0000   1.0000   1.0000   1.0000   1.0000
     1.0000   1.0000   1.0000   1.0000   1.0000   1.0000   1.0000   1.0000
     1.0000   1.0000   1.0000   1.0000   1.0000   1.0000   1.0000   1.0000
     1.0000   1.0000   1.0000   1.0000   1.0000   1.0000   1.0000   1.0000
     1.0000   1.0000   1.0000   1.0000   1.0000   1.0000   1.0000   1.0000
     1.0000   1.0000   1.0000   1.0000   1.0000   1.0000   1.0000   1.0000
     1.0000   1.0000   1.0000   1.0000   1.0000   1.0000   1.0000   1.0000
     1.0000   1.0000   1.0000   1.0000   1.0000   1.0000   1.0000   1.0000
     1.0000   1.0000   1.0000   1.0000   1.0000   1.0000   1.0000   1.0000
     1.0000   1.0000   1.0000   1.0000   1.0000   1.0000   1.0000   1.0000
     1.0000   1.0000   1.0000   1.0000   1.0000   1.0000   1.0000   1.0000
     1.0000   1.0000   1.0000   1.0000   1.0000   1.0000   1.0000   1.0000
     1.0000   1.0000   1.0000   1.0000   1.0000   1.0000   1.0000   1.0000
     1.0000   1.0000   1.0000   1.0000   1.0000   1.0000   1.0000   1.0000
     1.0000   1.0000   1.0000   1.0000   1.0000   1.0000   1.0000   1.0000
     1.0000   1.0000   1.0000   1.0000   1.0000   1.0000   1.0000   1.0000
     1.0000   1.0000   1.0000   1.0000   1.0000   1.0000   1.0000   1.0000
     1.0000   1.0000   1.0000   1.0000   1.0000   1.0000   1.0000   1.0000
     1.0000   1.0000   1.0000   1.0000   1.0000   1.0000   1.0000   1.0000
     1.0000   1.0000   1.0000   1.0000   1.0000   1.0000   1.0000   1.0000
     1.0000   1.0000   1.0000   1.0000   1.0000   1.0000   1.0000   1.0000
     1.0000   1.0000   1.0000   1.0000   1.0000   1.0000   1.0000   1.0000
     1.0000   1.0000   1.0000   1.0000   1.0000   1.0000   1.0000   1.0000
     1.0000   1.0000   1.0000   1.0000   1.0000   1.0000   1.0000   1.0000
     1.0000   1.0000   1.0000   1.0000   1.0000   1.0000   1.0000   1.0000
     1.0000   1.0000   1.0000   1.0000   1.0000   1.0000   1.0000   1.0000
     1.0000   1.0000   1.0000   1.0000   1.0000   1.0000   1.0000   1.0000
     1.0000   1.0000   1.0000   1.0000   1.0000   1.0000   1.0000   1.0000
     1.0000   1.0000   1.0000   1.0000   1.0000   1.0000   1.0000   1.0000
     1.0000   1.0000   1.0000   1.0000   1.0000   1.0000   1.0000   1.0000
     1.0000   1.0000   1.0000   1.0000   1.0000   1.0000   1.0000   1.0000
     1.0000   1.0000   1.0000   1.0000   1.0000   1.0000   1.0000   1.0000
     1.0000   1.0000   1.0000   1.0000   1.0000   1.0000   1.0000   1.0000
     1.0000   1.0000   1.0000   1.0000   1.0000   1.0000   1.0000   1.0000
     1.0000   1.0000   1.0000   1.0000   1.0000   1.0000   1.0000   1.0000
     1.0000   1.0000   1.0000   1.0000   1.0000   1.0000   1.0000   1.0000
     1.0000   1.0000   1.0000   1.0000   1.0000   1.0000   1.0000   1.0000
     1.0000   1.0000   1.0000   1.0000   1.0000   1.0000   1.0000   1.0000
     1.0000   1.0000   1.0000   1.0000   1.0000   1.0000   1.0000   1.0000
     1.0000   1.0000   1.0000   1.0000   1.0000   1.0000   1.0000   1.0000
     1.0000   1.0000   1.0000   1.0000   1.0000   1.0000   1.0000   1.0000
     1.0000   1.0000   1.0000   1.0000   1.0000   1.0000   1.0000   1.0000
     1.0000   1.0000   1.0000   1.0000   1.0000   1.0000   1.0000   1.0000
     1.0000   1.0000   1.0000   1.0000   1.0000   1.0000   1.0000   1.0000
     1.0000   1.0000   1.0000   1.0000   1.0000   1.0000   1.0000   1.0000
     1.0000   1.0000   1.0000   1.0000   1.0000   1.0000   1.0000   1.0000
     1.0000   1.0000   1.0000   1.0000   1.0000   1.0000   1.0000   1.0000
     1.0000   1.0000   1.0000   1.0000   1.0000   1.0000   1.0000   1.0000
     1.0000   1.0000   1.0000   1.0000   1.0000   1.0000   1.0000   1.0000
     1.0000   1.0000   1.0000   1.0000   1.0000   1.0000   1.0000   1.0000
     1.0000   1.0000   1.0000   1.0000   1.0000   1.0000   1.0000   1.0000
     1.0000   1.0000   1.0000   1.0000   1.0000   1.0000   1.0000   1.0000
     1.0000   1.0000   1.0000   1.0000   1.0000   1.0000   1.0000   1.0000
     1.0000   1.0000   1.0000   1.0000   1.0000   1.0000   1.0000   1.0000
     1.0000   1.0000   1.0000   1.0000   1.0000   1.0000   1.0000   1.0000
     1.0000   1.0000   1.0000   1.0000   1.0000   1.0000   1.0000   1.0000
     1.0000   1.0000   1.0000   1.0000   1.0000   1.0000   1.0000   1.0000
     1.0000   1.0000   1.0000   1.0000   1.0000   1.0000   1.0000   1.0000
     1.0000   1.0000   1.0000   1.0000   1.0000   1.0000   1.0000   1.0000
     1.0000   1.0000   1.0000   1.0000   1.0000   1.0000   1.0000   1.0000
     1.0000   1.0000   1.0000   1.0000   1.0000   1.0000   1.0000   1.0000
     1.0000   1.0000   1.0000   1.0000   1.0000   1.0000   1.0000   1.0000
     1.0000   1.0000   1.0000   1.0000   1.0000   1.0000   1.0000   1.0000
     1.0000   1.0000   1.0000   1.0000   1.0000   1.0000   1.0000   1.0000
     1.0000   1.0000   1.0000   1.0000   1.0000   1.0000   1.0000   1.0000
     1.0000   1.0000   1.0000   1.0000   1.0000   1.0000   1.0000   1.0000
     1.0000   1.0000   1.0000   1.0000   1.0000   1.0000   1.0000   1.0000
     1.0000   1.0000   1.0000   1.0000   1.0000   1.0000   1.0000   1.0000
     1.0000   1.0000   1.0000   1.0000   1.0000   1.0000   1.0000   1.0000
     1.0000   1.0000   1.0000   1.0000   1.0000   1.0000   1.0000   1.0000
     1.0000   1.0000   1.0000   0.9956   0.9956   0.9935   0.9935   0.9919
     0.9919   0.9873   0.9837   0.9781   0.9781   0.9745   0.9745   0.9403
     0.2888   0.2169   0.2163   0.0000   0.0000   0.0000   0.0000   0.0000
     0.0000   0.0000   0.0000   0.0000   0.0000   0.0000   0.0000   0.0000
     0.0000   0.0000   0.0000   0.0000   0.0000   0.0000   0.0000   0.0000
     0.0000   0.0000   0.0000   0.0000   0.0000   0.0000   0.0000   0.0000
     0.0000   0.0000   0.0000   0.0000   0.0000   0.0000   0.0000   0.0000
     0.0000   0.0000   0.0000   0.0000   0.0000   0.0000   0.0000   0.0000
     0.0000   0.0000   0.0000   0.0000   0.0000   0.0000   0.0000   0.0000
     0.0000   0.0000   0.0000   0.0000   0.0000   0.0000   0.0000   0.0000
     0.0000   0.0000   0.0000   0.0000   0.0000   0.0000   0.0000   0.0000
     0.0000   0.0000   0.0000   0.0000   0.0000   0.0000   0.0000   0.0000
     0.0000   0.0000   0.0000   0.0000   0.0000   0.0000   0.0000   0.0000
     0.0000   0.0000   0.0000   0.0000   0.0000   0.0000   0.0000   0.0000
     0.0000   0.0000   0.0000   0.0000   0.0000   0.0000   0.0000   0.0000
     0.0000   0.0000   0.0000   0.0000   0.0000   0.0000   0.0000   0.0000
     0.0000   0.0000   0.0000   0.0000   0.0000   0.0000   0.0000   0.0000
     0.0000   0.0000   0.0000   0.0000   0.0000   0.0000   0.0000   0.0000
     0.0000   0.0000   0.0000   0.0000   0.0000   0.0000   0.0000   0.0000
     0.0000   0.0000   0.0000   0.0000   0.0000   0.0000   0.0000   0.0000
     0.0000   0.0000   0.0000   0.0000   0.0000   0.0000   0.0000   0.0000
     0.0000   0.0000   0.0000

     the Fermi energy is     3.6204 ev

!    total energy              =  -64423.80648438 Ry
     total all-electron energy =  -2221425.953126 Ry
     estimated scf accuracy    <       0.00000009 Ry
     smearing contrib. (-TS)   =      -0.02053696 Ry
     internal energy E=F+TS    =  -64423.78594742 Ry

     The total energy is F=E-TS. E is the sum of the following terms:
     one-electron contribution =  -12021.79373713 Ry
     hartree contribution      =    6704.46949108 Ry
     xc contribution           =   -4555.11478105 Ry
     ewald contribution        =   -9924.69543483 Ry
     one-center paw contrib.   =  -44626.65148549 Ry
      -> PAW hartree energy AE =      95.83481444 Ry
      -> PAW hartree energy PS =     -96.07098232 Ry
      -> PAW xc energy AE      =    -798.42369495 Ry
      -> PAW xc energy PS      =      33.30421006 Ry
      -> total E_H with PAW    =    6704.23332320 Ry
      -> total E_XC with PAW   =   -5320.23426594 Ry

     convergence has been achieved in  18 iterations


     -----------------------------------------------
     Non-local corr. energy    =      46.32997941 Ry
     -----------------------------------------------


     Forces acting on atoms (cartesian axes, Ry/au):

     atom    1 type  1   force =     0.00000077   -0.00000792    0.00000930
     atom    2 type  1   force =    -0.00190203    0.00330164    0.00000403
     atom    3 type  1   force =    -0.00039164    0.00067167    0.00000736
     atom    4 type  1   force =    -0.00000677    0.00000556   -0.00000571
     atom    5 type  1   force =    -0.00000511    0.00000465    0.00000518
     atom    6 type  1   force =     0.00189614   -0.00330885   -0.00001964
     atom    7 type  1   force =     0.00038578   -0.00067620    0.00000950
     atom    8 type  1   force =     0.00381336    0.00000467   -0.00002004
     atom    9 type  1   force =     0.00077802   -0.00000456    0.00000558
     atom   10 type  1   force =     0.00190420    0.00329298   -0.00000665
     atom   11 type  1   force =     0.00039312    0.00067182    0.00000751
     atom   12 type  1   force =     0.00000002    0.00114895    0.00007333
     atom   13 type  1   force =    -0.00000009    0.00037401   -0.00000069
     atom   14 type  1   force =     0.00098788   -0.00057042    0.00007519
     atom   15 type  1   force =     0.00031681   -0.00018317   -0.00000013
     atom   16 type  1   force =    -0.00000275    0.00000016   -0.00000520
     atom   17 type  1   force =    -0.00000150   -0.00000104    0.00000522
     atom   18 type  1   force =     0.00099246    0.00057520   -0.00008282
     atom   19 type  1   force =     0.00032372    0.00018752    0.00000731
     atom   20 type  1   force =     0.00000482    0.00000455   -0.00000611
     atom   21 type  1   force =     0.00000583    0.00000392    0.00000560
     atom   22 type  1   force =    -0.00098912   -0.00057144    0.00007534
     atom   23 type  1   force =    -0.00031760   -0.00018388    0.00000310
     atom   24 type  1   force =    -0.00381449   -0.00000605   -0.00000229
     atom   25 type  1   force =    -0.00077823   -0.00000334    0.00000515
     atom   26 type  1   force =    -0.00099534    0.00057573   -0.00008341
     atom   27 type  1   force =    -0.00032415    0.00018819    0.00000879
     atom   28 type  1   force =    -0.00000130   -0.00113781   -0.00008692
     atom   29 type  1   force =     0.00000005   -0.00036460    0.00000670
     atom   30 type  1   force =    -0.00189716   -0.00329900   -0.00001175
     atom   31 type  1   force =    -0.00038363   -0.00067582    0.00000885
     atom   32 type  2   force =    -0.00002065    0.00018016   -0.00022160
     atom   33 type  2   force =     0.00000025    0.00369698   -0.00000302
     atom   34 type  2   force =     0.00015933   -0.00010324   -0.00023946
     atom   35 type  2   force =     0.00326769   -0.00189722    0.00001157
     atom   36 type  2   force =    -0.00006248   -0.00022699    0.00018076
     atom   37 type  2   force =     0.00089880   -0.00045465   -0.00005295
     atom   38 type  2   force =    -0.00023795    0.00005883    0.00018922
     atom   39 type  2   force =     0.00002897    0.00103863   -0.00005923
     atom   40 type  2   force =    -0.00045834    0.00026366   -0.00120438
     atom   41 type  2   force =    -0.00056101    0.00032227   -0.00013744
     atom   42 type  2   force =    -0.00016475   -0.00008245   -0.00021515
     atom   43 type  2   force =    -0.00320900   -0.00186356    0.00000099
     atom   44 type  2   force =     0.00000437   -0.00053317   -0.00122202
     atom   45 type  2   force =     0.00001830   -0.00062750   -0.00012474
     atom   46 type  2   force =    -0.00006522   -0.00004560   -0.00008079
     atom   47 type  2   force =     0.00003937    0.00002563   -0.00029708
     atom   48 type  2   force =     0.00001108    0.00008598   -0.00008875
     atom   49 type  2   force =     0.00000141   -0.00004523   -0.00029800
     atom   50 type  2   force =    -0.00015936    0.00017521    0.00019216
     atom   51 type  2   force =    -0.00088028   -0.00054652   -0.00005828
     atom   52 type  2   force =     0.00006242   -0.00021975    0.00018893
     atom   53 type  2   force =    -0.00091017   -0.00047891   -0.00005212
     atom   54 type  2   force =     0.00007882   -0.00004155   -0.00008584
     atom   55 type  2   force =    -0.00002991    0.00002169   -0.00029173
     atom   56 type  2   force =     0.00047088    0.00026663   -0.00123854
     atom   57 type  2   force =     0.00055904    0.00029937   -0.00011498
     atom   58 type  2   force =     0.00016407    0.00016318    0.00018074
     atom   59 type  2   force =     0.00084572   -0.00055597   -0.00005104
     atom   60 type  2   force =    -0.00000425    0.00000300    0.00077831
     atom   61 type  2   force =    -0.00001098    0.00000887    0.00039860
     atom   62 type  2   force =     0.00022636    0.00006412    0.00018509
     atom   63 type  2   force =    -0.00003728    0.00103520   -0.00005130
     atom   64 type  2   force =     0.00321017    0.00183662    0.00000576
     atom   65 type  2   force =     0.00016712    0.00006418    0.00020325
     atom   66 type  2   force =     0.00055405   -0.00032656    0.00015046
     atom   67 type  2   force =     0.00045751   -0.00026596    0.00119486
     atom   68 type  2   force =    -0.00003761   -0.00001326    0.00030213
     atom   69 type  2   force =     0.00007209    0.00005545    0.00008434
     atom   70 type  2   force =    -0.00001634    0.00064655    0.00012300
     atom   71 type  2   force =    -0.00000311    0.00054352    0.00122373
     atom   72 type  2   force =    -0.00325730    0.00186966   -0.00000558
     atom   73 type  2   force =    -0.00016078    0.00008609    0.00022464
     atom   74 type  2   force =     0.00000425   -0.00370964    0.00000469
     atom   75 type  2   force =     0.00002311   -0.00018145    0.00020643
     atom   76 type  2   force =    -0.00003020   -0.00102259    0.00006669
     atom   77 type  2   force =     0.00024065   -0.00004728   -0.00019562
     atom   78 type  2   force =    -0.00090134    0.00046567    0.00005715
     atom   79 type  2   force =     0.00006124    0.00023626   -0.00018648
     atom   80 type  2   force =    -0.00085302    0.00054351    0.00005822
     atom   81 type  2   force =    -0.00017064   -0.00017259   -0.00018595
     atom   82 type  2   force =    -0.00055622   -0.00030976    0.00012360
     atom   83 type  2   force =    -0.00046948   -0.00026787    0.00122731
     atom   84 type  2   force =     0.00004125   -0.00101991    0.00006084
     atom   85 type  2   force =    -0.00022814   -0.00005579   -0.00018947
     atom   86 type  2   force =     0.00001036   -0.00000222   -0.00039153
     atom   87 type  2   force =     0.00000395    0.00000087   -0.00078592
     atom   88 type  2   force =     0.00088119    0.00053391    0.00006887
     atom   89 type  2   force =     0.00016436   -0.00018528   -0.00019657
     atom   90 type  2   force =    -0.00000296    0.00003977    0.00030199
     atom   91 type  2   force =    -0.00001180   -0.00008977    0.00008648
     atom   92 type  2   force =     0.00002734   -0.00001011    0.00029844
     atom   93 type  2   force =    -0.00008356    0.00004839    0.00008263
     atom   94 type  2   force =     0.00091036    0.00048692    0.00006227
     atom   95 type  2   force =    -0.00006689    0.00022611   -0.00019553
     atom   96 type  2   force =     0.00000309   -0.00000769    0.00000527
     The non-local contrib.  to forces
     atom    1 type  1   force =     0.00000417   -0.00001250    0.00000668
     atom    2 type  1   force =    -0.02292077    0.03980731    0.00005568
     atom    3 type  1   force =     0.00012196   -0.00022051   -0.00000796
     atom    4 type  1   force =     0.00000623   -0.00001676   -0.00000339
     atom    5 type  1   force =     0.00000384   -0.00002428    0.00000465
     atom    6 type  1   force =     0.02291321   -0.03984203   -0.00010160
     atom    7 type  1   force =    -0.00011228    0.00016716    0.00000053
     atom    8 type  1   force =     0.04596476    0.00002717   -0.00006430
     atom    9 type  1   force =    -0.00022635   -0.00001841    0.00002616
     atom   10 type  1   force =     0.02296925    0.03972295   -0.00001199
     atom   11 type  1   force =    -0.00010968   -0.00022009    0.00000095
     atom   12 type  1   force =     0.00002879    0.00835722   -0.01047690
     atom   13 type  1   force =    -0.00000008    0.00614767    0.00596410
     atom   14 type  1   force =     0.00726935   -0.00422913   -0.01047868
     atom   15 type  1   force =     0.00534597   -0.00311514    0.00596867
     atom   16 type  1   force =     0.00000930   -0.00003191   -0.00000225
     atom   17 type  1   force =     0.00000527   -0.00002065    0.00001067
     atom   18 type  1   force =     0.00726830    0.00417377    0.01046565
     atom   19 type  1   force =     0.00534972    0.00305795   -0.00595793
     atom   20 type  1   force =     0.00001967   -0.00002390   -0.00000628
     atom   21 type  1   force =     0.00000166   -0.00002713    0.00000214
     atom   22 type  1   force =    -0.00723816   -0.00424500   -0.01048551
     atom   23 type  1   force =    -0.00533952   -0.00311088    0.00595040
     atom   24 type  1   force =    -0.04594936   -0.00008935    0.00007757
     atom   25 type  1   force =     0.00023529   -0.00002622    0.00001333
     atom   26 type  1   force =    -0.00725499    0.00415912    0.01047439
     atom   27 type  1   force =    -0.00535084    0.00306003   -0.00596213
     atom   28 type  1   force =    -0.00000754   -0.00842316    0.01047931
     atom   29 type  1   force =     0.00000159   -0.00618818   -0.00593267
     atom   30 type  1   force =    -0.02291359   -0.03977342   -0.00002425
     atom   31 type  1   force =     0.00010779    0.00015747   -0.00000352
     atom   32 type  2   force =    -0.00000307    0.00121456    0.24176855
     atom   33 type  2   force =     0.00001380   -0.02856041    0.21740323
     atom   34 type  2   force =     0.00106741   -0.00059399    0.24177593
     atom   35 type  2   force =    -0.02445196    0.01414317    0.21751460
     atom   36 type  2   force =     0.00044009   -0.00081876    0.24530467
     atom   37 type  2   force =     0.01636145   -0.00555100    0.25891250
     atom   38 type  2   force =    -0.00051605    0.00080463    0.24530545
     atom   39 type  2   force =     0.00334002    0.01702666    0.25892406
     atom   40 type  2   force =    -0.01095982    0.00630822    0.23016777
     atom   41 type  2   force =     0.00013813   -0.00009437    0.25282718
     atom   42 type  2   force =    -0.00107319   -0.00058668    0.24178529
     atom   43 type  2   force =     0.02467860    0.01426374    0.21742401
     atom   44 type  2   force =    -0.00000717   -0.01262471    0.23018540
     atom   45 type  2   force =     0.00000047    0.00020846    0.25285951
     atom   46 type  2   force =    -0.00102792   -0.00059749    0.24243204
     atom   47 type  2   force =     0.00376487    0.00219483    0.25497258
     atom   48 type  2   force =     0.00001039    0.00117978    0.24242375
     atom   49 type  2   force =    -0.00001053   -0.00436552    0.25496548
     atom   50 type  2   force =    -0.00094888    0.00007887    0.24531153
     atom   51 type  2   force =    -0.01307311   -0.01136824    0.25892624
     atom   52 type  2   force =    -0.00044028   -0.00081845    0.24531332
     atom   53 type  2   force =    -0.01636747   -0.00557932    0.25891289
     atom   54 type  2   force =     0.00102847   -0.00058751    0.24243354
     atom   55 type  2   force =    -0.00378520    0.00219336    0.25498677
     atom   56 type  2   force =     0.01095601    0.00631081    0.23017213
     atom   57 type  2   force =    -0.00015434   -0.00010628    0.25286053
     atom   58 type  2   force =     0.00094461    0.00006832    0.24530243
     atom   59 type  2   force =     0.01299954   -0.01135335    0.25891269
     atom   60 type  2   force =    -0.00000212    0.00001992    0.25068801
     atom   61 type  2   force =    -0.00001606    0.00002972    0.25329973
     atom   62 type  2   force =     0.00051137    0.00081171    0.24530610
     atom   63 type  2   force =    -0.00333509    0.01697769    0.25891103
     atom   64 type  2   force =    -0.02470440   -0.01422579   -0.21743033
     atom   65 type  2   force =     0.00104691    0.00061793   -0.24178363
     atom   66 type  2   force =    -0.00017851    0.00008264   -0.25283010
     atom   67 type  2   force =     0.01093142   -0.00632940   -0.23018409
     atom   68 type  2   force =    -0.00379470   -0.00217708   -0.25497181
     atom   69 type  2   force =     0.00101172    0.00060548   -0.24242673
     atom   70 type  2   force =    -0.00002869   -0.00016326   -0.25285941
     atom   71 type  2   force =    -0.00001143    0.01264278   -0.23018467
     atom   72 type  2   force =     0.02447794   -0.01410264   -0.21751133
     atom   73 type  2   force =    -0.00105110    0.00063890   -0.24177167
     atom   74 type  2   force =    -0.00000442    0.02852083   -0.21740578
     atom   75 type  2   force =     0.00002354   -0.00122123   -0.24179034
     atom   76 type  2   force =    -0.00333278   -0.01699333   -0.25893016
     atom   77 type  2   force =     0.00052996   -0.00077046   -0.24531221
     atom   78 type  2   force =    -0.01634115    0.00559379   -0.25890482
     atom   79 type  2   force =    -0.00042053    0.00086488   -0.24529841
     atom   80 type  2   force =    -0.01301184    0.01140430   -0.25891080
     atom   81 type  2   force =    -0.00094214   -0.00002307   -0.24530151
     atom   82 type  2   force =     0.00015991    0.00010051   -0.25286474
     atom   83 type  2   force =    -0.01094070   -0.00632282   -0.23018022
     atom   84 type  2   force =     0.00333888   -0.01694492   -0.25891305
     atom   85 type  2   force =    -0.00050598   -0.00078193   -0.24530961
     atom   86 type  2   force =     0.00001189    0.00001565   -0.25329926
     atom   87 type  2   force =     0.00000244    0.00002023   -0.25069067
     atom   88 type  2   force =     0.01306249    0.01141776   -0.25892806
     atom   89 type  2   force =     0.00093192   -0.00003721   -0.24531303
     atom   90 type  2   force =    -0.00000279    0.00436227   -0.25497591
     atom   91 type  2   force =    -0.00001436   -0.00119363   -0.24243001
     atom   92 type  2   force =     0.00377304   -0.00216742   -0.25498559
     atom   93 type  2   force =    -0.00103481    0.00060069   -0.24243223
     atom   94 type  2   force =     0.01634167    0.00561061   -0.25890546
     atom   95 type  2   force =     0.00042828    0.00085542   -0.24531045
     atom   96 type  2   force =     0.00000079   -0.00000515    0.00002078
     The ionic contribution  to forces
     atom    1 type  1   force =     0.00047775   -0.00101889    0.00164121
     atom    2 type  1   force =     0.33028570   -0.57750116   -0.00385775
     atom    3 type  1   force =    -0.15739467    0.27172613    0.00163878
     atom    4 type  1   force =    -0.00092217    0.00149322   -0.00197890
     atom    5 type  1   force =    -0.00068805    0.00135139    0.00010763
     atom    6 type  1   force =    -0.33033683    0.57831735    0.00053090
     atom    7 type  1   force =     0.15667558   -0.27050472   -0.00005322
     atom    8 type  1   force =    -0.66621180   -0.00289278    0.00146395
     atom    9 type  1   force =     0.31320216   -0.00071699    0.00055386
     atom   10 type  1   force =    -0.33227060   -0.57599215   -0.00117265
     atom   11 type  1   force =     0.15712686    0.27146686    0.00138589
     atom   12 type  1   force =    -0.00090766    0.04193407    0.19463901
     atom   13 type  1   force =    -0.00024351   -0.01151839   -0.09182757
     atom   14 type  1   force =     0.03318393   -0.01878206    0.19581563
     atom   15 type  1   force =    -0.01193305    0.00730211   -0.09229416
     atom   16 type  1   force =    -0.00078387    0.00048805   -0.00016261
     atom   17 type  1   force =    -0.00054496    0.00015280    0.00185992
     atom   18 type  1   force =     0.03524869    0.02039377   -0.19690496
     atom   19 type  1   force =    -0.01089038   -0.00575575    0.09382213
     atom   20 type  1   force =     0.00025626    0.00096909   -0.00103092
     atom   21 type  1   force =     0.00057037    0.00085271    0.00107649
     atom   22 type  1   force =    -0.03561003   -0.01913206    0.19538894
     atom   23 type  1   force =     0.01085262    0.00691878   -0.09106264
     atom   24 type  1   force =     0.66562404    0.00264613   -0.00296333
     atom   25 type  1   force =    -0.31345819    0.00035176    0.00242793
     atom   26 type  1   force =    -0.03499879    0.02089235   -0.19791633
     atom   27 type  1   force =     0.01095753   -0.00556150    0.09425938
     atom   28 type  1   force =     0.00057453   -0.03882954   -0.19782273
     atom   29 type  1   force =     0.00017336    0.01367697    0.09282175
     atom   30 type  1   force =     0.33261624    0.57607144   -0.00121783
     atom   31 type  1   force =    -0.15564759   -0.27070347    0.00152760
     atom   32 type  2   force =     0.00143946   -0.34886061  -14.06074419
     atom   33 type  2   force =     0.00064136   -1.11042594  -14.01733508
     atom   34 type  2   force =    -0.30158296    0.17232139  -14.06011321
     atom   35 type  2   force =    -0.96811946    0.55691705  -14.01921801
     atom   36 type  2   force =    -0.11750270    0.11983688  -14.21726354
     atom   37 type  2   force =    -0.60650478    0.24638116  -14.62330963
     atom   38 type  2   force =     0.04512430   -0.15957715  -14.21804346
     atom   39 type  2   force =    -0.08854968   -0.64888006  -14.62270921
     atom   40 type  2   force =     0.41406719   -0.23941620  -13.90281092
     atom   41 type  2   force =     0.06500537   -0.03836716  -14.45339497
     atom   42 type  2   force =     0.30288377    0.17126287  -14.06114820
     atom   43 type  2   force =     0.96224870    0.55260012  -14.01692677
     atom   44 type  2   force =     0.00027588    0.47989824  -13.89922006
     atom   45 type  2   force =    -0.00025029    0.07588101  -14.45628976
     atom   46 type  2   force =     0.02159317    0.01427107  -14.33655431
     atom   47 type  2   force =    -0.06288418   -0.03532492  -14.56531178
     atom   48 type  2   force =    -0.00109926   -0.02586814  -14.33687165
     atom   49 type  2   force =    -0.00025889    0.07186791  -14.56551664
     atom   50 type  2   force =     0.16130617    0.03944463  -14.21882832
     atom   51 type  2   force =     0.51879288    0.40006566  -14.62326955
     atom   52 type  2   force =     0.11749717    0.11916314  -14.21787318
     atom   53 type  2   force =     0.60682714    0.24802116  -14.62312834
     atom   54 type  2   force =    -0.02227629    0.01344796  -14.33621238
     atom   55 type  2   force =     0.06285026   -0.03556572  -14.56591874
     atom   56 type  2   force =    -0.41481897   -0.24008265  -13.90018727
     atom   57 type  2   force =    -0.06503389   -0.03807900  -14.45644180
     atom   58 type  2   force =    -0.16223725    0.04038759  -14.21805917
     atom   59 type  2   force =    -0.51606185    0.40064340  -14.62382046
     atom   60 type  2   force =    -0.00002017    0.00034757  -14.29298855
     atom   61 type  2   force =     0.00074703   -0.00017653  -14.61095879
     atom   62 type  2   force =    -0.04424116   -0.16061307  -14.21789329
     atom   63 type  2   force =     0.08911685   -0.64783011  -14.62313066
     atom   64 type  2   force =    -0.96102059   -0.55791373   14.01413875
     atom   65 type  2   force =    -0.30034182   -0.17514203   14.06401857
     atom   66 type  2   force =    -0.06650326    0.03799937   14.45129642
     atom   67 type  2   force =    -0.41449732    0.23910953   13.90448862
     atom   68 type  2   force =     0.06223569    0.03709176   14.56308707
     atom   69 type  2   force =    -0.02234457   -0.01247909   14.33904390
     atom   70 type  2   force =     0.00166535   -0.07567678   14.45353681
     atom   71 type  2   force =     0.00047837   -0.47850185   13.90328225
     atom   72 type  2   force =     0.96910049   -0.56159875   14.01593015
     atom   73 type  2   force =     0.30061449   -0.17586464   14.06362016
     atom   74 type  2   force =     0.00076707    1.10902365   14.01340984
     atom   75 type  2   force =    -0.00061184    0.34685900   14.06400761
     atom   76 type  2   force =     0.08709724    0.65156440   14.62119807
     atom   77 type  2   force =    -0.04609220    0.16065812   14.22089124
     atom   78 type  2   force =     0.60401976   -0.24493730   14.62122119
     atom   79 type  2   force =     0.11548498   -0.11925095   14.22053734
     atom   80 type  2   force =     0.51469046   -0.40248237   14.62089678
     atom   81 type  2   force =     0.16115035   -0.04221808   14.21978568
     atom   82 type  2   force =     0.06668505    0.03623257   14.45353775
     atom   83 type  2   force =     0.41523829    0.23903658   13.90246398
     atom   84 type  2   force =    -0.08728311    0.64961023   14.62079038
     atom   85 type  2   force =     0.04547284    0.16092066   14.22050104
[...]
     atom   15 type  1   force =     0.00000628   -0.00000351   -0.00000219
     atom   16 type  1   force =     0.00000045   -0.00000169    0.00000350
     atom   17 type  1   force =     0.00000061   -0.00000189   -0.00000323
     atom   18 type  1   force =    -0.00000126    0.00000373    0.00000320
     atom   19 type  1   force =    -0.00000080    0.00000540   -0.00000363
     atom   20 type  1   force =    -0.00000184    0.00000089    0.00000362
     atom   21 type  1   force =    -0.00000179    0.00000108   -0.00000328
     atom   22 type  1   force =     0.00000043   -0.00000415    0.00000338
     atom   23 type  1   force =    -0.00000073   -0.00000604   -0.00000281
     atom   24 type  1   force =    -0.00001602   -0.00000283    0.00000473
     atom   25 type  1   force =    -0.00000915   -0.00000413   -0.00000512
     atom   26 type  1   force =    -0.00000220    0.00000114    0.00000365
     atom   27 type  1   force =    -0.00000432    0.00000233   -0.00000486
     atom   28 type  1   force =    -0.00000383   -0.00000149    0.00000353
     atom   29 type  1   force =    -0.00000509   -0.00000214   -0.00000367
     atom   30 type  1   force =    -0.00001213   -0.00001702    0.00000628
     atom   31 type  1   force =    -0.00000877   -0.00001128   -0.00000483
     atom   32 type  2   force =    -0.00000164   -0.00001565    0.00000332
     atom   33 type  2   force =    -0.00000257   -0.00003830   -0.00002224
     atom   34 type  2   force =    -0.00001011    0.00000715    0.00000324
     atom   35 type  2   force =    -0.00003211    0.00001920   -0.00002263
     atom   36 type  2   force =    -0.00000430    0.00000788    0.00000403
     atom   37 type  2   force =    -0.00000405    0.00000896   -0.00000441
     atom   38 type  2   force =     0.00000017   -0.00000843    0.00000460
     atom   39 type  2   force =     0.00000141   -0.00000893   -0.00000497
     atom   40 type  2   force =     0.00001100   -0.00000600    0.00000213
     atom   41 type  2   force =     0.00001657   -0.00000905   -0.00000554
     atom   42 type  2   force =     0.00001250    0.00001049    0.00000289
     atom   43 type  2   force =     0.00003207    0.00002200   -0.00002138
     atom   44 type  2   force =     0.00000468    0.00001699    0.00000301
     atom   45 type  2   force =     0.00000387    0.00002146   -0.00000563
     atom   46 type  2   force =     0.00000633   -0.00000060    0.00000761
     atom   47 type  2   force =     0.00000632    0.00000061   -0.00000560
     atom   48 type  2   force =     0.00000306   -0.00000514    0.00000774
     atom   49 type  2   force =     0.00000228   -0.00000579   -0.00000558
     atom   50 type  2   force =     0.00000616    0.00000447    0.00000495
     atom   51 type  2   force =     0.00000695    0.00000358   -0.00000477
     atom   52 type  2   force =     0.00000395    0.00001067    0.00000644
     atom   53 type  2   force =     0.00000400    0.00001047   -0.00000475
     atom   54 type  2   force =     0.00000117   -0.00000143    0.00000873
     atom   55 type  2   force =     0.00000030   -0.00000032   -0.00000577
     atom   56 type  2   force =    -0.00001217   -0.00001201    0.00000404
     atom   57 type  2   force =    -0.00001739   -0.00001400   -0.00000617
     atom   58 type  2   force =    -0.00000914    0.00000013    0.00000434
     atom   59 type  2   force =    -0.00000957   -0.00000086   -0.00000447
     atom   60 type  2   force =    -0.00000444    0.00000249    0.00000682
     atom   61 type  2   force =    -0.00000435    0.00000253   -0.00000478
     atom   62 type  2   force =    -0.00000774   -0.00001031    0.00000670
     atom   63 type  2   force =    -0.00000764   -0.00001021   -0.00000513
     atom   64 type  2   force =    -0.00003171   -0.00002026    0.00003185
     atom   65 type  2   force =    -0.00001474   -0.00001126   -0.00001409
     atom   66 type  2   force =    -0.00001253    0.00000778    0.00001379
     atom   67 type  2   force =    -0.00001117    0.00000656   -0.00000994
     atom   68 type  2   force =    -0.00000321    0.00000019    0.00001087
     atom   69 type  2   force =    -0.00000363    0.00000138   -0.00001251
     atom   70 type  2   force =    -0.00000380   -0.00001715    0.00001400
     atom   71 type  2   force =    -0.00000469   -0.00001775   -0.00001125
     atom   72 type  2   force =     0.00003144   -0.00001693    0.00003217
     atom   73 type  2   force =     0.00001401   -0.00000700   -0.00001386
     atom   74 type  2   force =     0.00000237    0.00003817    0.00003193
     atom   75 type  2   force =     0.00000377    0.00001947   -0.00001412
     atom   76 type  2   force =     0.00000313    0.00000790    0.00001071
     atom   77 type  2   force =     0.00000277    0.00001272   -0.00001157
     atom   78 type  2   force =     0.00000619   -0.00000574    0.00000995
     atom   79 type  2   force =     0.00000883   -0.00000698   -0.00001069
     atom   80 type  2   force =     0.00000786   -0.00000228    0.00001025
     atom   81 type  2   force =     0.00000991   -0.00000356   -0.00001007
     atom   82 type  2   force =     0.00001141    0.00001115    0.00001289
     atom   83 type  2   force =     0.00001198    0.00001234   -0.00001133
     atom   84 type  2   force =     0.00000350    0.00000967    0.00001079
     atom   85 type  2   force =     0.00000466    0.00001216   -0.00001257
     atom   86 type  2   force =     0.00000435   -0.00000310    0.00000965
     atom   87 type  2   force =     0.00000468   -0.00000262   -0.00001254
     atom   88 type  2   force =    -0.00000575   -0.00000616    0.00001068
     atom   89 type  2   force =    -0.00000968   -0.00000846   -0.00001120
     atom   90 type  2   force =    -0.00000206    0.00000253    0.00001067
     atom   91 type  2   force =    -0.00000332    0.00000273   -0.00001207
     atom   92 type  2   force =    -0.00000330    0.00000156    0.00001082
     atom   93 type  2   force =    -0.00000393    0.00000173   -0.00001370
     atom   94 type  2   force =    -0.00000680   -0.00000841    0.00001083
     atom   95 type  2   force =    -0.00000922   -0.00001105   -0.00001254
     atom   96 type  2   force =    -0.00000057    0.00000145    0.00001544

     Total force =     0.003990     Total SCF correction =     0.000173


     Computing stress (Cartesian axis) and pressure



     -----------------------------------------------
     Non-local corr. energy    =      46.32978393 Ry
     -----------------------------------------------

          total   stress  (Ry/bohr**3)                   (kbar)     P=       -6.12
  -0.00004128   0.00000011  -0.00000013           -6.07        0.02       -0.02
   0.00000011  -0.00004112   0.00000009            0.02       -6.05        0.01
  -0.00000013   0.00000009  -0.00004245           -0.02        0.01       -6.24

     kinetic stress (kbar)  14921.20      0.04     -0.06
                                0.04  14921.26      0.04
                               -0.06      0.04  14930.05

     local   stress (kbar)  -7474.31      0.81     -1.28
                                0.81  -7473.14      0.90
                               -1.28      0.90   1400.52

     nonloc. stress (kbar)   -969.97      0.03     -0.05
                                0.03   -969.92      0.04
                               -0.05      0.04   -977.48

     hartree stress (kbar)  12077.85     -0.27      0.48
                               -0.27  12077.45     -0.34
                                0.48     -0.34   8074.39

     exc-cor stress (kbar)   6987.89     -0.00     -0.00
                               -0.00   6987.89      0.00
                               -0.00      0.00   6986.81

     corecor stress (kbar) -11365.60     -0.00      0.00
                               -0.00 -11365.60     -0.00
                                0.00     -0.00 -11365.50

     ewald   stress (kbar) -14267.02     -0.59      0.89
                               -0.59 -14267.87     -0.63
                                0.89     -0.63 -19140.22

     hubbard stress (kbar)      0.00      0.00      0.00
                                0.00      0.00      0.00
                                0.00      0.00      0.00

     DFT-D   stress (kbar)      0.00      0.00      0.00
                                0.00      0.00      0.00
                                0.00      0.00      0.00

     XDM     stress (kbar)      0.00      0.00      0.00
                                0.00      0.00      0.00
                                0.00      0.00      0.00

     dft-nl  stress (kbar)     83.88      0.00     -0.00
                                0.00     83.88      0.00
                               -0.00      0.00     85.18

     TS-vdW  stress (kbar)      0.00      0.00      0.00
                                0.00      0.00      0.00
                                0.00      0.00      0.00

     MDB     stress (kbar)      0.00      0.00      0.00
                                0.00      0.00      0.00
                                0.00      0.00      0.00

     3D-RISM stress (kbar)      0.00      0.00      0.00
                                0.00      0.00      0.00
                                0.00      0.00      0.00

     Energy error            =      7.5E-05 Ry
     Gradient error          =      8.1E-04 Ry/Bohr

     bfgs converged in  14 scf cycles and  13 bfgs steps
     (criteria: energy <  1.0E-04 Ry, force <  1.0E-03 Ry/Bohr)

     End of BFGS Geometry Optimization

     Final energy             =  -64423.8107570289 Ry

     File ./PbI2.bfgs deleted, as requested
Begin final coordinates

ATOMIC_POSITIONS (angstrom)
Pb            2.3553813990        4.0791347392        7.3769984904
Pb           -0.0570164009        8.2587389651       14.7548502028
Pb           -0.0011391372        8.1607756940        7.3768680303
Pb           -2.3552591164       12.2382690559       14.7539818731
Pb           -2.3552997276       12.2382804552        7.3768170090
Pb           -4.6535387298       16.2177378289       14.7532337517
Pb           -4.7094814339       16.3156817595        7.3769780206
Pb            7.1812914771        4.0796349492       14.7535705752
Pb            7.0684284711        4.0792071572        7.3771730245
Pb            4.7679560418        8.2579334739       14.7542562407
Pb            4.7120251688        8.1608993102        7.3770425447
Pb            2.3555877526       12.2624272041       14.7263502707
Pb            2.3554470931       12.2354533598        7.3602944695
Pb            0.0210056280       16.3056605953       14.7264192217
Pb           -0.0022880109       16.3191770621        7.3603955782
Pb           11.7766991909        4.0790868971       14.7543509409
Pb           11.7766756124        4.0791539671        7.3771838513
Pb            9.4422099819        8.1709672178       14.7819772022
Pb            9.4188801835        8.1573369368        7.3937008085
Pb            7.0660506328       12.2382643239       14.7541697736
Pb            7.0660366019       12.2382662883        7.3769781328
Pb            4.6899063260       16.3054906211       14.7265122498
Pb            4.7132006338       16.3191766446        7.3603989565
Pb           16.3720886407        4.0786003241       14.7549380292
Pb           16.4849145709        4.0791056583        7.3770019639
Pb           14.1110827417        8.1708012742       14.7819108097
Pb           14.1343249924        8.1573513230        7.3935803643
Pb           11.7764855358       12.2141079238       14.7818101711
Pb           11.7766042312       12.2411395443        7.3935267701
Pb            9.3641866173       16.2185156501       14.7540202062
Pb            9.4201059063       16.3155706334        7.3769863409
I             2.3553134344        1.3534039746        5.4982736793
I             2.3553764449        1.4576751348       12.8364663014
I            -0.0053397204        5.4420838940        5.4984011186
I             0.0905029684        5.3867077753       12.8385837601
I            -2.3650949003        9.5128396807        5.4983174657
I            -2.3349216267        9.5166570028       12.8569520625
I            -4.7205203476       13.5925924599        5.4982173463
I            -4.7020144053       13.6166528843       12.8567493471
I             7.0464657190        1.3709165328        5.4487155825
I             7.0671529171        1.3590094914       12.8855610376
I             4.7161106623        5.4421423059        5.4984377589
I             4.6252480500        5.3895556797       12.8367256147
I             2.3554439215        9.4962159757        5.4490160753
I             2.3553993988        9.5200031917       12.8854896775
I            -0.0025292341       13.5966958115        5.4814350761
I             0.0017319767       13.5991010583       12.8678736529
I            11.7767105651        1.3626776429        5.4815994454
I            11.7767258282        1.3577499303       12.8680883022
I             9.4213016324        5.4504062919        5.4985709668
I             9.4095468009        5.4222394020       12.8570843264
I             7.0758366200        9.5128999581        5.4984016080
I             7.0458426168        9.5167815212       12.8570681231
I             4.7133798577       13.5966819854        5.4815187039
I             4.7090992850       13.5991225685       12.8679609344
I            16.5067185555        1.3707636148        5.4489768415
I            16.4860448394        1.3589010713       12.8856400583
I            14.1320110150        5.4503477207        5.4985383559
I            14.1437924410        5.4222491998       12.8571634078
I            11.7765859649        9.5185765783        5.5171430091
I            11.7766307433        9.5185746337       12.8696099826
I             9.4311393266       13.5925586745        5.4982743757
I             9.4127396189       13.6164316975       12.8569388972
I             0.0856411218        2.7685932033        1.9175748197
I            -0.0052579340        2.7162683916        9.2556192085
I            -2.3564306439        6.7995899887        1.8685877937
I            -2.3357564231        6.7876772066        9.3052704523
I            -4.7122626063       10.8775284527        1.8859923228
I            -4.7080597800       10.8800021418        9.2722476270
I            -7.0658450826       14.9565357660        1.8685150356
I            -7.0659413288       14.9802563467        9.3049790062
I             4.6203701252        2.7713887063        1.9156923682
I             4.7159926300        2.7162958501        9.2555532756
I             2.3554238633        6.7007264432        1.9177902019
I             2.3553874196        6.8050924428        9.2555775665
I            -0.0086621928       10.8597752411        1.8970460833
I             0.0097886090       10.8839983819        9.2553999816
I            -2.3756964620       14.9597778892        1.8969597056
I            -2.3456697302       14.9637076145        9.2554256650
I             9.4095559276        2.7360731536        1.8972063462
I             9.4212048049        2.7081743368        9.2556946480
I             7.0673471597        6.7996163142        1.8686010940
I             7.0466537488        6.7877956018        9.3051158565
I             4.7194305384       10.8599736870        1.8970711577
I             4.7009783982       10.8840112069        9.2555836310
I             2.3553867155       14.9579660602        1.8845385741
I             2.3553976090       14.9580187087        9.2368780142
I            14.1438682121        2.7361546892        1.8973571441
I            14.1321186532        2.7081360594        9.2557084118
I            11.7766693424        6.8008885818        1.8862122309
I            11.7766282864        6.7960358358        9.2724994470
I             9.4230858156       10.8774929255        1.8861260971
I             9.4187810654       10.8799770495        9.2723268148
I             7.0863948859       14.9596871612        1.8971410738
I             7.0563715499       14.9636628786        9.2556098585
I             2.3554404100        4.0791847098       14.7544050926
End final coordinates



     Writing all to output data dir ./PbI2.save/
 
     init_run     :     14.41s CPU     15.23s WALL (       1 calls)
     electrons    :  45438.38s CPU  46265.92s WALL (      14 calls)
     update_pot   :     22.98s CPU     23.22s WALL (      13 calls)
     forces       :    104.27s CPU    108.41s WALL (      14 calls)
     stress       :   1554.31s CPU   1575.78s WALL (      14 calls)

     Called by init_run:
     wfcinit      :      9.90s CPU     10.25s WALL (       1 calls)
     wfcinit:atom :      0.03s CPU      0.06s WALL (       1 calls)
     wfcinit:wfcr :      9.46s CPU      9.66s WALL (       1 calls)
     potinit      :      1.33s CPU      1.55s WALL (       1 calls)
     hinit0       :      0.79s CPU      0.85s WALL (       1 calls)

     Called by electrons:
     c_bands      :  44376.39s CPU  45141.43s WALL (     226 calls)
     sum_band     :    726.21s CPU    760.17s WALL (     226 calls)
     v_of_rho     :    177.26s CPU    179.60s WALL (     233 calls)
     v_h          :      2.09s CPU      2.11s WALL (     233 calls)
     v_xc         :    195.55s CPU    198.13s WALL (     261 calls)
     newd         :     71.57s CPU     94.75s WALL (     233 calls)
     PAW_pot      :     68.63s CPU     69.40s WALL (     246 calls)
     mix_rho      :      7.89s CPU      8.08s WALL (     226 calls)
     vdW_kernel   :      0.24s CPU      0.25s WALL (       1 calls)

     Called by c_bands:
     init_us_2    :     19.05s CPU     19.44s WALL (     466 calls)
     init_us_2:cp :     19.04s CPU     19.44s WALL (     466 calls)
     cegterg      :  44291.89s CPU  44925.68s WALL (     227 calls)

     Called by sum_band:
     sum_band:wei :      0.18s CPU      0.20s WALL (     226 calls)
     sum_band:loo :    640.70s CPU    645.90s WALL (     226 calls)
     sum_band:buf :      0.00s CPU      0.00s WALL (     226 calls)
     sum_band:ini :     16.12s CPU     16.36s WALL (     226 calls)
     sum_band:cal :    288.50s CPU    290.83s WALL (     239 calls)
     sum_band:bec :      4.31s CPU      4.38s WALL (     239 calls)
     addusdens    :     73.66s CPU    102.02s WALL (     226 calls)
     addusd:skk   :      7.15s CPU      7.30s WALL (     452 calls)
     addusd:dgemm :     39.16s CPU     66.75s WALL (     452 calls)
     addusd:qvan2 :     25.80s CPU     26.08s WALL (     452 calls)

     Called by *egterg:
     cdiaghg      :  36660.13s CPU  36946.35s WALL (    3968 calls)
     cegterg:over :   1531.88s CPU   1576.28s WALL (    3762 calls)
     cegterg:upda :    900.58s CPU    916.82s WALL (    3762 calls)
     cegterg:last :    362.84s CPU    365.78s WALL (     228 calls)
     h_psi        :   3612.27s CPU   3659.55s WALL (    3990 calls)
     s_psi        :    751.77s CPU    760.18s WALL (    3990 calls)
     g_psi        :      3.43s CPU      3.48s WALL (    3762 calls)

     Called by h_psi:
     h_psi:calbec :    856.88s CPU    863.87s WALL (    3990 calls)
     vloc_psi     :   1985.53s CPU   2005.17s WALL (    3990 calls)
     add_vuspsi   :    751.64s CPU    757.90s WALL (    3990 calls)

     General routines
     calbec       :   1232.83s CPU   1242.94s WALL (    4299 calls)
     fft          :    130.89s CPU    132.32s WALL (   17037 calls)
     ffts         :      3.86s CPU      3.93s WALL (     459 calls)
     fftw         :   2207.51s CPU   2227.93s WALL ( 1333344 calls)
     interpolate  :      4.32s CPU      4.39s WALL (     233 calls)
 
     Parallel routines

     PAW routines
     PAW_pot      :     68.63s CPU     69.40s WALL (     246 calls)
 
     PWSCF        :     13h 6m CPU     13h20m WALL

 
   This run was terminated on:  13:49:31  16Feb2024            

=------------------------------------------------------------------------------=
   JOB DONE.
=------------------------------------------------------------------------------=
