
     Program PWSCF v.7.1 starts on  9Mar2024 at 10: 5:10 

     This program is part of the open-source Quantum ESPRESSO suite
     for quantum simulation of materials; please cite
         "P. Giannozzi et al., J. Phys.:Condens. Matter 21 395502 (2009);
         "P. Giannozzi et al., J. Phys.:Condens. Matter 29 465901 (2017);
         "P. Giannozzi et al., J. Chem. Phys. 152 154105 (2020);
          URL http://www.quantum-espresso.org", 
     in publications or presentations arising from this work. More details at
     http://www.quantum-espresso.org/quote

     Parallel version (MPI & OpenMP), running on     256 processor cores
     Number of MPI processes:               256
     Threads/MPI process:                     1

     MPI processes distributed on     2 nodes
     1797600 MiB available memory on the printing compute node when the environment starts
 
     Reading input from espresso.pwi
Warning: card &CELL ignored
Warning: card    CELL_DYNAMICS    = 'BFGS' ignored
Warning: card / ignored

     Current dimensions of program PWSCF are:
     Max number of different atomic species (ntypx) = 10
     Max number of k-points (npk) =  40000
     Max angular momentum in pseudopotentials (lmaxx) =  4
     file Ga.pbe-dn-kjpaw_psl.1.0.0.UPF: wavefunction(s)  4S renormalized
     file N.pbe-n-kjpaw_psl.1.0.0.UPF: wavefunction(s)  2S renormalized

     **************************************************************************
     Initializing libbeef V0.1.2 with the BEEF-vdW functional.
     Citation: Wellendorff et al., PRB 85, 235149 (2012).
     **************************************************************************


     IMPORTANT: XC functional enforced from input :
     Exchange-correlation= BEEF-VDW
                           (   1   4  43  14   2   0   0)
     Any further DFT definition will be discarded
     Please, verify this is what you really want

 
     K-points division:     npool     =       4
     R & G space division:  proc/nbgrp/npool/nimage =      64
     Subspace diagonalization in iterative solution of the eigenvalue problem:
     a serial algorithm will be used

 
     Parallelization info
     --------------------
     sticks:   dense  smooth     PW     G-vecs:    dense   smooth      PW
     Min         354     283     73                42160    30167    3987
     Max         356     285     74                42163    30170    3996
     Sum       22693   18145   4705              2698283  1930731  255309
 
     Using Slab Decomposition
 


     bravais-lattice index     =            4
     lattice parameter (alat)  =      30.6565  a.u.
     unit-cell volume          =   24400.9461 (a.u.)^3
     number of atoms/cell      =          299
     number of atomic types    =            2
     number of electrons       =      2695.00
     number of Kohn-Sham states=         1618
     kinetic-energy cutoff     =      70.0000  Ry
     charge density cutoff     =     350.0000  Ry
     scf convergence threshold =      1.0E-07
     mixing beta               =       0.7000
     number of iterations used =            8  plain     mixing
     energy convergence thresh.=      1.0E-04
     force convergence thresh. =      1.0E-03
     Exchange-correlation= BEEF-VDW
                           (   1   4  43  14   2   0   0)
     nstep                     =           50


     celldm(1)=  30.656540  celldm(2)=   0.000000  celldm(3)=   0.977927
     celldm(4)=   0.000000  celldm(5)=   0.000000  celldm(6)=   0.000000

     crystal axes: (cart. coord. in units of alat)
               a(1) = (   1.000000   0.000000   0.000000 )  
               a(2) = (  -0.500000   0.866025   0.000000 )  
               a(3) = (   0.000000   0.000000   0.977927 )  

     reciprocal axes: (cart. coord. in units 2 pi/alat)
               b(1) = (  1.000000  0.577350 -0.000000 )  
               b(2) = (  0.000000  1.154701  0.000000 )  
               b(3) = (  0.000000 -0.000000  1.022571 )  


     PseudoPot. # 1 for Ga read from file:
     /trace/group/acmegroup/atimmins/packages/espresso/pseudo/psl_1.0.0/pslibrary.1.0.0/pbe/PSEUDOPOTENTIALS/Ga.pbe-dn-kjpaw_psl.1.0.0.UPF
     MD5 check sum: cd2a01e492f15b435d17032472d8505c
     Pseudo is Projector augmented-wave + core cor, Zval = 13.0
     Generated using 'atomic' code by A. Dal Corso  v.7.1
     Shape of augmentation charge: PSQ
     Using radial grid of 1205 points,  6 beta functions with: 
                l(1) =   0
                l(2) =   0
                l(3) =   1
                l(4) =   1
                l(5) =   2
                l(6) =   2
     Q(r) pseudized with 0 coefficients 


     PseudoPot. # 2 for N  read from file:
     /trace/group/acmegroup/atimmins/packages/espresso/pseudo/psl_1.0.0/pslibrary.1.0.0/pbe/PSEUDOPOTENTIALS/N.pbe-n-kjpaw_psl.1.0.0.UPF
     MD5 check sum: f77f775694dac7e2c3fe1c82443d1a16
     Pseudo is Projector augmented-wave + core cor, Zval =  5.0
     Generated using 'atomic' code by A. Dal Corso  v.7.1
     Shape of augmentation charge: PSQ
     Using radial grid of 1085 points,  4 beta functions with: 
                l(1) =   0
                l(2) =   0
                l(3) =   1
                l(4) =   1
     Q(r) pseudized with 0 coefficients 


     atomic species   valence    mass     pseudopotential
        Ga            13.00    69.72300     Ga( 1.00)
        N              5.00    14.00700     N ( 1.00)

      2 Sym. Ops. (no inversion) found


                                    s                        frac. trans.

      isym =  1     identity                                     

 cryst.   s( 1) = (     1          0          0      )
                  (     0          1          0      )
                  (     0          0          1      )

 cart.    s( 1) = (  1.0000000  0.0000000  0.0000000 )
                  (  0.0000000  1.0000000  0.0000000 )
                  (  0.0000000  0.0000000  1.0000000 )


      isym =  2     inv. 180 deg rotation - cryst. axis [0,1,0]  

 cryst.   s( 2) = (     1          1          0      )
                  (     0         -1          0      )
                  (     0          0          1      )

 cart.    s( 2) = (  0.5000000  0.8660254  0.0000000 )
                  (  0.8660254 -0.5000000  0.0000000 )
                  (  0.0000000  0.0000000  1.0000000 )


     point group C_s (m)    
     there are  2 classes
     the character table:

       E     s    
A'     1.00  1.00
A''    1.00 -1.00

     the symmetry operations in each class and the name of the first element:

     E        1
          identity                                               
     s        2
          inv. 180 deg rotation - cryst. axis [0,1,0]            

   Cartesian axes

     site n.     atom                  positions (alat units)
         1           Ga  tau(   1) = (   0.1000001   0.0577350   0.1627148  )
         2           Ga  tau(   2) = (   0.1000001   0.0577350   0.4886906  )
         3           Ga  tau(   3) = (   0.1000001   0.0577350   0.8146665  )
         4           Ga  tau(   4) = (   0.0000001   0.2309401   0.1627148  )
         5           Ga  tau(   5) = (   0.0000001   0.2309401   0.4886906  )
         6           Ga  tau(   6) = (   0.0000001   0.2309401   0.8146665  )
         7           Ga  tau(   7) = (  -0.0999999   0.4041451   0.1627148  )
         8           Ga  tau(   8) = (  -0.0999999   0.4041451   0.4886906  )
         9           Ga  tau(   9) = (  -0.0999999   0.4041451   0.8146665  )
        10           Ga  tau(  10) = (  -0.1999999   0.5773502   0.1627148  )
        11           Ga  tau(  11) = (  -0.1999999   0.5773502   0.4886906  )
        12           Ga  tau(  12) = (  -0.1999999   0.5773502   0.8146665  )
        13           Ga  tau(  13) = (  -0.2999999   0.7505553   0.1627148  )
        14           Ga  tau(  14) = (  -0.2999999   0.7505553   0.4886906  )
        15           Ga  tau(  15) = (  -0.2999999   0.7505553   0.8146665  )
        16           Ga  tau(  16) = (   0.3000001   0.0577350   0.1627148  )
        17           Ga  tau(  17) = (   0.3000001   0.0577350   0.4886906  )
        18           Ga  tau(  18) = (   0.3000001   0.0577350   0.8146665  )
        19           Ga  tau(  19) = (   0.2000001   0.2309401   0.1627148  )
        20           Ga  tau(  20) = (   0.2000001   0.2309401   0.4886906  )
        21           Ga  tau(  21) = (   0.2000001   0.2309401   0.8146665  )
        22           Ga  tau(  22) = (   0.1000001   0.4041451   0.1627148  )
        23           Ga  tau(  23) = (   0.1000001   0.4041451   0.4886906  )
        24           Ga  tau(  24) = (   0.1000001   0.4041451   0.8146665  )
        25           Ga  tau(  25) = (   0.0000001   0.5773502   0.1627148  )
        26           Ga  tau(  26) = (   0.0000001   0.5773502   0.4886906  )
        27           Ga  tau(  27) = (   0.0000001   0.5773502   0.8146665  )
        28           Ga  tau(  28) = (  -0.0999999   0.7505553   0.1627148  )
        29           Ga  tau(  29) = (  -0.0999999   0.7505553   0.4886906  )
        30           Ga  tau(  30) = (  -0.0999999   0.7505553   0.8146665  )
        31           Ga  tau(  31) = (   0.5000001   0.0577350   0.1627148  )
        32           Ga  tau(  32) = (   0.5000001   0.0577350   0.4886906  )
        33           Ga  tau(  33) = (   0.5000001   0.0577350   0.8146665  )
        34           Ga  tau(  34) = (   0.4000001   0.2309401   0.1627148  )
        35           Ga  tau(  35) = (   0.4000001   0.2309401   0.4886906  )
        36           Ga  tau(  36) = (   0.4000001   0.2309401   0.8146665  )
        37           Ga  tau(  37) = (   0.3000001   0.4041451   0.1627148  )
        38           Ga  tau(  38) = (   0.3000001   0.4041451   0.4886906  )
        39           Ga  tau(  39) = (   0.3000001   0.4041451   0.8146665  )
        40           Ga  tau(  40) = (   0.2000001   0.5773502   0.1627148  )
        41           Ga  tau(  41) = (   0.2000001   0.5773502   0.4886906  )
        42           Ga  tau(  42) = (   0.2000001   0.5773502   0.8146665  )
        43           Ga  tau(  43) = (   0.1000001   0.7505553   0.1627148  )
        44           Ga  tau(  44) = (   0.1000001   0.7505553   0.4886906  )
        45           Ga  tau(  45) = (   0.1000001   0.7505553   0.8146665  )
        46           Ga  tau(  46) = (   0.7000001   0.0577350   0.1627148  )
        47           Ga  tau(  47) = (   0.7000001   0.0577350   0.4886906  )
        48           Ga  tau(  48) = (   0.7000001   0.0577350   0.8146665  )
        49           Ga  tau(  49) = (   0.6000001   0.2309401   0.1627148  )
        50           Ga  tau(  50) = (   0.6000001   0.2309401   0.4886906  )
        51           Ga  tau(  51) = (   0.6000001   0.2309401   0.8146665  )
        52           Ga  tau(  52) = (   0.5000001   0.4041451   0.1627148  )
        53           Ga  tau(  53) = (   0.5000001   0.4041451   0.4886906  )
        54           Ga  tau(  54) = (   0.5000001   0.4041451   0.8146665  )
        55           Ga  tau(  55) = (   0.4000001   0.5773502   0.1627148  )
        56           Ga  tau(  56) = (   0.4000001   0.5773502   0.4886906  )
        57           Ga  tau(  57) = (   0.4000001   0.5773502   0.8146665  )
        58           Ga  tau(  58) = (   0.3000001   0.7505553   0.1627148  )
        59           Ga  tau(  59) = (   0.3000001   0.7505553   0.4886906  )
        60           Ga  tau(  60) = (   0.3000001   0.7505553   0.8146665  )
        61           Ga  tau(  61) = (   0.9000001   0.0577350   0.1627148  )
        62           Ga  tau(  62) = (   0.9000001   0.0577350   0.4886906  )
        63           Ga  tau(  63) = (   0.9000001   0.0577350   0.8146665  )
        64           Ga  tau(  64) = (   0.8000001   0.2309401   0.1627148  )
        65           Ga  tau(  65) = (   0.8000001   0.2309401   0.4886906  )
        66           Ga  tau(  66) = (   0.8000001   0.2309401   0.8146665  )
        67           Ga  tau(  67) = (   0.7000001   0.4041451   0.1627148  )
        68           Ga  tau(  68) = (   0.7000001   0.4041451   0.4886906  )
        69           Ga  tau(  69) = (   0.7000001   0.4041451   0.8146665  )
        70           Ga  tau(  70) = (   0.6000001   0.5773502   0.1627148  )
        71           Ga  tau(  71) = (   0.6000001   0.5773502   0.4886906  )
        72           Ga  tau(  72) = (   0.6000001   0.5773502   0.8146665  )
        73           Ga  tau(  73) = (   0.5000001   0.7505553   0.1627148  )
        74           Ga  tau(  74) = (   0.5000001   0.7505553   0.4886906  )
        75           Ga  tau(  75) = (   0.5000001   0.7505553   0.8146665  )
        76           Ga  tau(  76) = (  -0.0000001   0.1154701   0.3257027  )
        77           Ga  tau(  77) = (  -0.0000001   0.1154701   0.6516786  )
        78           Ga  tau(  78) = (  -0.0000001   0.1154701   0.9776544  )
        79           Ga  tau(  79) = (  -0.1000001   0.2886752   0.3257027  )
        80           Ga  tau(  80) = (  -0.1000001   0.2886752   0.6516786  )
        81           Ga  tau(  81) = (  -0.1000001   0.2886752   0.9776544  )
        82           Ga  tau(  82) = (  -0.2000001   0.4618803   0.3257027  )
        83           Ga  tau(  83) = (  -0.2000001   0.4618803   0.6516786  )
        84           Ga  tau(  84) = (  -0.2000001   0.4618803   0.9776544  )
        85           Ga  tau(  85) = (  -0.3000001   0.6350854   0.3257027  )
        86           Ga  tau(  86) = (  -0.3000001   0.6350854   0.6516786  )
        87           Ga  tau(  87) = (  -0.3000001   0.6350854   0.9776544  )
        88           Ga  tau(  88) = (  -0.4000001   0.8082905   0.3257027  )
        89           Ga  tau(  89) = (  -0.4000001   0.8082905   0.6516786  )
        90           Ga  tau(  90) = (  -0.4000001   0.8082905   0.9776544  )
        91           Ga  tau(  91) = (   0.1999999   0.1154701   0.3257027  )
        92           Ga  tau(  92) = (   0.1999999   0.1154701   0.6516786  )
        93           Ga  tau(  93) = (   0.1999999   0.1154701   0.9776544  )
        94           Ga  tau(  94) = (   0.0999999   0.2886752   0.3257027  )
        95           Ga  tau(  95) = (   0.0999999   0.2886752   0.6516786  )
        96           Ga  tau(  96) = (   0.0999999   0.2886752   0.9776544  )
        97           Ga  tau(  97) = (  -0.0000001   0.4618803   0.3257027  )
        98           Ga  tau(  98) = (  -0.0000001   0.4618803   0.6516786  )
        99           Ga  tau(  99) = (  -0.0000001   0.4618803   0.9776544  )
       100           Ga  tau( 100) = (  -0.1000001   0.6350854   0.3257027  )
       101           Ga  tau( 101) = (  -0.1000001   0.6350854   0.6516786  )
       102           Ga  tau( 102) = (  -0.1000001   0.6350854   0.9776544  )
       103           Ga  tau( 103) = (  -0.2000001   0.8082905   0.3257027  )
       104           Ga  tau( 104) = (  -0.2000001   0.8082905   0.6516786  )
       105           Ga  tau( 105) = (  -0.2000001   0.8082905   0.9776544  )
       106           Ga  tau( 106) = (   0.3999999   0.1154701   0.3257027  )
       107           Ga  tau( 107) = (   0.3999999   0.1154701   0.6516786  )
       108           Ga  tau( 108) = (   0.3999999   0.1154701   0.9776544  )
       109           Ga  tau( 109) = (   0.2999999   0.2886752   0.3257027  )
       110           Ga  tau( 110) = (   0.2999999   0.2886752   0.6516786  )
       111           Ga  tau( 111) = (   0.2999999   0.2886752   0.9776544  )
       112           Ga  tau( 112) = (   0.1999999   0.4618803   0.3257027  )
       113           Ga  tau( 113) = (   0.1999999   0.4618803   0.6516786  )
       114           Ga  tau( 114) = (   0.1999999   0.4618803   0.9776544  )
       115           Ga  tau( 115) = (   0.0999999   0.6350854   0.3257027  )
       116           Ga  tau( 116) = (   0.0999999   0.6350854   0.6516786  )
       117           Ga  tau( 117) = (   0.0999999   0.6350854   0.9776544  )
       118           Ga  tau( 118) = (  -0.0000001   0.8082905   0.3257027  )
       119           Ga  tau( 119) = (  -0.0000001   0.8082905   0.6516786  )
       120           Ga  tau( 120) = (  -0.0000001   0.8082905   0.9776544  )
       121           Ga  tau( 121) = (   0.5999999   0.1154701   0.3257027  )
       122           Ga  tau( 122) = (   0.5999999   0.1154701   0.6516786  )
       123           Ga  tau( 123) = (   0.5999999   0.1154701   0.9776544  )
       124           Ga  tau( 124) = (   0.4999999   0.2886752   0.3257027  )
       125           Ga  tau( 125) = (   0.4999999   0.2886752   0.6516786  )
       126           Ga  tau( 126) = (   0.4999999   0.2886752   0.9776544  )
       127           Ga  tau( 127) = (   0.3999999   0.4618803   0.3257027  )
       128           Ga  tau( 128) = (   0.3999999   0.4618803   0.6516786  )
       129           Ga  tau( 129) = (   0.3999999   0.4618803   0.9776544  )
       130           Ga  tau( 130) = (   0.2999999   0.6350854   0.3257027  )
       131           Ga  tau( 131) = (   0.2999999   0.6350854   0.6516786  )
       132           Ga  tau( 132) = (   0.2999999   0.6350854   0.9776544  )
       133           Ga  tau( 133) = (   0.1999999   0.8082905   0.3257027  )
       134           Ga  tau( 134) = (   0.1999999   0.8082905   0.6516786  )
       135           Ga  tau( 135) = (   0.1999999   0.8082905   0.9776544  )
       136           Ga  tau( 136) = (   0.7999999   0.1154701   0.3257027  )
       137           Ga  tau( 137) = (   0.7999999   0.1154701   0.6516786  )
       138           Ga  tau( 138) = (   0.7999999   0.1154701   0.9776544  )
       139           Ga  tau( 139) = (   0.6999999   0.2886752   0.3257027  )
       140           Ga  tau( 140) = (   0.6999999   0.2886752   0.6516786  )
       141           Ga  tau( 141) = (   0.6999999   0.2886752   0.9776544  )
       142           Ga  tau( 142) = (   0.5999999   0.4618803   0.3257027  )
       143           Ga  tau( 143) = (   0.5999999   0.4618803   0.6516786  )
       144           Ga  tau( 144) = (   0.5999999   0.4618803   0.9776544  )
       145           Ga  tau( 145) = (   0.4999999   0.6350854   0.3257027  )
       146           Ga  tau( 146) = (   0.4999999   0.6350854   0.6516786  )
       147           Ga  tau( 147) = (   0.4999999   0.6350854   0.9776544  )
       148           Ga  tau( 148) = (   0.3999999   0.8082905   0.3257027  )
       149           Ga  tau( 149) = (   0.3999999   0.8082905   0.6516786  )
       150           Ga  tau( 150) = (   0.3999999   0.8082905   0.9776544  )
       151           N   tau( 151) = (   0.1000001   0.0577350   0.6114777  )
       152           N   tau( 152) = (   0.1000001   0.0577350   0.9374535  )
       153           N   tau( 153) = (   0.0000001   0.2309401   0.2855019  )
       154           N   tau( 154) = (   0.0000001   0.2309401   0.6114777  )
       155           N   tau( 155) = (   0.0000001   0.2309401   0.9374535  )
       156           N   tau( 156) = (  -0.0999999   0.4041451   0.2855019  )
       157           N   tau( 157) = (  -0.0999999   0.4041451   0.6114777  )
       158           N   tau( 158) = (  -0.0999999   0.4041451   0.9374535  )
       159           N   tau( 159) = (  -0.1999999   0.5773502   0.2855019  )
       160           N   tau( 160) = (  -0.1999999   0.5773502   0.6114777  )
       161           N   tau( 161) = (  -0.1999999   0.5773502   0.9374535  )
       162           N   tau( 162) = (  -0.2999999   0.7505553   0.2855019  )
       163           N   tau( 163) = (  -0.2999999   0.7505553   0.6114777  )
       164           N   tau( 164) = (  -0.2999999   0.7505553   0.9374535  )
       165           N   tau( 165) = (   0.3000001   0.0577350   0.2855019  )
       166           N   tau( 166) = (   0.3000001   0.0577350   0.6114777  )
       167           N   tau( 167) = (   0.3000001   0.0577350   0.9374535  )
       168           N   tau( 168) = (   0.2000001   0.2309401   0.2855019  )
       169           N   tau( 169) = (   0.2000001   0.2309401   0.6114777  )
       170           N   tau( 170) = (   0.2000001   0.2309401   0.9374535  )
       171           N   tau( 171) = (   0.1000001   0.4041451   0.2855019  )
       172           N   tau( 172) = (   0.1000001   0.4041451   0.6114777  )
       173           N   tau( 173) = (   0.1000001   0.4041451   0.9374535  )
       174           N   tau( 174) = (   0.0000001   0.5773502   0.2855019  )
       175           N   tau( 175) = (   0.0000001   0.5773502   0.6114777  )
       176           N   tau( 176) = (   0.0000001   0.5773502   0.9374535  )
       177           N   tau( 177) = (  -0.0999999   0.7505553   0.2855019  )
       178           N   tau( 178) = (  -0.0999999   0.7505553   0.6114777  )
       179           N   tau( 179) = (  -0.0999999   0.7505553   0.9374535  )
       180           N   tau( 180) = (   0.5000001   0.0577350   0.2855019  )
       181           N   tau( 181) = (   0.5000001   0.0577350   0.6114777  )
       182           N   tau( 182) = (   0.5000001   0.0577350   0.9374535  )
       183           N   tau( 183) = (   0.4000001   0.2309401   0.2855019  )
       184           N   tau( 184) = (   0.4000001   0.2309401   0.6114777  )
       185           N   tau( 185) = (   0.4000001   0.2309401   0.9374535  )
       186           N   tau( 186) = (   0.3000001   0.4041451   0.2855019  )
       187           N   tau( 187) = (   0.3000001   0.4041451   0.6114777  )
       188           N   tau( 188) = (   0.3000001   0.4041451   0.9374535  )
       189           N   tau( 189) = (   0.2000001   0.5773502   0.2855019  )
       190           N   tau( 190) = (   0.2000001   0.5773502   0.6114777  )
       191           N   tau( 191) = (   0.2000001   0.5773502   0.9374535  )
       192           N   tau( 192) = (   0.1000001   0.7505553   0.2855019  )
       193           N   tau( 193) = (   0.1000001   0.7505553   0.6114777  )
       194           N   tau( 194) = (   0.1000001   0.7505553   0.9374535  )
       195           N   tau( 195) = (   0.7000001   0.0577350   0.2855019  )
       196           N   tau( 196) = (   0.7000001   0.0577350   0.6114777  )
       197           N   tau( 197) = (   0.7000001   0.0577350   0.9374535  )
       198           N   tau( 198) = (   0.6000001   0.2309401   0.2855019  )
       199           N   tau( 199) = (   0.6000001   0.2309401   0.6114777  )
       200           N   tau( 200) = (   0.6000001   0.2309401   0.9374535  )
       201           N   tau( 201) = (   0.5000001   0.4041451   0.2855019  )
       202           N   tau( 202) = (   0.5000001   0.4041451   0.6114777  )
       203           N   tau( 203) = (   0.5000001   0.4041451   0.9374535  )
       204           N   tau( 204) = (   0.4000001   0.5773502   0.2855019  )
       205           N   tau( 205) = (   0.4000001   0.5773502   0.6114777  )
       206           N   tau( 206) = (   0.4000001   0.5773502   0.9374535  )
       207           N   tau( 207) = (   0.3000001   0.7505553   0.2855019  )
       208           N   tau( 208) = (   0.3000001   0.7505553   0.6114777  )
       209           N   tau( 209) = (   0.3000001   0.7505553   0.9374535  )
       210           N   tau( 210) = (   0.9000001   0.0577350   0.2855019  )
       211           N   tau( 211) = (   0.9000001   0.0577350   0.6114777  )
       212           N   tau( 212) = (   0.9000001   0.0577350   0.9374535  )
       213           N   tau( 213) = (   0.8000001   0.2309401   0.2855019  )
       214           N   tau( 214) = (   0.8000001   0.2309401   0.6114777  )
       215           N   tau( 215) = (   0.8000001   0.2309401   0.9374535  )
       216           N   tau( 216) = (   0.7000001   0.4041451   0.2855019  )
       217           N   tau( 217) = (   0.7000001   0.4041451   0.6114777  )
       218           N   tau( 218) = (   0.7000001   0.4041451   0.9374535  )
       219           N   tau( 219) = (   0.6000001   0.5773502   0.2855019  )
       220           N   tau( 220) = (   0.6000001   0.5773502   0.6114777  )
       221           N   tau( 221) = (   0.6000001   0.5773502   0.9374535  )
       222           N   tau( 222) = (   0.5000001   0.7505553   0.2855019  )
       223           N   tau( 223) = (   0.5000001   0.7505553   0.6114777  )
       224           N   tau( 224) = (   0.5000001   0.7505553   0.9374535  )
       225           N   tau( 225) = (  -0.0000001   0.1154701   0.1225140  )
       226           N   tau( 226) = (  -0.0000001   0.1154701   0.4484898  )
       227           N   tau( 227) = (  -0.0000001   0.1154701   0.7744656  )
       228           N   tau( 228) = (  -0.1000001   0.2886752   0.1225140  )
       229           N   tau( 229) = (  -0.1000001   0.2886752   0.4484898  )
       230           N   tau( 230) = (  -0.1000001   0.2886752   0.7744656  )
       231           N   tau( 231) = (  -0.2000001   0.4618803   0.1225140  )
       232           N   tau( 232) = (  -0.2000001   0.4618803   0.4484898  )
       233           N   tau( 233) = (  -0.2000001   0.4618803   0.7744656  )
       234           N   tau( 234) = (  -0.3000001   0.6350854   0.1225140  )
       235           N   tau( 235) = (  -0.3000001   0.6350854   0.4484898  )
       236           N   tau( 236) = (  -0.3000001   0.6350854   0.7744656  )
       237           N   tau( 237) = (  -0.4000001   0.8082905   0.1225140  )
       238           N   tau( 238) = (  -0.4000001   0.8082905   0.4484898  )
       239           N   tau( 239) = (  -0.4000001   0.8082905   0.7744656  )
       240           N   tau( 240) = (   0.1999999   0.1154701   0.1225140  )
       241           N   tau( 241) = (   0.1999999   0.1154701   0.4484898  )
       242           N   tau( 242) = (   0.1999999   0.1154701   0.7744656  )
       243           N   tau( 243) = (   0.0999999   0.2886752   0.1225140  )
       244           N   tau( 244) = (   0.0999999   0.2886752   0.4484898  )
       245           N   tau( 245) = (   0.0999999   0.2886752   0.7744656  )
       246           N   tau( 246) = (  -0.0000001   0.4618803   0.1225140  )
       247           N   tau( 247) = (  -0.0000001   0.4618803   0.4484898  )
       248           N   tau( 248) = (  -0.0000001   0.4618803   0.7744656  )
       249           N   tau( 249) = (  -0.1000001   0.6350854   0.1225140  )
       250           N   tau( 250) = (  -0.1000001   0.6350854   0.4484898  )
       251           N   tau( 251) = (  -0.1000001   0.6350854   0.7744656  )
       252           N   tau( 252) = (  -0.2000001   0.8082905   0.1225140  )
       253           N   tau( 253) = (  -0.2000001   0.8082905   0.4484898  )
       254           N   tau( 254) = (  -0.2000001   0.8082905   0.7744656  )
       255           N   tau( 255) = (   0.3999999   0.1154701   0.1225140  )
       256           N   tau( 256) = (   0.3999999   0.1154701   0.4484898  )
       257           N   tau( 257) = (   0.3999999   0.1154701   0.7744656  )
       258           N   tau( 258) = (   0.2999999   0.2886752   0.1225140  )
       259           N   tau( 259) = (   0.2999999   0.2886752   0.4484898  )
       260           N   tau( 260) = (   0.2999999   0.2886752   0.7744656  )
       261           N   tau( 261) = (   0.1999999   0.4618803   0.1225140  )
       262           N   tau( 262) = (   0.1999999   0.4618803   0.4484898  )
       263           N   tau( 263) = (   0.1999999   0.4618803   0.7744656  )
       264           N   tau( 264) = (   0.0999999   0.6350854   0.1225140  )
       265           N   tau( 265) = (   0.0999999   0.6350854   0.4484898  )
       266           N   tau( 266) = (   0.0999999   0.6350854   0.7744656  )
       267           N   tau( 267) = (  -0.0000001   0.8082905   0.1225140  )
       268           N   tau( 268) = (  -0.0000001   0.8082905   0.4484898  )
       269           N   tau( 269) = (  -0.0000001   0.8082905   0.7744656  )
       270           N   tau( 270) = (   0.5999999   0.1154701   0.1225140  )
       271           N   tau( 271) = (   0.5999999   0.1154701   0.4484898  )
       272           N   tau( 272) = (   0.5999999   0.1154701   0.7744656  )
       273           N   tau( 273) = (   0.4999999   0.2886752   0.1225140  )
       274           N   tau( 274) = (   0.4999999   0.2886752   0.4484898  )
       275           N   tau( 275) = (   0.4999999   0.2886752   0.7744656  )
       276           N   tau( 276) = (   0.3999999   0.4618803   0.1225140  )
       277           N   tau( 277) = (   0.3999999   0.4618803   0.4484898  )
       278           N   tau( 278) = (   0.3999999   0.4618803   0.7744656  )
       279           N   tau( 279) = (   0.2999999   0.6350854   0.1225140  )
       280           N   tau( 280) = (   0.2999999   0.6350854   0.4484898  )
       281           N   tau( 281) = (   0.2999999   0.6350854   0.7744656  )
       282           N   tau( 282) = (   0.1999999   0.8082905   0.1225140  )
       283           N   tau( 283) = (   0.1999999   0.8082905   0.4484898  )
       284           N   tau( 284) = (   0.1999999   0.8082905   0.7744656  )
       285           N   tau( 285) = (   0.7999999   0.1154701   0.1225140  )
       286           N   tau( 286) = (   0.7999999   0.1154701   0.4484898  )
       287           N   tau( 287) = (   0.7999999   0.1154701   0.7744656  )
       288           N   tau( 288) = (   0.6999999   0.2886752   0.1225140  )
       289           N   tau( 289) = (   0.6999999   0.2886752   0.4484898  )
       290           N   tau( 290) = (   0.6999999   0.2886752   0.7744656  )
       291           N   tau( 291) = (   0.5999999   0.4618803   0.1225140  )
       292           N   tau( 292) = (   0.5999999   0.4618803   0.4484898  )
       293           N   tau( 293) = (   0.5999999   0.4618803   0.7744656  )
       294           N   tau( 294) = (   0.4999999   0.6350854   0.1225140  )
       295           N   tau( 295) = (   0.4999999   0.6350854   0.4484898  )
       296           N   tau( 296) = (   0.4999999   0.6350854   0.7744656  )
       297           N   tau( 297) = (   0.3999999   0.8082905   0.1225140  )
       298           N   tau( 298) = (   0.3999999   0.8082905   0.4484898  )
       299           N   tau( 299) = (   0.3999999   0.8082905   0.7744656  )

   Crystallographic axes

     site n.     atom                  positions (cryst. coord.)
         1           Ga  tau(   1) = (  0.1333334  0.0666666  0.1663874  )
         2           Ga  tau(   2) = (  0.1333334  0.0666666  0.4997208  )
         3           Ga  tau(   3) = (  0.1333334  0.0666666  0.8330541  )
         4           Ga  tau(   4) = (  0.1333334  0.2666666  0.1663874  )
         5           Ga  tau(   5) = (  0.1333334  0.2666666  0.4997208  )
         6           Ga  tau(   6) = (  0.1333334  0.2666666  0.8330541  )
         7           Ga  tau(   7) = (  0.1333334  0.4666666  0.1663874  )
         8           Ga  tau(   8) = (  0.1333334  0.4666666  0.4997208  )
         9           Ga  tau(   9) = (  0.1333334  0.4666666  0.8330541  )
        10           Ga  tau(  10) = (  0.1333334  0.6666666  0.1663874  )
        11           Ga  tau(  11) = (  0.1333334  0.6666666  0.4997208  )
        12           Ga  tau(  12) = (  0.1333334  0.6666666  0.8330541  )
        13           Ga  tau(  13) = (  0.1333334  0.8666666  0.1663874  )
        14           Ga  tau(  14) = (  0.1333334  0.8666666  0.4997208  )
        15           Ga  tau(  15) = (  0.1333334  0.8666666  0.8330541  )
        16           Ga  tau(  16) = (  0.3333334  0.0666666  0.1663874  )
        17           Ga  tau(  17) = (  0.3333334  0.0666666  0.4997208  )
        18           Ga  tau(  18) = (  0.3333334  0.0666666  0.8330541  )
        19           Ga  tau(  19) = (  0.3333334  0.2666666  0.1663874  )
        20           Ga  tau(  20) = (  0.3333334  0.2666666  0.4997208  )
        21           Ga  tau(  21) = (  0.3333334  0.2666666  0.8330541  )
        22           Ga  tau(  22) = (  0.3333334  0.4666666  0.1663874  )
        23           Ga  tau(  23) = (  0.3333334  0.4666666  0.4997208  )
        24           Ga  tau(  24) = (  0.3333334  0.4666666  0.8330541  )
        25           Ga  tau(  25) = (  0.3333334  0.6666666  0.1663874  )
        26           Ga  tau(  26) = (  0.3333334  0.6666666  0.4997208  )
        27           Ga  tau(  27) = (  0.3333334  0.6666666  0.8330541  )
        28           Ga  tau(  28) = (  0.3333334  0.8666666  0.1663874  )
        29           Ga  tau(  29) = (  0.3333334  0.8666666  0.4997208  )
        30           Ga  tau(  30) = (  0.3333334  0.8666666  0.8330541  )
        31           Ga  tau(  31) = (  0.5333334  0.0666666  0.1663874  )
        32           Ga  tau(  32) = (  0.5333334  0.0666666  0.4997208  )
        33           Ga  tau(  33) = (  0.5333334  0.0666666  0.8330541  )
        34           Ga  tau(  34) = (  0.5333334  0.2666666  0.1663874  )
        35           Ga  tau(  35) = (  0.5333334  0.2666666  0.4997208  )
        36           Ga  tau(  36) = (  0.5333334  0.2666666  0.8330541  )
        37           Ga  tau(  37) = (  0.5333334  0.4666666  0.1663874  )
        38           Ga  tau(  38) = (  0.5333334  0.4666666  0.4997208  )
        39           Ga  tau(  39) = (  0.5333334  0.4666666  0.8330541  )
        40           Ga  tau(  40) = (  0.5333334  0.6666666  0.1663874  )
        41           Ga  tau(  41) = (  0.5333334  0.6666666  0.4997208  )
        42           Ga  tau(  42) = (  0.5333334  0.6666666  0.8330541  )
        43           Ga  tau(  43) = (  0.5333334  0.8666666  0.1663874  )
        44           Ga  tau(  44) = (  0.5333334  0.8666666  0.4997208  )
        45           Ga  tau(  45) = (  0.5333334  0.8666666  0.8330541  )
        46           Ga  tau(  46) = (  0.7333334  0.0666666  0.1663874  )
        47           Ga  tau(  47) = (  0.7333334  0.0666666  0.4997208  )
        48           Ga  tau(  48) = (  0.7333334  0.0666666  0.8330541  )
        49           Ga  tau(  49) = (  0.7333334  0.2666666  0.1663874  )
        50           Ga  tau(  50) = (  0.7333334  0.2666666  0.4997208  )
        51           Ga  tau(  51) = (  0.7333334  0.2666666  0.8330541  )
        52           Ga  tau(  52) = (  0.7333334  0.4666666  0.1663874  )
        53           Ga  tau(  53) = (  0.7333334  0.4666666  0.4997208  )
        54           Ga  tau(  54) = (  0.7333334  0.4666666  0.8330541  )
        55           Ga  tau(  55) = (  0.7333334  0.6666666  0.1663874  )
        56           Ga  tau(  56) = (  0.7333334  0.6666666  0.4997208  )
        57           Ga  tau(  57) = (  0.7333334  0.6666666  0.8330541  )
        58           Ga  tau(  58) = (  0.7333334  0.8666666  0.1663874  )
        59           Ga  tau(  59) = (  0.7333334  0.8666666  0.4997208  )
        60           Ga  tau(  60) = (  0.7333334  0.8666666  0.8330541  )
        61           Ga  tau(  61) = (  0.9333334  0.0666666  0.1663874  )
        62           Ga  tau(  62) = (  0.9333334  0.0666666  0.4997208  )
        63           Ga  tau(  63) = (  0.9333334  0.0666666  0.8330541  )
        64           Ga  tau(  64) = (  0.9333334  0.2666666  0.1663874  )
        65           Ga  tau(  65) = (  0.9333334  0.2666666  0.4997208  )
        66           Ga  tau(  66) = (  0.9333334  0.2666666  0.8330541  )
        67           Ga  tau(  67) = (  0.9333334  0.4666666  0.1663874  )
        68           Ga  tau(  68) = (  0.9333334  0.4666666  0.4997208  )
        69           Ga  tau(  69) = (  0.9333334  0.4666666  0.8330541  )
        70           Ga  tau(  70) = (  0.9333334  0.6666666  0.1663874  )
        71           Ga  tau(  71) = (  0.9333334  0.6666666  0.4997208  )
        72           Ga  tau(  72) = (  0.9333334  0.6666666  0.8330541  )
        73           Ga  tau(  73) = (  0.9333334  0.8666666  0.1663874  )
        74           Ga  tau(  74) = (  0.9333334  0.8666666  0.4997208  )
        75           Ga  tau(  75) = (  0.9333334  0.8666666  0.8330541  )
        76           Ga  tau(  76) = (  0.0666666  0.1333334  0.3330541  )
        77           Ga  tau(  77) = (  0.0666666  0.1333334  0.6663874  )
        78           Ga  tau(  78) = (  0.0666666  0.1333334  0.9997208  )
        79           Ga  tau(  79) = (  0.0666666  0.3333334  0.3330541  )
        80           Ga  tau(  80) = (  0.0666666  0.3333334  0.6663874  )
        81           Ga  tau(  81) = (  0.0666666  0.3333334  0.9997208  )
        82           Ga  tau(  82) = (  0.0666666  0.5333334  0.3330541  )
        83           Ga  tau(  83) = (  0.0666666  0.5333334  0.6663874  )
        84           Ga  tau(  84) = (  0.0666666  0.5333334  0.9997208  )
        85           Ga  tau(  85) = (  0.0666666  0.7333334  0.3330541  )
        86           Ga  tau(  86) = (  0.0666666  0.7333334  0.6663874  )
        87           Ga  tau(  87) = (  0.0666666  0.7333334  0.9997208  )
        88           Ga  tau(  88) = (  0.0666666  0.9333334  0.3330541  )
        89           Ga  tau(  89) = (  0.0666666  0.9333334  0.6663874  )
        90           Ga  tau(  90) = (  0.0666666  0.9333334  0.9997208  )
        91           Ga  tau(  91) = (  0.2666666  0.1333334  0.3330541  )
        92           Ga  tau(  92) = (  0.2666666  0.1333334  0.6663874  )
        93           Ga  tau(  93) = (  0.2666666  0.1333334  0.9997208  )
        94           Ga  tau(  94) = (  0.2666666  0.3333334  0.3330541  )
        95           Ga  tau(  95) = (  0.2666666  0.3333334  0.6663874  )
        96           Ga  tau(  96) = (  0.2666666  0.3333334  0.9997208  )
        97           Ga  tau(  97) = (  0.2666666  0.5333334  0.3330541  )
        98           Ga  tau(  98) = (  0.2666666  0.5333334  0.6663874  )
        99           Ga  tau(  99) = (  0.2666666  0.5333334  0.9997208  )
       100           Ga  tau( 100) = (  0.2666666  0.7333334  0.3330541  )
       101           Ga  tau( 101) = (  0.2666666  0.7333334  0.6663874  )
       102           Ga  tau( 102) = (  0.2666666  0.7333334  0.9997208  )
       103           Ga  tau( 103) = (  0.2666666  0.9333334  0.3330541  )
       104           Ga  tau( 104) = (  0.2666666  0.9333334  0.6663874  )
       105           Ga  tau( 105) = (  0.2666666  0.9333334  0.9997208  )
       106           Ga  tau( 106) = (  0.4666666  0.1333334  0.3330541  )
       107           Ga  tau( 107) = (  0.4666666  0.1333334  0.6663874  )
       108           Ga  tau( 108) = (  0.4666666  0.1333334  0.9997208  )
       109           Ga  tau( 109) = (  0.4666666  0.3333334  0.3330541  )
       110           Ga  tau( 110) = (  0.4666666  0.3333334  0.6663874  )
       111           Ga  tau( 111) = (  0.4666666  0.3333334  0.9997208  )
       112           Ga  tau( 112) = (  0.4666666  0.5333334  0.3330541  )
       113           Ga  tau( 113) = (  0.4666666  0.5333334  0.6663874  )
       114           Ga  tau( 114) = (  0.4666666  0.5333334  0.9997208  )
       115           Ga  tau( 115) = (  0.4666666  0.7333334  0.3330541  )
       116           Ga  tau( 116) = (  0.4666666  0.7333334  0.6663874  )
       117           Ga  tau( 117) = (  0.4666666  0.7333334  0.9997208  )
       118           Ga  tau( 118) = (  0.4666666  0.9333334  0.3330541  )
       119           Ga  tau( 119) = (  0.4666666  0.9333334  0.6663874  )
       120           Ga  tau( 120) = (  0.4666666  0.9333334  0.9997208  )
       121           Ga  tau( 121) = (  0.6666666  0.1333334  0.3330541  )
       122           Ga  tau( 122) = (  0.6666666  0.1333334  0.6663874  )
       123           Ga  tau( 123) = (  0.6666666  0.1333334  0.9997208  )
       124           Ga  tau( 124) = (  0.6666666  0.3333334  0.3330541  )
       125           Ga  tau( 125) = (  0.6666666  0.3333334  0.6663874  )
       126           Ga  tau( 126) = (  0.6666666  0.3333334  0.9997208  )
       127           Ga  tau( 127) = (  0.6666666  0.5333334  0.3330541  )
       128           Ga  tau( 128) = (  0.6666666  0.5333334  0.6663874  )
       129           Ga  tau( 129) = (  0.6666666  0.5333334  0.9997208  )
       130           Ga  tau( 130) = (  0.6666666  0.7333334  0.3330541  )
       131           Ga  tau( 131) = (  0.6666666  0.7333334  0.6663874  )
       132           Ga  tau( 132) = (  0.6666666  0.7333334  0.9997208  )
       133           Ga  tau( 133) = (  0.6666666  0.9333334  0.3330541  )
       134           Ga  tau( 134) = (  0.6666666  0.9333334  0.6663874  )
       135           Ga  tau( 135) = (  0.6666666  0.9333334  0.9997208  )
       136           Ga  tau( 136) = (  0.8666666  0.1333334  0.3330541  )
       137           Ga  tau( 137) = (  0.8666666  0.1333334  0.6663874  )
       138           Ga  tau( 138) = (  0.8666666  0.1333334  0.9997208  )
       139           Ga  tau( 139) = (  0.8666666  0.3333334  0.3330541  )
       140           Ga  tau( 140) = (  0.8666666  0.3333334  0.6663874  )
       141           Ga  tau( 141) = (  0.8666666  0.3333334  0.9997208  )
       142           Ga  tau( 142) = (  0.8666666  0.5333334  0.3330541  )
       143           Ga  tau( 143) = (  0.8666666  0.5333334  0.6663874  )
       144           Ga  tau( 144) = (  0.8666666  0.5333334  0.9997208  )
       145           Ga  tau( 145) = (  0.8666666  0.7333334  0.3330541  )
       146           Ga  tau( 146) = (  0.8666666  0.7333334  0.6663874  )
       147           Ga  tau( 147) = (  0.8666666  0.7333334  0.9997208  )
       148           Ga  tau( 148) = (  0.8666666  0.9333334  0.3330541  )
       149           Ga  tau( 149) = (  0.8666666  0.9333334  0.6663874  )
       150           Ga  tau( 150) = (  0.8666666  0.9333334  0.9997208  )
       151           N   tau( 151) = (  0.1333334  0.0666666  0.6252792  )
       152           N   tau( 152) = (  0.1333334  0.0666666  0.9586126  )
       153           N   tau( 153) = (  0.1333334  0.2666666  0.2919459  )
       154           N   tau( 154) = (  0.1333334  0.2666666  0.6252792  )
       155           N   tau( 155) = (  0.1333334  0.2666666  0.9586126  )
       156           N   tau( 156) = (  0.1333334  0.4666666  0.2919459  )
       157           N   tau( 157) = (  0.1333334  0.4666666  0.6252792  )
       158           N   tau( 158) = (  0.1333334  0.4666666  0.9586126  )
       159           N   tau( 159) = (  0.1333334  0.6666666  0.2919459  )
       160           N   tau( 160) = (  0.1333334  0.6666666  0.6252792  )
       161           N   tau( 161) = (  0.1333334  0.6666666  0.9586126  )
       162           N   tau( 162) = (  0.1333334  0.8666666  0.2919459  )
       163           N   tau( 163) = (  0.1333334  0.8666666  0.6252792  )
       164           N   tau( 164) = (  0.1333334  0.8666666  0.9586126  )
       165           N   tau( 165) = (  0.3333334  0.0666666  0.2919459  )
       166           N   tau( 166) = (  0.3333334  0.0666666  0.6252792  )
       167           N   tau( 167) = (  0.3333334  0.0666666  0.9586126  )
       168           N   tau( 168) = (  0.3333334  0.2666666  0.2919459  )
       169           N   tau( 169) = (  0.3333334  0.2666666  0.6252792  )
       170           N   tau( 170) = (  0.3333334  0.2666666  0.9586126  )
       171           N   tau( 171) = (  0.3333334  0.4666666  0.2919459  )
       172           N   tau( 172) = (  0.3333334  0.4666666  0.6252792  )
       173           N   tau( 173) = (  0.3333334  0.4666666  0.9586126  )
       174           N   tau( 174) = (  0.3333334  0.6666666  0.2919459  )
       175           N   tau( 175) = (  0.3333334  0.6666666  0.6252792  )
       176           N   tau( 176) = (  0.3333334  0.6666666  0.9586126  )
       177           N   tau( 177) = (  0.3333334  0.8666666  0.2919459  )
       178           N   tau( 178) = (  0.3333334  0.8666666  0.6252792  )
       179           N   tau( 179) = (  0.3333334  0.8666666  0.9586126  )
       180           N   tau( 180) = (  0.5333334  0.0666666  0.2919459  )
       181           N   tau( 181) = (  0.5333334  0.0666666  0.6252792  )
       182           N   tau( 182) = (  0.5333334  0.0666666  0.9586126  )
       183           N   tau( 183) = (  0.5333334  0.2666666  0.2919459  )
       184           N   tau( 184) = (  0.5333334  0.2666666  0.6252792  )
       185           N   tau( 185) = (  0.5333334  0.2666666  0.9586126  )
       186           N   tau( 186) = (  0.5333334  0.4666666  0.2919459  )
       187           N   tau( 187) = (  0.5333334  0.4666666  0.6252792  )
       188           N   tau( 188) = (  0.5333334  0.4666666  0.9586126  )
       189           N   tau( 189) = (  0.5333334  0.6666666  0.2919459  )
       190           N   tau( 190) = (  0.5333334  0.6666666  0.6252792  )
       191           N   tau( 191) = (  0.5333334  0.6666666  0.9586126  )
       192           N   tau( 192) = (  0.5333334  0.8666666  0.2919459  )
       193           N   tau( 193) = (  0.5333334  0.8666666  0.6252792  )
       194           N   tau( 194) = (  0.5333334  0.8666666  0.9586126  )
       195           N   tau( 195) = (  0.7333334  0.0666666  0.2919459  )
       196           N   tau( 196) = (  0.7333334  0.0666666  0.6252792  )
       197           N   tau( 197) = (  0.7333334  0.0666666  0.9586126  )
       198           N   tau( 198) = (  0.7333334  0.2666666  0.2919459  )
       199           N   tau( 199) = (  0.7333334  0.2666666  0.6252792  )
       200           N   tau( 200) = (  0.7333334  0.2666666  0.9586126  )
       201           N   tau( 201) = (  0.7333334  0.4666666  0.2919459  )
       202           N   tau( 202) = (  0.7333334  0.4666666  0.6252792  )
       203           N   tau( 203) = (  0.7333334  0.4666666  0.9586126  )
       204           N   tau( 204) = (  0.7333334  0.6666666  0.2919459  )
       205           N   tau( 205) = (  0.7333334  0.6666666  0.6252792  )
       206           N   tau( 206) = (  0.7333334  0.6666666  0.9586126  )
       207           N   tau( 207) = (  0.7333334  0.8666666  0.2919459  )
       208           N   tau( 208) = (  0.7333334  0.8666666  0.6252792  )
       209           N   tau( 209) = (  0.7333334  0.8666666  0.9586126  )
       210           N   tau( 210) = (  0.9333334  0.0666666  0.2919459  )
       211           N   tau( 211) = (  0.9333334  0.0666666  0.6252792  )
       212           N   tau( 212) = (  0.9333334  0.0666666  0.9586126  )
       213           N   tau( 213) = (  0.9333334  0.2666666  0.2919459  )
       214           N   tau( 214) = (  0.9333334  0.2666666  0.6252792  )
       215           N   tau( 215) = (  0.9333334  0.2666666  0.9586126  )
       216           N   tau( 216) = (  0.9333334  0.4666666  0.2919459  )
       217           N   tau( 217) = (  0.9333334  0.4666666  0.6252792  )
       218           N   tau( 218) = (  0.9333334  0.4666666  0.9586126  )
       219           N   tau( 219) = (  0.9333334  0.6666666  0.2919459  )
       220           N   tau( 220) = (  0.9333334  0.6666666  0.6252792  )
       221           N   tau( 221) = (  0.9333334  0.6666666  0.9586126  )
       222           N   tau( 222) = (  0.9333334  0.8666666  0.2919459  )
       223           N   tau( 223) = (  0.9333334  0.8666666  0.6252792  )
       224           N   tau( 224) = (  0.9333334  0.8666666  0.9586126  )
       225           N   tau( 225) = (  0.0666666  0.1333334  0.1252792  )
       226           N   tau( 226) = (  0.0666666  0.1333334  0.4586126  )
       227           N   tau( 227) = (  0.0666666  0.1333334  0.7919459  )
       228           N   tau( 228) = (  0.0666666  0.3333334  0.1252792  )
       229           N   tau( 229) = (  0.0666666  0.3333334  0.4586126  )
       230           N   tau( 230) = (  0.0666666  0.3333334  0.7919459  )
       231           N   tau( 231) = (  0.0666666  0.5333334  0.1252792  )
       232           N   tau( 232) = (  0.0666666  0.5333334  0.4586126  )
       233           N   tau( 233) = (  0.0666666  0.5333334  0.7919459  )
       234           N   tau( 234) = (  0.0666666  0.7333334  0.1252792  )
       235           N   tau( 235) = (  0.0666666  0.7333334  0.4586126  )
       236           N   tau( 236) = (  0.0666666  0.7333334  0.7919459  )
       237           N   tau( 237) = (  0.0666666  0.9333334  0.1252792  )
       238           N   tau( 238) = (  0.0666666  0.9333334  0.4586126  )
       239           N   tau( 239) = (  0.0666666  0.9333334  0.7919459  )
       240           N   tau( 240) = (  0.2666666  0.1333334  0.1252792  )
       241           N   tau( 241) = (  0.2666666  0.1333334  0.4586126  )
       242           N   tau( 242) = (  0.2666666  0.1333334  0.7919459  )
       243           N   tau( 243) = (  0.2666666  0.3333334  0.1252792  )
       244           N   tau( 244) = (  0.2666666  0.3333334  0.4586126  )
       245           N   tau( 245) = (  0.2666666  0.3333334  0.7919459  )
       246           N   tau( 246) = (  0.2666666  0.5333334  0.1252792  )
       247           N   tau( 247) = (  0.2666666  0.5333334  0.4586126  )
       248           N   tau( 248) = (  0.2666666  0.5333334  0.7919459  )
       249           N   tau( 249) = (  0.2666666  0.7333334  0.1252792  )
       250           N   tau( 250) = (  0.2666666  0.7333334  0.4586126  )
       251           N   tau( 251) = (  0.2666666  0.7333334  0.7919459  )
       252           N   tau( 252) = (  0.2666666  0.9333334  0.1252792  )
       253           N   tau( 253) = (  0.2666666  0.9333334  0.4586126  )
       254           N   tau( 254) = (  0.2666666  0.9333334  0.7919459  )
       255           N   tau( 255) = (  0.4666666  0.1333334  0.1252792  )
       256           N   tau( 256) = (  0.4666666  0.1333334  0.4586126  )
       257           N   tau( 257) = (  0.4666666  0.1333334  0.7919459  )
       258           N   tau( 258) = (  0.4666666  0.3333334  0.1252792  )
       259           N   tau( 259) = (  0.4666666  0.3333334  0.4586126  )
       260           N   tau( 260) = (  0.4666666  0.3333334  0.7919459  )
       261           N   tau( 261) = (  0.4666666  0.5333334  0.1252792  )
       262           N   tau( 262) = (  0.4666666  0.5333334  0.4586126  )
       263           N   tau( 263) = (  0.4666666  0.5333334  0.7919459  )
       264           N   tau( 264) = (  0.4666666  0.7333334  0.1252792  )
       265           N   tau( 265) = (  0.4666666  0.7333334  0.4586126  )
       266           N   tau( 266) = (  0.4666666  0.7333334  0.7919459  )
       267           N   tau( 267) = (  0.4666666  0.9333334  0.1252792  )
       268           N   tau( 268) = (  0.4666666  0.9333334  0.4586126  )
       269           N   tau( 269) = (  0.4666666  0.9333334  0.7919459  )
       270           N   tau( 270) = (  0.6666666  0.1333334  0.1252792  )
       271           N   tau( 271) = (  0.6666666  0.1333334  0.4586126  )
       272           N   tau( 272) = (  0.6666666  0.1333334  0.7919459  )
       273           N   tau( 273) = (  0.6666666  0.3333334  0.1252792  )
       274           N   tau( 274) = (  0.6666666  0.3333334  0.4586126  )
       275           N   tau( 275) = (  0.6666666  0.3333334  0.7919459  )
       276           N   tau( 276) = (  0.6666666  0.5333334  0.1252792  )
       277           N   tau( 277) = (  0.6666666  0.5333334  0.4586126  )
       278           N   tau( 278) = (  0.6666666  0.5333334  0.7919459  )
       279           N   tau( 279) = (  0.6666666  0.7333334  0.1252792  )
       280           N   tau( 280) = (  0.6666666  0.7333334  0.4586126  )
       281           N   tau( 281) = (  0.6666666  0.7333334  0.7919459  )
       282           N   tau( 282) = (  0.6666666  0.9333334  0.1252792  )
       283           N   tau( 283) = (  0.6666666  0.9333334  0.4586126  )
       284           N   tau( 284) = (  0.6666666  0.9333334  0.7919459  )
       285           N   tau( 285) = (  0.8666666  0.1333334  0.1252792  )
       286           N   tau( 286) = (  0.8666666  0.1333334  0.4586126  )
       287           N   tau( 287) = (  0.8666666  0.1333334  0.7919459  )
       288           N   tau( 288) = (  0.8666666  0.3333334  0.1252792  )
       289           N   tau( 289) = (  0.8666666  0.3333334  0.4586126  )
       290           N   tau( 290) = (  0.8666666  0.3333334  0.7919459  )
       291           N   tau( 291) = (  0.8666666  0.5333334  0.1252792  )
       292           N   tau( 292) = (  0.8666666  0.5333334  0.4586126  )
       293           N   tau( 293) = (  0.8666666  0.5333334  0.7919459  )
       294           N   tau( 294) = (  0.8666666  0.7333334  0.1252792  )
       295           N   tau( 295) = (  0.8666666  0.7333334  0.4586126  )
       296           N   tau( 296) = (  0.8666666  0.7333334  0.7919459  )
       297           N   tau( 297) = (  0.8666666  0.9333334  0.1252792  )
       298           N   tau( 298) = (  0.8666666  0.9333334  0.4586126  )
       299           N   tau( 299) = (  0.8666666  0.9333334  0.7919459  )

     number of k points=     6  Gaussian smearing, width (Ry)=  0.0100
                       cart. coord. in units 2pi/alat
        k(    1) = (   0.0000000   0.0000000   0.0000000), wk =   0.2500000
        k(    2) = (   0.0000000   0.0000000  -0.5112854), wk =   0.2500000
        k(    3) = (   0.0000000  -0.5773503   0.0000000), wk =   0.5000000
        k(    4) = (   0.0000000  -0.5773503  -0.5112854), wk =   0.5000000
        k(    5) = (  -0.5000000  -0.2886751   0.0000000), wk =   0.2500000
        k(    6) = (  -0.5000000  -0.2886751  -0.5112854), wk =   0.2500000

                       cryst. coord.
        k(    1) = (   0.0000000   0.0000000   0.0000000), wk =   0.2500000
        k(    2) = (   0.0000000   0.0000000  -0.5000000), wk =   0.2500000
        k(    3) = (   0.0000000  -0.5000000   0.0000000), wk =   0.5000000
        k(    4) = (   0.0000000  -0.5000000  -0.5000000), wk =   0.5000000
        k(    5) = (  -0.5000000  -0.0000000   0.0000000), wk =   0.2500000
        k(    6) = (  -0.5000000  -0.0000000  -0.5000000), wk =   0.2500000

     Dense  grid:  2698283 G-vectors     FFT dimensions: ( 192, 192, 180)

     Smooth grid:  1930731 G-vectors     FFT dimensions: ( 180, 180, 160)

     Dynamical RAM for                 wfc:      93.08 MB

     Dynamical RAM for     wfc (w. buffer):     279.23 MB

     Dynamical RAM for           str. fact:       1.29 MB

     Dynamical RAM for           local pot:       0.00 MB

     Dynamical RAM for          nlocal pot:     223.89 MB

     Dynamical RAM for                qrad:       3.00 MB

     Dynamical RAM for          rho,v,vnew:       4.46 MB

     Dynamical RAM for               rhoin:       1.49 MB

     Dynamical RAM for            rho*nmix:      10.29 MB

     Dynamical RAM for           G-vectors:       2.64 MB

     Dynamical RAM for          h,s,v(r/c):    1917.42 MB

     Dynamical RAM for          <psi|beta>:      96.09 MB

     Dynamical RAM for                 psi:     372.31 MB

     Dynamical RAM for                hpsi:     372.31 MB

     Dynamical RAM for                spsi:     372.31 MB

     Dynamical RAM for      wfcinit/wfcrot:     310.58 MB

     Dynamical RAM for           addusdens:      54.52 MB

     Dynamical RAM for          addusforce:     102.87 MB

     Dynamical RAM for         addusstress:      32.57 MB

     Estimated static dynamical RAM per process >     522.15 MB

     Estimated max dynamical RAM per process >       3.58 GB

     Estimated total dynamical RAM >     913.79 GB

     Check: negative core charge=   -0.000003

     Initial potential from superposition of free atoms

     starting charge    2694.5558, renormalised to    2695.0000


     %%%%%%%%%%%%%%%%%%%%%%%%%%%%%%%%%%%%%%%%%%%%%%%%%%%%%%%%%%%%%%%%%%%%%%%%
     %                                                                      %
     % You are using vdW-DF, which was implemented by the Thonhauser group. %
     % Please cite the following two papers that made this development      %
     % possible and the two reviews that describe the various versions:     %
     %                                                                      %
     %   T. Thonhauser et al., PRL 115, 136402 (2015).                      %
     %   T. Thonhauser et al., PRB 76, 125112 (2007).                       %
     %   K. Berland et al., Rep. Prog. Phys. 78, 066501 (2015).             %
     %   D.C. Langreth et al., J. Phys.: Condens. Matter 21, 084203 (2009). %
     %                                                                      %
     % If you are calculating stress with vdW-DF, please also cite:         %
     %                                                                      %
     %   R. Sabatini et al., J. Phys.: Condens. Matter 24, 424209 (2012).   %
     %                                                                      %
     %%%%%%%%%%%%%%%%%%%%%%%%%%%%%%%%%%%%%%%%%%%%%%%%%%%%%%%%%%%%%%%%%%%%%%%%

     %%%%%%%%%%%%%%%%%%%%%%%%%%%%%%%%%%%%%%%%%%%%%%%%%%%%%%%%%%%%%%%%%%%%%%%%
     %                                                                      %
     %  vdW-DF NEWS:                                                        %
     %                                                                      %
     %  * vdW-DF3 is now available. DOI: 10.1021/acs.jctc.0c00471           %
     %    use with input_dft = 'vdW-DF3-opt1' or 'vdW-DF3-opt2'             %
     %                                                                      %
     %  * Unscreened and range-separated vdW-DF hybrid functionals          %
     %    DOI: 10.1063/1.4986522 and 10.1088/1361-648X/ac2ad2               %
     %    use with input_dft = 'vdW-DF-cx0' (etc) and 'vdW-DF-ahcx'         %
     %                                                                      %
     %%%%%%%%%%%%%%%%%%%%%%%%%%%%%%%%%%%%%%%%%%%%%%%%%%%%%%%%%%%%%%%%%%%%%%%%


     Carrying out vdW-DF run using the following parameters:
     Nqs    =  20  Npoints =  1024  r_max =  100.000
     q_mesh =  0.00001000  0.04494208  0.09755937  0.15916263
               0.23128650  0.31572767  0.41458969  0.53033537
               0.66584808  0.82450364  1.01025438  1.22772762
               1.48234092  1.78043706  2.12944203  2.53805004
               3.01644009  3.57652955  4.23227104  5.00000000


     -----------------------------------------------
     Non-local corr. energy    =      77.55183042 Ry
     -----------------------------------------------

     Starting wfcs are 1946 randomized atomic wfcs
     Checking if some PAW data can be deallocated... 
       PAW data deallocated on  149 nodes for type:  1
       PAW data deallocated on  107 nodes for type:  2

     total cpu time spent up to now is      118.4 secs

     Self-consistent Calculation

     iteration #  1     ecut=    70.00 Ry     beta= 0.70
     Davidson diagonalization with overlap

---- Real-time Memory Report at c_bands before calling an iterative solver
          1230 MiB given to the printing process from OS
             0 MiB allocation reported by mallinfo(arena+hblkhd)
       1714737 MiB available memory on the node where the printing process lives
------------------
     ethr =  1.00E-02,  avg # of iterations =  4.2


     -----------------------------------------------
     Non-local corr. energy    =      80.92953374 Ry
     -----------------------------------------------


     total cpu time spent up to now is      674.8 secs

     total energy              =  -46754.39029539 Ry
     estimated scf accuracy    <      97.37034688 Ry

     iteration #  2     ecut=    70.00 Ry     beta= 0.70
     Davidson diagonalization with overlap

---- Real-time Memory Report at c_bands before calling an iterative solver
          2347 MiB given to the printing process from OS
             0 MiB allocation reported by mallinfo(arena+hblkhd)
       1716105 MiB available memory on the node where the printing process lives
------------------
     ethr =  3.61E-03,  avg # of iterations =  7.2


     -----------------------------------------------
     Non-local corr. energy    =      80.38026915 Ry
     -----------------------------------------------


     total cpu time spent up to now is     2359.1 secs

     total energy              =  -46786.32197270 Ry
     estimated scf accuracy    <     144.40310634 Ry

     iteration #  3     ecut=    70.00 Ry     beta= 0.70
     Davidson diagonalization with overlap

---- Real-time Memory Report at c_bands before calling an iterative solver
          3216 MiB given to the printing process from OS
             0 MiB allocation reported by mallinfo(arena+hblkhd)
       1694768 MiB available memory on the node where the printing process lives
------------------
     ethr =  3.61E-03,  avg # of iterations =  6.7


     -----------------------------------------------
     Non-local corr. energy    =      80.50742527 Ry
     -----------------------------------------------


     total cpu time spent up to now is     3344.5 secs

     total energy              =  -46803.23099368 Ry
     estimated scf accuracy    <     101.07957468 Ry

     iteration #  4     ecut=    70.00 Ry     beta= 0.70
     Davidson diagonalization with overlap

---- Real-time Memory Report at c_bands before calling an iterative solver
          3216 MiB given to the printing process from OS
             0 MiB allocation reported by mallinfo(arena+hblkhd)
       1694627 MiB available memory on the node where the printing process lives
------------------
     ethr =  3.61E-03,  avg # of iterations =  5.7


     -----------------------------------------------
     Non-local corr. energy    =      80.96854278 Ry
     -----------------------------------------------


     total cpu time spent up to now is     4069.3 secs

     total energy              =  -46813.55435439 Ry
     estimated scf accuracy    <       2.78139924 Ry

     iteration #  5     ecut=    70.00 Ry     beta= 0.70
     Davidson diagonalization with overlap

---- Real-time Memory Report at c_bands before calling an iterative solver
          3216 MiB given to the printing process from OS
             0 MiB allocation reported by mallinfo(arena+hblkhd)
       1694470 MiB available memory on the node where the printing process lives
------------------
     ethr =  1.03E-04,  avg # of iterations =  8.8


     -----------------------------------------------
     Non-local corr. energy    =      81.45800757 Ry
     -----------------------------------------------


     total cpu time spent up to now is     5991.8 secs

     total energy              =  -46814.26443218 Ry
     estimated scf accuracy    <       0.43103149 Ry

     iteration #  6     ecut=    70.00 Ry     beta= 0.70
     Davidson diagonalization with overlap

---- Real-time Memory Report at c_bands before calling an iterative solver
          3216 MiB given to the printing process from OS
             0 MiB allocation reported by mallinfo(arena+hblkhd)
       1694311 MiB available memory on the node where the printing process lives
------------------
     ethr =  1.60E-05,  avg # of iterations = 10.2


     -----------------------------------------------
     Non-local corr. energy    =      81.63138303 Ry
     -----------------------------------------------


     total cpu time spent up to now is     8326.8 secs

     total energy              =  -46814.24663811 Ry
     estimated scf accuracy    <       0.65622819 Ry

     iteration #  7     ecut=    70.00 Ry     beta= 0.70
     Davidson diagonalization with overlap

---- Real-time Memory Report at c_bands before calling an iterative solver
          3216 MiB given to the printing process from OS
             0 MiB allocation reported by mallinfo(arena+hblkhd)
       1694184 MiB available memory on the node where the printing process lives
------------------
     ethr =  1.60E-05,  avg # of iterations = 12.8


     -----------------------------------------------
     Non-local corr. energy    =      81.75471546 Ry
     -----------------------------------------------


     total cpu time spent up to now is    10409.4 secs

     total energy              =  -46814.37361586 Ry
     estimated scf accuracy    <       0.14596915 Ry

     iteration #  8     ecut=    70.00 Ry     beta= 0.70
     Davidson diagonalization with overlap

---- Real-time Memory Report at c_bands before calling an iterative solver
          3216 MiB given to the printing process from OS
             0 MiB allocation reported by mallinfo(arena+hblkhd)
       1694010 MiB available memory on the node where the printing process lives
------------------
     ethr =  5.42E-06,  avg # of iterations = 14.0


     -----------------------------------------------
     Non-local corr. energy    =      81.74835474 Ry
     -----------------------------------------------


     total cpu time spent up to now is    12222.7 secs

     total energy              =  -46814.38975727 Ry
     estimated scf accuracy    <       0.02086414 Ry

     iteration #  9     ecut=    70.00 Ry     beta= 0.70
     Davidson diagonalization with overlap

---- Real-time Memory Report at c_bands before calling an iterative solver
          3216 MiB given to the printing process from OS
             0 MiB allocation reported by mallinfo(arena+hblkhd)
       1693880 MiB available memory on the node where the printing process lives
------------------
     ethr =  7.74E-07,  avg # of iterations = 16.5


     -----------------------------------------------
     Non-local corr. energy    =      81.70227275 Ry
     -----------------------------------------------


     total cpu time spent up to now is    14681.6 secs

     total energy              =  -46814.39314076 Ry
     estimated scf accuracy    <       0.00707663 Ry

     iteration # 10     ecut=    70.00 Ry     beta= 0.70
     Davidson diagonalization with overlap

---- Real-time Memory Report at c_bands before calling an iterative solver
          3216 MiB given to the printing process from OS
             0 MiB allocation reported by mallinfo(arena+hblkhd)
       1693729 MiB available memory on the node where the printing process lives
------------------
     ethr =  2.63E-07,  avg # of iterations = 14.0


     -----------------------------------------------
     Non-local corr. energy    =      81.69472216 Ry
     -----------------------------------------------


     total cpu time spent up to now is    17256.0 secs

     total energy              =  -46814.39499650 Ry
     estimated scf accuracy    <       0.00162226 Ry

     iteration # 11     ecut=    70.00 Ry     beta= 0.70
     Davidson diagonalization with overlap

---- Real-time Memory Report at c_bands before calling an iterative solver
          3216 MiB given to the printing process from OS
             0 MiB allocation reported by mallinfo(arena+hblkhd)
       1693700 MiB available memory on the node where the printing process lives
------------------
     c_bands:  1 eigenvalues not converged
     ethr =  6.02E-08,  avg # of iterations = 15.2


     -----------------------------------------------
     Non-local corr. energy    =      81.68731303 Ry
     -----------------------------------------------


     total cpu time spent up to now is    19853.8 secs

     total energy              =  -46814.39525511 Ry
     estimated scf accuracy    <       0.00074958 Ry

     iteration # 12     ecut=    70.00 Ry     beta= 0.70
     Davidson diagonalization with overlap

---- Real-time Memory Report at c_bands before calling an iterative solver
          3216 MiB given to the printing process from OS
             0 MiB allocation reported by mallinfo(arena+hblkhd)
       1693690 MiB available memory on the node where the printing process lives
------------------
     ethr =  2.78E-08,  avg # of iterations = 12.7


     -----------------------------------------------
     Non-local corr. energy    =      81.66512267 Ry
     -----------------------------------------------


     total cpu time spent up to now is    21140.6 secs

     total energy              =  -46814.39514814 Ry
     estimated scf accuracy    <       0.00039023 Ry

     iteration # 13     ecut=    70.00 Ry     beta= 0.70
     Davidson diagonalization with overlap

---- Real-time Memory Report at c_bands before calling an iterative solver
          3216 MiB given to the printing process from OS
             0 MiB allocation reported by mallinfo(arena+hblkhd)
       1693671 MiB available memory on the node where the printing process lives
------------------
     ethr =  1.45E-08,  avg # of iterations =  7.2


     -----------------------------------------------
     Non-local corr. energy    =      81.67050289 Ry
     -----------------------------------------------


     total cpu time spent up to now is    23135.3 secs

     total energy              =  -46814.39520585 Ry
     estimated scf accuracy    <       0.00062623 Ry

     iteration # 14     ecut=    70.00 Ry     beta= 0.70
     Davidson diagonalization with overlap

---- Real-time Memory Report at c_bands before calling an iterative solver
          3325 MiB given to the printing process from OS
             0 MiB allocation reported by mallinfo(arena+hblkhd)
       1693656 MiB available memory on the node where the printing process lives
------------------
     ethr =  1.45E-08,  avg # of iterations = 14.5


     -----------------------------------------------
     Non-local corr. energy    =      81.67642990 Ry
     -----------------------------------------------


     total cpu time spent up to now is    25320.4 secs

     total energy              =  -46814.39524449 Ry
     estimated scf accuracy    <       0.00016401 Ry

     iteration # 15     ecut=    70.00 Ry     beta= 0.70
     Davidson diagonalization with overlap

---- Real-time Memory Report at c_bands before calling an iterative solver
          3325 MiB given to the printing process from OS
             0 MiB allocation reported by mallinfo(arena+hblkhd)
       1693641 MiB available memory on the node where the printing process lives
------------------
     ethr =  6.09E-09,  avg # of iterations = 12.8


     -----------------------------------------------
     Non-local corr. energy    =      81.67841544 Ry
     -----------------------------------------------


     total cpu time spent up to now is    26875.6 secs

     total energy              =  -46814.39525665 Ry
     estimated scf accuracy    <       0.00002661 Ry

     iteration # 16     ecut=    70.00 Ry     beta= 0.70
     Davidson diagonalization with overlap

---- Real-time Memory Report at c_bands before calling an iterative solver
          3325 MiB given to the printing process from OS
             0 MiB allocation reported by mallinfo(arena+hblkhd)
       1693635 MiB available memory on the node where the printing process lives
------------------
     ethr =  9.87E-10,  avg # of iterations =  7.5


     -----------------------------------------------
     Non-local corr. energy    =      81.67757439 Ry
     -----------------------------------------------


     total cpu time spent up to now is    28872.0 secs

     total energy              =  -46814.39527162 Ry
     estimated scf accuracy    <       0.00000739 Ry

     iteration # 17     ecut=    70.00 Ry     beta= 0.70
     Davidson diagonalization with overlap

---- Real-time Memory Report at c_bands before calling an iterative solver
          3325 MiB given to the printing process from OS
             0 MiB allocation reported by mallinfo(arena+hblkhd)
       1693617 MiB available memory on the node where the printing process lives
------------------
     ethr =  2.74E-10,  avg # of iterations = 15.5


     -----------------------------------------------
     Non-local corr. energy    =      81.67689713 Ry
     -----------------------------------------------


     total cpu time spent up to now is    30644.4 secs

     total energy              =  -46814.39527122 Ry
     estimated scf accuracy    <       0.00000338 Ry

     iteration # 18     ecut=    70.00 Ry     beta= 0.70
     Davidson diagonalization with overlap

---- Real-time Memory Report at c_bands before calling an iterative solver
          3325 MiB given to the printing process from OS
             0 MiB allocation reported by mallinfo(arena+hblkhd)
       1693600 MiB available memory on the node where the printing process lives
------------------
     ethr =  1.26E-10,  avg # of iterations = 13.2


     -----------------------------------------------
     Non-local corr. energy    =      81.67654040 Ry
     -----------------------------------------------


     total cpu time spent up to now is    32069.8 secs

     total energy              =  -46814.39527122 Ry
     estimated scf accuracy    <       0.00000089 Ry

     iteration # 19     ecut=    70.00 Ry     beta= 0.70
     Davidson diagonalization with overlap

---- Real-time Memory Report at c_bands before calling an iterative solver
          3325 MiB given to the printing process from OS
             0 MiB allocation reported by mallinfo(arena+hblkhd)
       1693609 MiB available memory on the node where the printing process lives
------------------
     ethr =  3.30E-11,  avg # of iterations = 10.0


     -----------------------------------------------
     Non-local corr. energy    =      81.67690828 Ry
     -----------------------------------------------


     total cpu time spent up to now is    34455.7 secs

     End of self-consistent calculation

          k = 0.0000 0.0000 0.0000 (241213 PWs)   bands (ev):

    -6.8907  -6.7153  -6.7153  -6.7145  -6.7026  -6.6716  -6.6534  -6.6534
    -6.6091  -6.6091  -6.5984  -6.5983  -6.5977  -6.5939  -6.5911  -6.5757
    -6.5714  -6.5714  -6.5498  -6.5498  -6.5166  -6.4870  -6.4869  -6.4714
    -6.4714  -6.4683  -6.4682  -6.4650  -6.4649  -6.4626  -6.4616  -6.4597
    -6.4522  -6.4389  -6.4389  -6.4234  -6.4212  -6.4200  -6.4123  -6.4123
    -6.4119  -6.3997  -6.3950  -6.3949  -6.3936  -6.3928  -6.3928  -6.3900
    -6.3900  -6.3868  -6.3848  -6.3814  -6.3814  -6.3788  -6.3782  -6.3782
    -6.3757  -6.3756  -6.3755  -6.3732  -6.3701  -6.3686  -6.3686  -6.3623
    -6.3623  -6.3595  -6.3595  -6.3579  -6.3568  -6.3543  -6.3543  -6.3537
    -6.3537  -6.3467  -6.3467  -6.3461  -6.3446  -6.3446  -6.3409  -6.3396
    -6.3396  -6.3383  -6.3377  -6.3361  -6.3332  -6.3323  -6.3323  -6.3316
    -6.3307  -6.3307  -6.3290  -6.3282  -6.3270  -6.3270  -6.3265  -6.3230
    -6.3230  -6.3221  -6.3221  -6.3187  -6.3187  -6.3152  -6.3152  -6.3149
    -6.3124  -6.3110  -6.3110  -6.3109  -6.3108  -6.3089  -6.3089  -6.3081
    -6.3081  -6.3065  -6.3059  -6.3041  -6.3041  -6.3007  -6.3007  -6.2978
    -6.2978  -6.2963  -6.2955  -6.2955  -6.2916  -6.2905  -6.2890  -6.2890
    -6.2885  -6.2864  -6.2851  -6.2851  -6.2841  -6.2840  -6.2840  -6.2815
    -6.2752  -6.2752  -6.2748  -6.2748  -6.2735  -6.2717  -6.2717  -6.2709
    -6.2708  -6.2684  -6.2648  -6.2648  -6.2644  -5.6751  -5.6498  -5.6498
    -5.6397  -5.6268  -5.6268  -5.6114  -5.6041  -5.6041  -5.5927  -5.5927
    -5.5861  -5.5333  -5.5333  -5.5216  -5.5138  -5.5138  -5.5105  -5.5105
    -5.5091  -5.3206  -5.3206  -5.3168  -5.3133  -5.3133  -5.3073  -5.3050
    -5.3050  -5.3002  -5.2975  -5.2953  -5.2953  -5.2935  -5.2935  -5.2902
    -5.2902  -5.2885  -5.2877  -5.2795  -5.2795  -5.2767  -5.2760  -5.2760
    -5.2733  -5.2733  -5.2719  -5.2677  -5.2677  -5.2652  -5.2628  -5.2611
    -5.2610  -5.2598  -5.2588  -5.2588  -5.2553  -5.2553  -5.2532  -5.2524
    -5.2515  -5.2514  -5.2482  -5.2482  -5.2476  -5.2476  -5.2427  -5.2421
    -5.2415  -5.2415  -5.2389  -5.2383  -5.2383  -5.2364  -5.2345  -5.2345
    -5.2343  -5.2343  -5.2332  -5.2326  -5.2326  -5.2302  -5.2302  -5.2292
    -5.2292  -5.2279  -5.2264  -5.2226  -5.2226  -5.2212  -5.2196  -5.2196
    -5.2195  -5.2193  -5.2193  -5.2164  -5.2152  -5.2151  -5.2148  -5.2142
    -5.2137  -5.2137  -5.2123  -5.2118  -5.2118  -5.2112  -5.2112  -5.2107
    -5.2103  -5.2103  -5.2092  -5.2065  -5.2065  -5.2055  -5.2037  -5.2037
    -5.2032  -5.2032  -5.2004  -5.2002  -5.2002  -5.1999  -5.1979  -5.1971
    -5.1971  -5.1967  -5.1947  -5.1947  -5.1943  -5.1940  -5.1940  -5.1927
    -5.1917  -5.1917  -5.1908  -5.1908  -5.1907  -5.1896  -5.1896  -5.1887
    -5.1886  -5.1872  -5.1866  -5.1864  -5.1864  -5.1863  -5.1862  -5.1845
    -5.1845  -5.1835  -5.1835  -5.1831  -5.1813  -5.1813  -5.1808  -5.1808
    -5.1808  -5.1806  -5.1789  -5.1788  -5.1777  -5.1777  -5.1777  -5.1776
    -5.1776  -5.1753  -5.1753  -5.1744  -5.1744  -5.1740  -5.1717  -5.1717
    -5.1698  -5.1693  -5.1693  -5.1689  -5.1678  -5.1674  -5.1673  -5.1668
    -5.1668  -5.1663  -5.1663  -5.1658  -5.1643  -5.1643  -5.1642  -5.1642
    -5.1634  -5.1634  -5.1630  -5.1616  -5.1609  -5.1606  -5.1606  -5.1604
    -5.1604  -5.1593  -5.1593  -5.1588  -5.1588  -5.1581  -5.1575  -5.1568
    -5.1568  -5.1554  -5.1554  -5.1549  -5.1547  -5.1547  -5.1542  -5.1539
    -5.1525  -5.1525  -5.1517  -5.1517  -5.1515  -5.1512  -5.1498  -5.1498
    -5.1494  -5.1494  -5.1488  -5.1485  -5.1485  -5.1478  -5.1464  -5.1458
    -5.1457  -5.1457  -5.1449  -5.1436  -5.1436  -5.1430  -5.1430  -5.1430
    -5.1415  -5.1415  -5.1414  -5.1410  -5.1410  -5.1400  -5.1386  -5.1386
    -5.1373  -5.1370  -5.1370  -5.1370  -5.1360  -5.1360  -5.1351  -5.1351
    -5.1351  -5.1344  -5.1330  -5.1330  -5.1319  -5.1316  -5.1316  -5.1313
    -5.1309  -5.1309  -5.1299  -5.1299  -5.1297  -5.1289  -5.1283  -5.1283
    -5.1268  -5.1263  -5.1263  -5.1254  -5.1254  -5.1246  -5.1244  -5.1228
    -5.1228  -5.1225  -5.1221  -5.1221  -5.1209  -5.1209  -5.1207  -5.1177
    -5.1171  -5.1171  -5.1156  -5.1149  -5.1149  -5.1144  -5.1144  -5.1144
    -5.1121  -5.1121  -5.1101  -5.1098  -5.1089  -5.1089  -5.1088  -5.1088
    -5.1061  -5.1061  -5.1059  -5.1056  -5.1056  -5.1045  -5.1038  -5.1033
    -5.1033  -5.1023  -5.1013  -5.1013  -5.1011  -5.0981  -5.0977  -5.0977
    -5.0950  -5.0947  -5.0944  -5.0944  -5.0922  -5.0920  -5.0920  -5.0907
    -5.0901  -5.0901  -5.0896  -5.0896  -5.0885  -5.0885  -5.0873  -5.0859
    -5.0845  -5.0843  -5.0843  -5.0838  -5.0820  -5.0819  -5.0819  -5.0806
    -5.0797  -5.0797  -5.0794  -5.0782  -5.0782  -5.0768  -5.0759  -5.0759
    -5.0754  -5.0754  -5.0752  -5.0748  -5.0748  -5.0729  -5.0729  -5.0728
    -5.0721  -5.0719  -5.0719  -5.0707  -5.0695  -5.0681  -5.0680  -5.0680
    -5.0673  -5.0671  -5.0671  -5.0664  -5.0664  -5.0662  -5.0655  -5.0655
    -5.0648  -5.0648  -5.0645  -5.0636  -5.0636  -5.0628  -5.0624  -5.0624
    -5.0613  -5.0605  -5.0605  -5.0601  -5.0601  -5.0600  -5.0592  -5.0580
    -5.0580  -5.0570  -5.0568  -5.0568  -5.0550  -5.0550  -5.0549  -5.0549
    -5.0537  -5.0537  -5.0523  -5.0512  -5.0511  -5.0511  -5.0511  -5.0502
    -5.0502  -5.0492  -5.0489  -5.0489  -5.0479  -5.0479  -5.0472  -5.0472
    -5.0465  -5.0458  -5.0458  -5.0452  -5.0443  -5.0435  -5.0435  -5.0419
    -5.0419  -5.0419  -5.0409  -5.0409  -5.0407  -5.0404  -5.0400  -5.0399
    -5.0399  -5.0387  -5.0386  -5.0386  -5.0384  -5.0380  -5.0380  -5.0377
    -5.0377  -5.0363  -5.0361  -5.0354  -5.0354  -5.0349  -5.0349  -5.0338
    -5.0337  -5.0337  -5.0335  -5.0335  -5.0330  -5.0323  -5.0321  -5.0321
    -5.0316  -5.0316  -5.0308  -5.0289  -5.0287  -5.0287  -5.0282  -5.0282
    -5.0281  -5.0281  -5.0281  -5.0268  -5.0263  -5.0245  -5.0243  -5.0243
    -5.0240  -5.0240  -5.0237  -5.0226  -5.0226  -5.0213  -5.0213  -5.0198
    -5.0183  -5.0178  -5.0172  -5.0172  -5.0164  -5.0161  -5.0161  -5.0152
    -5.0152  -5.0136  -5.0136  -5.0120  -5.0120  -5.0112  -5.0103  -5.0103
    -5.0080  -5.0079  -5.0079  -5.0079  -5.0068  -5.0062  -5.0062  -5.0062
    -5.0046  -5.0046  -5.0043  -5.0037  -5.0037  -5.0033  -5.0021  -5.0021
    -5.0014  -5.0014  -5.0014  -5.0002  -5.0002  -4.9998  -4.9998  -4.9989
    -4.9985  -4.9970  -4.9970  -4.9969  -4.9961  -4.9955  -4.9955  -4.9948
    -4.9947  -4.9946  -4.9934  -4.9934  -4.9921  -4.9913  -4.9910  -4.9910
    -4.9903  -4.9903  -4.9887  -4.9887  -4.9875  -4.9874  -4.9874  -4.9863
    -4.9860  -4.9860  -4.9848  -4.9841  -4.9841  -4.9834  -4.9826  -4.9826
    -4.9817  -4.9817  -4.9811  -4.9799  -4.9799  -4.9791  -4.9773  -4.9767
    -4.9767  -4.9767  -4.9759  -4.9759  -4.9744  -4.9744  -4.9740  -4.9733
    -4.9730  -4.9730  -4.9727  -4.9720  -4.9720  -4.9704  -4.9702  -4.9702
    -4.9681  -4.9681  -4.9669  -4.9668  -4.9664  -4.9664  -4.9657  -4.9647
[...]
Ga            9.7342088993        9.3646095943        2.6383771878
Ga            9.7342127532        9.3646681471        7.9312397635
Ga            9.7342157825        9.3654452498       13.2160008049
Ga            8.1039403559       12.1730731928        2.6352257475
Ga            8.1043294579       12.1746209638        7.9290735228
Ga            8.1105791850       12.1756916854       13.2152537303
Ga            0.0029540464        1.8709294747        5.2836609793
Ga           -0.0011921616        1.8733973623       10.5743839530
Ga            0.0011261363        1.8721175811       15.8511183331
Ga           -1.6290708999        4.6833125494        5.2882438787
Ga           -1.6241806868        4.6837827142       10.5728105331
Ga           -1.6248572469        4.6842144563       15.8588372059
Ga           -3.2453896926        7.4924805764        5.2847284043
Ga           -3.2450600350        7.4926709044       10.5727707974
Ga           -3.2450678266        7.4926664058       15.8593886395
Ga           -4.8700411711       10.2968377250        5.2882438787
Ga           -4.8671888899       10.3008376913       10.5728105331
Ga           -4.8671532703       10.3000359020       15.8588372059
Ga           -6.4896238857       13.1164043256        5.2836609793
Ga           -6.4895597363       13.1115796602       10.5743839530
Ga           -6.4895089104       13.1142272557       15.8511183331
Ga            3.2418596708        1.8716912325        5.2841048455
Ga            3.2458024932        1.8739676220       10.5746839476
Ga            3.2434889410        1.8726318921       15.8514196962
Ga            1.6228074149        4.6892119643        5.2886753598
Ga            1.6228396629        4.6841964842       10.5729727701
Ga            1.6228360161        4.6857286418       15.8587236658
Ga            0.0003302489        7.4947037235        5.2853135562
Ga           -0.0001619932        7.4938931591       10.5731089055
Ga           -0.0001607297        7.4940822268       15.8597855979
Ga           -1.6206044200       10.3022449258        5.2853135562
Ga           -1.6215525103       10.3022239139       10.5731089055
Ga           -1.6213881412       10.3021304742       15.8597855979
Ga           -3.2389929705       13.1100972484        5.2886753598
Ga           -3.2433203797       13.1126329159       10.5729727701
Ga           -3.2419953156       13.1118636789       15.8587236658
Ga            6.4920424294        1.8779978592        5.2883020227
Ga            6.4901537018        1.8737139110       10.5729298128
Ga            6.4908552245        1.8740790966       15.8589353666
Ga            4.8724127491        4.6832787551        5.2883020227
Ga            4.8677583773        4.6837850432       10.5729298128
Ga            4.8684253986        4.6842099869       15.8589353666
Ga            3.2443241601        7.4941427488        5.2851188827
Ga            3.2448207818        7.4933376989       10.5729332923
Ga            3.2448188730        7.4935277970       15.8595971946
Ga            1.6218526109       10.3025842306        5.2847392524
Ga            1.6218616348       10.3025894405       10.5729673566
Ga            1.6218629319       10.3025901894       15.8600681529
Ga            0.0009067172       13.1119065500        5.2851188827
Ga            0.0004578344       13.1127391620       10.5729332923
Ga            0.0006215098       13.1126424599       15.8595971946
Ga            9.7338217909        1.8737552494        5.2848360837
Ga            9.7337870678        1.8733859856       10.5728798459
Ga            9.7337858713        1.8733938984       15.8594971633
Ga            8.1135096870        4.6843396808        5.2845743739
Ga            8.1120906436        4.6835203957       10.5727414830
Ga            8.1120888809        4.6835193781       15.8592963285
Ga            6.4896282219        7.4928633407        5.2848360837
Ga            6.4892910685        7.4930179015       10.5728798459
Ga            6.4892973229        7.4930129089       15.8594971633
Ga            4.8657681622       10.3019600362        5.2850972228
Ga            4.8667605414       10.3019495517       10.5729174877
Ga            4.8665885485       10.3018559908       15.8595716260
Ga            3.2432698184       13.1122096031        5.2850972228
Ga            3.2437569281       13.1130742708       10.5729174877
Ga            3.2435899056       13.1129721011       15.8595716260
Ga           12.9749486977        1.8785062083        5.2885303165
Ga           12.9769300419        1.8741158455       10.5731153201
Ga           12.9762349637        1.8744974416       15.8591557930
Ga           11.3542735838        4.6843553368        5.2847721949
Ga           11.3555932446        4.6835546593       10.5729454728
Ga           11.3555914206        4.6835560939       15.8594979401
Ga            9.7339051939        7.4909157154        5.2847721949
Ga            9.7338716172        7.4924589139       10.5729454728
Ga            9.7338719476        7.4924566169       15.8594979401
Ga            8.1143061265       10.2973860994        5.2885303165
Ga            8.1114946328       10.3012971752       10.5731153201
Ga            8.1114775656       10.3005044218       15.8591557930
Ga            6.4845986060       13.1100919400        5.2886508675
Ga            6.4887036239       13.1124619732       10.5729964659
Ga            6.4874235940       13.1117229475       15.8587210276
N             1.6223035666        0.9366359299        9.9216610306
N             1.6223053770        0.9366369751       15.2088892346
N             0.0110627346        3.7348229707        4.6286639893
N             0.0003022715        3.7443010655        9.9172757714
N             0.0005088473        3.7448478233       15.2116958793
N            -1.6197220463        6.5529861185        4.6307717206
N            -1.6221094342        6.5558296224        9.9191909585
N            -1.6220117924        6.5559233228       15.2083474753
N            -3.2461783428        9.3700910605        4.6307717206
N            -3.2449094902        9.3666017700        9.9191909585
N            -3.2447795223        9.3666394800       15.2083474753
N            -4.8713868303       12.1914736828        4.6286639893
N            -4.8685587910       12.1774158009        9.9172757714
N            -4.8679819970       12.1773213219       15.2116958793
N             4.8512316280        0.9328776773        4.6283241440
N             4.8648019257        0.9374966681        9.9169607750
N             4.8651585386        0.9370500809       15.2113842821
N             3.2335128550        3.7348487844        4.6283241440
N             3.2442981672        3.7442915116        9.9169607750
N             3.2440897178        3.7448236411       15.2113842821
N             1.6222995748        6.5545693431        4.6306231551
N             1.6223059854        6.5555679727        9.9192357482
N             1.6223022112        6.5558137083       15.2081656856
N            -0.0002641994        9.3660505036        4.6307688606
N            -0.0001422209        9.3661209279        9.9191171600
N            -0.0000836283        9.3661547564       15.2078462873
N            -1.6237964196       12.1769725318        4.6306231551
N            -1.6229283757       12.1764787687        9.9192357482
N            -1.6227174495       12.1763526323       15.2081656856
N             8.1071107391        0.9360659334        4.6306792153
N             8.1107691596        0.9367212375        9.9190919348
N             8.1108011457        0.9365931431       15.2082526548
N             6.4877621476        3.7457097515        4.6308190986
N             6.4886854056        3.7462427948        9.9196485263
N             6.4886718679        3.7462349788       15.2084836512
N             4.8642135214        6.5529286784        4.6306792153
N             4.8666102417        6.5557693115        9.9190919348
N             4.8665153017        6.5558610595       15.2082526548
N             3.2447485659        9.3659761153        4.6309684309
N             3.2446492659        9.3660570749        9.9193175143
N             3.2445863475        9.3660901219       15.2080498334
N             1.6221777611       12.1763511883        4.6309684309
N             1.6221982241       12.1762247123        9.9193175143
N             1.6221953845       12.1761536998       15.2080498334
N            11.3602101542        0.9361730422        4.6306538722
N            11.3565460418        0.9368218889        9.9190693160
N            11.3565195215        0.9366979722       15.2082258486
N             9.7337761057        3.7460862854        4.6310568457
N             9.7337523354        3.7463486922        9.9194404668
N             9.7337521961        3.7463475861       15.2082552173
N             8.1110952145        6.5566520334        4.6310568457
N             8.1113105802        6.5565002443        9.9194404668
N             8.1113095528        6.5565006767       15.2082552173
N             6.4908559879        9.3701418586        4.6306538722
N             6.4895858494        9.3666442208        9.9190693160
N             6.4894652742        9.3666832119       15.2082258486
N             4.8685316692       12.1770511091        4.6308537051
N             4.8676095331       12.1765187136        9.9194242845
N             4.8674061915       12.1764013143       15.2083668954
N            14.6159351948        0.9328841351        4.6283275861
N            14.6024532972        0.9374403471        9.9169740935
N            14.6020988335        0.9370109060       15.2113995041
N            12.9793378724        3.7457332245        4.6305691194
N            12.9784558715        3.7462505570        9.9194501310
N            12.9784729252        3.7462428803       15.2082759856
N            11.3562566524        6.5565363645        4.6308859536
N            11.3560196689        6.5563995420        9.9192734761
N            11.3560216497        6.5564006856       15.2080920862
N             9.7335703382        9.3675675035        4.6305691194
N             9.7335773608        9.3665450020        9.9194501310
N             9.7335792395        9.3665636093       15.2082759856
N             8.1158702310       12.1913269052        4.6283275861
N             8.1130750775       12.1773731333        9.9169740935
N             8.1125259388       12.1772808793       15.2113995041
N             0.0045544080        1.8706059122        2.0042067241
N             0.0083576072        1.8683945053        7.2656744614
N             0.0004721421        1.8730025779       12.5647538308
N            -1.6215769313        4.6816770788        1.9879491439
N            -1.6211010963        4.6814226994        7.2750195829
N            -1.6214874890        4.6825520459       12.5638852904
N            -3.2446099815        7.4929307428        1.9874597504
N            -3.2445904657        7.4929420103        7.2748391229
N            -3.2444719724        7.4930104225       12.5636864930
N            -4.8677105458       10.3041454274        1.9879491439
N            -4.8676929274       10.3046847023        7.2750195829
N            -4.8669080810       10.3037854032       12.5638852904
N            -6.4891039182       13.1179520606        2.0042067241
N            -6.4891174531       13.1223514311        7.2656744614
N            -6.4890694777       13.1132183817       12.5647538308
N             3.2399039683        1.8705621071        2.0045901865
N             3.2361431021        1.8683907700        7.2659733893
N             3.2440537975        1.8729580121       12.5650470658
N             1.6222209046        4.6834499496        1.9865481456
N             1.6222076621        4.6844499907        7.2747137146
N             1.6222102195        4.6822999116       12.5641809114
N             0.0001140203        7.4924115456        1.9873963464
N             0.0000659079        7.4923807945        7.2752807507
N             0.0000714551        7.4925852600       12.5638989483
N            -1.6226976186       10.3032037553        1.9873963464
N            -1.6227483060       10.3031774643        7.2752807507
N            -1.6225684600       10.3030800356       12.5638989483
N            -3.2442762768       13.1124703228        1.9865481456
N            -3.2434168370       13.1119588339        7.2747137146
N            -3.2452775814       13.1130360883       12.5641809114
N             6.4876349273        1.8734525096        1.9880467178
N             6.4871506132        1.8731436470        7.2751210169
N             6.4883164560        1.8729283438       12.5640046446
N             4.8662726097        4.6817344212        1.9880467178
N             4.8657629699        4.6814694242        7.2751210169
N             4.8661594333        4.6825867253       12.5640046446
N             3.2444785996        7.4925158493        1.9872166939
N             3.2445246212        7.4924851213        7.2751004749
N             3.2445093253        7.4926815728       12.5637309066
N             1.6223799080       10.3028886657        1.9874238412
N             1.6223790342       10.3028881612        7.2752114478
N             1.6223724727       10.3028843730       12.5638359043
N            -0.0004249993       13.1128537483        1.9872166939
N            -0.0004285998       13.1129089682        7.2751004749
N            -0.0002661156       13.1127974958       12.5637309066
N             9.7335528370        1.8732973474        1.9875619929
N             9.7335556645        1.8732717895        7.2749477926
N             9.7335687676        1.8731449555       12.5637888351
N             8.1109314731        4.6828511484        1.9873327573
N             8.1107045830        4.6827201533        7.2747150333
N             8.1110874703        4.6829412134       12.5635835315
N             6.4890971901        7.4928593708        1.9875619929
N             6.4890764701        7.4928745984        7.2749477926
N             6.4889731802        7.4929493630       12.5637888351
N             4.8670947940       10.3031884974        1.9871866577
N             4.8671404212       10.3031589415        7.2750769624
N             4.8669714031       10.3030743702       12.5637034027
N             3.2449970129       13.1127442693        1.9871866577
N             3.2449942304       13.1127985616        7.2750769624
N             3.2448364804       13.1126944732       12.5637034027
N            12.9797901229        1.8733942094        1.9882652342
N            12.9802559132        1.8731017669        7.2753329070
N            12.9790901167        1.8728966377       12.5641946765
N            11.3562919776        4.6829268927        1.9875271941
N            11.3565322255        4.6827904325        7.2749028160
N            11.3561578660        4.6830049133       12.5637839226
N             9.7336773219        7.4933779177        1.9875271941
N             9.7336792679        7.4936542086        7.2749028160
N             9.7336778339        7.4932227634       12.5637839226
N             8.1122997181       10.3041348961        1.9882652342
N             8.1122793506       10.3046845035        7.2753329070
N             8.1115188053       10.3037774587       12.5641946765
N             6.4887568643       13.1124927115        1.9865456146
N             6.4878935620       13.1119942837        7.2747031188
N             6.4897929709       13.1130909080       12.5641997547



     Writing config-only to output data dir ./GaN.save/
     NEW-OLD atomic charge density approx. for the potential

     Check: negative core charge=   -0.000003


     -----------------------------------------------
     Non-local corr. energy    =      81.67640932 Ry
     -----------------------------------------------


     total cpu time spent up to now is   155832.5 secs

     Self-consistent Calculation

     Maximum CPU time exceeded

     max_seconds     =  154800.00
     elapsed seconds =  155831.86
     Calculation stopped in scf loop at iteration #     0

     Writing config to output data dir ./GaN.save/
 
     init_run     :    112.40s CPU    117.74s WALL (       1 calls)
     electrons    : 147758.06s CPU 148960.73s WALL (       6 calls)
     update_pot   :     13.00s CPU     13.27s WALL (       5 calls)
     forces       :    322.97s CPU    328.11s WALL (       5 calls)
     stress       :   6268.54s CPU   6327.98s WALL (       5 calls)

     Called by init_run:
     wfcinit      :    107.09s CPU    112.15s WALL (       1 calls)
     wfcinit:atom :      0.22s CPU      0.41s WALL (       2 calls)
     wfcinit:wfcr :    105.69s CPU    110.11s WALL (       2 calls)
     potinit      :      2.84s CPU      2.98s WALL (       1 calls)
     hinit0       :      0.51s CPU      0.52s WALL (       1 calls)

     Called by electrons:
     c_bands      : 146112.63s CPU 147287.04s WALL (      71 calls)
     sum_band     :   1493.55s CPU   1512.29s WALL (      71 calls)
     v_of_rho     :     67.64s CPU     70.71s WALL (      75 calls)
     v_h          :      0.67s CPU      0.68s WALL (      75 calls)
     v_xc         :     75.86s CPU     79.47s WALL (      85 calls)
     newd         :     14.90s CPU     15.19s WALL (      75 calls)
     PAW_pot      :     42.80s CPU     43.15s WALL (      80 calls)
     mix_rho      :      3.77s CPU      3.86s WALL (      71 calls)
     vdW_kernel   :      0.16s CPU      0.17s WALL (       1 calls)

     Called by c_bands:
     init_us_2    :     81.60s CPU     82.90s WALL (     316 calls)
     init_us_2:cp :     81.60s CPU     82.90s WALL (     316 calls)
     cegterg      : 125742.34s CPU 126808.53s WALL (     143 calls)

     Called by sum_band:
     sum_band:wei :      0.57s CPU      0.58s WALL (      71 calls)
     sum_band:loo :   1470.89s CPU   1482.67s WALL (      71 calls)
     sum_band:buf :     17.65s CPU     17.93s WALL (     142 calls)
     sum_band:ini :     36.70s CPU     37.19s WALL (     142 calls)
     sum_band:cal :   1090.02s CPU   1097.49s WALL (     152 calls)
     sum_band:bec :      8.80s CPU      8.88s WALL (     152 calls)
     addusdens    :     14.78s CPU     15.25s WALL (      71 calls)
     addusd:skk   :      2.99s CPU      3.08s WALL (     142 calls)
     addusd:dgemm :      6.81s CPU      7.14s WALL (     142 calls)
     addusd:qvan2 :      1.70s CPU      1.72s WALL (     142 calls)

     Called by *egterg:
     cdiaghg      : 105630.37s CPU 106265.23s WALL (    2048 calls)
     cegterg:over :   4165.21s CPU   4266.53s WALL (    1917 calls)
     cegterg:upda :   2635.59s CPU   2677.45s WALL (    1917 calls)
     cegterg:last :   1217.60s CPU   1226.10s WALL (     146 calls)
     h_psi        :   8156.13s CPU   8277.67s WALL (    2062 calls)
     s_psi        :   2904.31s CPU   2951.47s WALL (    2062 calls)
     g_psi        :      8.59s CPU      8.71s WALL (    1917 calls)

     Called by h_psi:
     h_psi:calbec :   3078.62s CPU   3101.46s WALL (    2062 calls)
     vloc_psi     :   2138.13s CPU   2160.61s WALL (    2062 calls)
     add_vuspsi   :   2905.43s CPU   2955.01s WALL (    2062 calls)

     General routines
     calbec       :   4698.57s CPU   4732.54s WALL (    2264 calls)
     fft          :     33.38s CPU     33.83s WALL (    5567 calls)
     ffts         :      0.77s CPU      0.78s WALL (     146 calls)
     fftw         :   2325.76s CPU   2351.22s WALL ( 1534528 calls)
     interpolate  :      0.93s CPU      0.94s WALL (      75 calls)
     davcio       :      0.00s CPU      0.06s WALL (       2 calls)
 
     Parallel routines

     PAW routines
     PAW_pot      :     42.80s CPU     43.15s WALL (      80 calls)
     PAW_symme    :      1.39s CPU      1.41s WALL (     151 calls)
 
     PWSCF        :   1d18h56m CPU   1d19h17m WALL

 
   This run was terminated on:   6:22:36  11Mar2024            

=------------------------------------------------------------------------------=
   JOB DONE.
=------------------------------------------------------------------------------=
