
     Program PWSCF v.7.1 starts on 17Mar2024 at 11: 1:28 

     This program is part of the open-source Quantum ESPRESSO suite
     for quantum simulation of materials; please cite
         "P. Giannozzi et al., J. Phys.:Condens. Matter 21 395502 (2009);
         "P. Giannozzi et al., J. Phys.:Condens. Matter 29 465901 (2017);
         "P. Giannozzi et al., J. Chem. Phys. 152 154105 (2020);
          URL http://www.quantum-espresso.org", 
     in publications or presentations arising from this work. More details at
     http://www.quantum-espresso.org/quote

     Parallel version (MPI & OpenMP), running on     256 processor cores
     Number of MPI processes:               256
     Threads/MPI process:                     1

     MPI processes distributed on     2 nodes
     2025829 MiB available memory on the printing compute node when the environment starts
 
     Reading input from espresso.pwi
Warning: card &CELL ignored
Warning: card    CELL_DYNAMICS    = 'BFGS' ignored
Warning: card / ignored

     Current dimensions of program PWSCF are:
     Max number of different atomic species (ntypx) = 10
     Max number of k-points (npk) =  40000
     Max angular momentum in pseudopotentials (lmaxx) =  4
     file Ga.pbe-dn-kjpaw_psl.1.0.0.UPF: wavefunction(s)  4S renormalized
     file N.pbe-n-kjpaw_psl.1.0.0.UPF: wavefunction(s)  2S renormalized

     **************************************************************************
     Initializing libbeef V0.1.2 with the BEEF-vdW functional.
     Citation: Wellendorff et al., PRB 85, 235149 (2012).
     **************************************************************************


     IMPORTANT: XC functional enforced from input :
     Exchange-correlation= BEEF-VDW
                           (   1   4  43  14   2   0   0)
     Any further DFT definition will be discarded
     Please, verify this is what you really want

 
     K-points division:     npool     =       4
     R & G space division:  proc/nbgrp/npool/nimage =      64
     Subspace diagonalization in iterative solution of the eigenvalue problem:
     a serial algorithm will be used

 
     Parallelization info
     --------------------
     sticks:   dense  smooth     PW     G-vecs:    dense   smooth      PW
     Min         354     283     73                42160    30167    3987
     Max         356     285     74                42163    30170    3996
     Sum       22693   18145   4705              2698283  1930731  255309
 
     Using Slab Decomposition
 


     bravais-lattice index     =            4
     lattice parameter (alat)  =      30.6565  a.u.
     unit-cell volume          =   24400.9461 (a.u.)^3
     number of atoms/cell      =          299
     number of atomic types    =            2
     number of electrons       =      2694.00
     number of Kohn-Sham states=         1616
     kinetic-energy cutoff     =      70.0000  Ry
     charge density cutoff     =     350.0000  Ry
     scf convergence threshold =      1.0E-07
     mixing beta               =       0.7000
     number of iterations used =            8  plain     mixing
     energy convergence thresh.=      1.0E-04
     force convergence thresh. =      1.0E-03
     Exchange-correlation= BEEF-VDW
                           (   1   4  43  14   2   0   0)
     nstep                     =           50


     celldm(1)=  30.656540  celldm(2)=   0.000000  celldm(3)=   0.977927
     celldm(4)=   0.000000  celldm(5)=   0.000000  celldm(6)=   0.000000

     crystal axes: (cart. coord. in units of alat)
               a(1) = (   1.000000   0.000000   0.000000 )  
               a(2) = (  -0.500000   0.866025   0.000000 )  
               a(3) = (   0.000000   0.000000   0.977927 )  

     reciprocal axes: (cart. coord. in units 2 pi/alat)
               b(1) = (  1.000000  0.577350 -0.000000 )  
               b(2) = (  0.000000  1.154701  0.000000 )  
               b(3) = (  0.000000 -0.000000  1.022571 )  


     PseudoPot. # 1 for Ga read from file:
     //group///packages/espresso/pseudo/psl_1.0.0/pslibrary.1.0.0/pbe/PSEUDOPOTENTIALS/Ga.pbe-dn-kjpaw_psl.1.0.0.UPF
     MD5 check sum: cd2a01e492f15b435d17032472d8505c
     Pseudo is Projector augmented-wave + core cor, Zval = 13.0
     Generated using 'atomic' code by A. Dal Corso  v.7.1
     Shape of augmentation charge: PSQ
     Using radial grid of 1205 points,  6 beta functions with: 
                l(1) =   0
                l(2) =   0
                l(3) =   1
                l(4) =   1
                l(5) =   2
                l(6) =   2
     Q(r) pseudized with 0 coefficients 


     PseudoPot. # 2 for N  read from file:
     //group///packages/espresso/pseudo/psl_1.0.0/pslibrary.1.0.0/pbe/PSEUDOPOTENTIALS/N.pbe-n-kjpaw_psl.1.0.0.UPF
     MD5 check sum: f77f775694dac7e2c3fe1c82443d1a16
     Pseudo is Projector augmented-wave + core cor, Zval =  5.0
     Generated using 'atomic' code by A. Dal Corso  v.7.1
     Shape of augmentation charge: PSQ
     Using radial grid of 1085 points,  4 beta functions with: 
                l(1) =   0
                l(2) =   0
                l(3) =   1
                l(4) =   1
     Q(r) pseudized with 0 coefficients 


     atomic species   valence    mass     pseudopotential
        Ga            13.00    69.72300     Ga( 1.00)
        N              5.00    14.00700     N ( 1.00)

      2 Sym. Ops. (no inversion) found


                                    s                        frac. trans.

      isym =  1     identity                                     

 cryst.   s( 1) = (     1          0          0      )
                  (     0          1          0      )
                  (     0          0          1      )

 cart.    s( 1) = (  1.0000000  0.0000000  0.0000000 )
                  (  0.0000000  1.0000000  0.0000000 )
                  (  0.0000000  0.0000000  1.0000000 )


      isym =  2     inv. 180 deg rotation - cryst. axis [0,1,0]  

 cryst.   s( 2) = (     1          1          0      )
                  (     0         -1          0      )
                  (     0          0          1      )

 cart.    s( 2) = (  0.5000000  0.8660254  0.0000000 )
                  (  0.8660254 -0.5000000  0.0000000 )
                  (  0.0000000  0.0000000  1.0000000 )


     point group C_s (m)    
     there are  2 classes
     the character table:

       E     s    
A'     1.00  1.00
A''    1.00 -1.00

     the symmetry operations in each class and the name of the first element:

     E        1
          identity                                               
     s        2
          inv. 180 deg rotation - cryst. axis [0,1,0]            

   Cartesian axes

     site n.     atom                  positions (alat units)
         1           Ga  tau(   1) = (   0.1000001   0.0577350   0.1627148  )
         2           Ga  tau(   2) = (   0.1000001   0.0577350   0.4886906  )
         3           Ga  tau(   3) = (   0.1000001   0.0577350   0.8146665  )
         4           Ga  tau(   4) = (   0.0000001   0.2309401   0.1627148  )
         5           Ga  tau(   5) = (   0.0000001   0.2309401   0.4886906  )
         6           Ga  tau(   6) = (   0.0000001   0.2309401   0.8146665  )
         7           Ga  tau(   7) = (  -0.0999999   0.4041451   0.1627148  )
         8           Ga  tau(   8) = (  -0.0999999   0.4041451   0.4886906  )
         9           Ga  tau(   9) = (  -0.0999999   0.4041451   0.8146665  )
        10           Ga  tau(  10) = (  -0.1999999   0.5773502   0.1627148  )
        11           Ga  tau(  11) = (  -0.1999999   0.5773502   0.4886906  )
        12           Ga  tau(  12) = (  -0.1999999   0.5773502   0.8146665  )
        13           Ga  tau(  13) = (  -0.2999999   0.7505553   0.1627148  )
        14           Ga  tau(  14) = (  -0.2999999   0.7505553   0.4886906  )
        15           Ga  tau(  15) = (  -0.2999999   0.7505553   0.8146665  )
        16           Ga  tau(  16) = (   0.3000001   0.0577350   0.1627148  )
        17           Ga  tau(  17) = (   0.3000001   0.0577350   0.4886906  )
        18           Ga  tau(  18) = (   0.3000001   0.0577350   0.8146665  )
        19           Ga  tau(  19) = (   0.2000001   0.2309401   0.1627148  )
        20           Ga  tau(  20) = (   0.2000001   0.2309401   0.4886906  )
        21           Ga  tau(  21) = (   0.2000001   0.2309401   0.8146665  )
        22           Ga  tau(  22) = (   0.1000001   0.4041451   0.1627148  )
        23           Ga  tau(  23) = (   0.1000001   0.4041451   0.4886906  )
        24           Ga  tau(  24) = (   0.1000001   0.4041451   0.8146665  )
        25           Ga  tau(  25) = (   0.0000001   0.5773502   0.1627148  )
        26           Ga  tau(  26) = (   0.0000001   0.5773502   0.4886906  )
        27           Ga  tau(  27) = (   0.0000001   0.5773502   0.8146665  )
        28           Ga  tau(  28) = (  -0.0999999   0.7505553   0.1627148  )
        29           Ga  tau(  29) = (  -0.0999999   0.7505553   0.4886906  )
        30           Ga  tau(  30) = (  -0.0999999   0.7505553   0.8146665  )
        31           Ga  tau(  31) = (   0.5000001   0.0577350   0.1627148  )
        32           Ga  tau(  32) = (   0.5000001   0.0577350   0.4886906  )
        33           Ga  tau(  33) = (   0.5000001   0.0577350   0.8146665  )
        34           Ga  tau(  34) = (   0.4000001   0.2309401   0.1627148  )
        35           Ga  tau(  35) = (   0.4000001   0.2309401   0.4886906  )
        36           Ga  tau(  36) = (   0.4000001   0.2309401   0.8146665  )
        37           Ga  tau(  37) = (   0.3000001   0.4041451   0.1627148  )
        38           Ga  tau(  38) = (   0.3000001   0.4041451   0.4886906  )
        39           Ga  tau(  39) = (   0.3000001   0.4041451   0.8146665  )
        40           Ga  tau(  40) = (   0.2000001   0.5773502   0.1627148  )
        41           Ga  tau(  41) = (   0.2000001   0.5773502   0.4886906  )
        42           Ga  tau(  42) = (   0.2000001   0.5773502   0.8146665  )
        43           Ga  tau(  43) = (   0.1000001   0.7505553   0.1627148  )
        44           Ga  tau(  44) = (   0.1000001   0.7505553   0.4886906  )
        45           Ga  tau(  45) = (   0.1000001   0.7505553   0.8146665  )
        46           Ga  tau(  46) = (   0.7000001   0.0577350   0.1627148  )
        47           Ga  tau(  47) = (   0.7000001   0.0577350   0.4886906  )
        48           Ga  tau(  48) = (   0.7000001   0.0577350   0.8146665  )
        49           Ga  tau(  49) = (   0.6000001   0.2309401   0.1627148  )
        50           Ga  tau(  50) = (   0.6000001   0.2309401   0.4886906  )
        51           Ga  tau(  51) = (   0.6000001   0.2309401   0.8146665  )
        52           Ga  tau(  52) = (   0.5000001   0.4041451   0.1627148  )
        53           Ga  tau(  53) = (   0.5000001   0.4041451   0.4886906  )
        54           Ga  tau(  54) = (   0.5000001   0.4041451   0.8146665  )
        55           Ga  tau(  55) = (   0.4000001   0.5773502   0.1627148  )
        56           Ga  tau(  56) = (   0.4000001   0.5773502   0.4886906  )
        57           Ga  tau(  57) = (   0.4000001   0.5773502   0.8146665  )
        58           Ga  tau(  58) = (   0.3000001   0.7505553   0.1627148  )
        59           Ga  tau(  59) = (   0.3000001   0.7505553   0.4886906  )
        60           Ga  tau(  60) = (   0.3000001   0.7505553   0.8146665  )
        61           Ga  tau(  61) = (   0.9000001   0.0577350   0.1627148  )
        62           Ga  tau(  62) = (   0.9000001   0.0577350   0.4886906  )
        63           Ga  tau(  63) = (   0.9000001   0.0577350   0.8146665  )
        64           Ga  tau(  64) = (   0.8000001   0.2309401   0.1627148  )
        65           Ga  tau(  65) = (   0.8000001   0.2309401   0.4886906  )
        66           Ga  tau(  66) = (   0.8000001   0.2309401   0.8146665  )
        67           Ga  tau(  67) = (   0.7000001   0.4041451   0.1627148  )
        68           Ga  tau(  68) = (   0.7000001   0.4041451   0.4886906  )
        69           Ga  tau(  69) = (   0.7000001   0.4041451   0.8146665  )
        70           Ga  tau(  70) = (   0.6000001   0.5773502   0.1627148  )
        71           Ga  tau(  71) = (   0.6000001   0.5773502   0.4886906  )
        72           Ga  tau(  72) = (   0.6000001   0.5773502   0.8146665  )
        73           Ga  tau(  73) = (   0.5000001   0.7505553   0.1627148  )
        74           Ga  tau(  74) = (   0.5000001   0.7505553   0.4886906  )
        75           Ga  tau(  75) = (   0.5000001   0.7505553   0.8146665  )
        76           Ga  tau(  76) = (  -0.0000001   0.1154701   0.3257027  )
        77           Ga  tau(  77) = (  -0.0000001   0.1154701   0.6516786  )
        78           Ga  tau(  78) = (  -0.0000001   0.1154701   0.9776544  )
        79           Ga  tau(  79) = (  -0.1000001   0.2886752   0.3257027  )
        80           Ga  tau(  80) = (  -0.1000001   0.2886752   0.6516786  )
        81           Ga  tau(  81) = (  -0.1000001   0.2886752   0.9776544  )
        82           Ga  tau(  82) = (  -0.2000001   0.4618803   0.3257027  )
        83           Ga  tau(  83) = (  -0.2000001   0.4618803   0.6516786  )
        84           Ga  tau(  84) = (  -0.2000001   0.4618803   0.9776544  )
        85           Ga  tau(  85) = (  -0.3000001   0.6350854   0.3257027  )
        86           Ga  tau(  86) = (  -0.3000001   0.6350854   0.6516786  )
        87           Ga  tau(  87) = (  -0.3000001   0.6350854   0.9776544  )
        88           Ga  tau(  88) = (  -0.4000001   0.8082905   0.3257027  )
        89           Ga  tau(  89) = (  -0.4000001   0.8082905   0.6516786  )
        90           Ga  tau(  90) = (  -0.4000001   0.8082905   0.9776544  )
        91           Ga  tau(  91) = (   0.1999999   0.1154701   0.3257027  )
        92           Ga  tau(  92) = (   0.1999999   0.1154701   0.6516786  )
        93           Ga  tau(  93) = (   0.1999999   0.1154701   0.9776544  )
        94           Ga  tau(  94) = (   0.0999999   0.2886752   0.3257027  )
        95           Ga  tau(  95) = (   0.0999999   0.2886752   0.6516786  )
        96           Ga  tau(  96) = (   0.0999999   0.2886752   0.9776544  )
        97           Ga  tau(  97) = (  -0.0000001   0.4618803   0.3257027  )
        98           Ga  tau(  98) = (  -0.0000001   0.4618803   0.6516786  )
        99           Ga  tau(  99) = (  -0.0000001   0.4618803   0.9776544  )
       100           Ga  tau( 100) = (  -0.1000001   0.6350854   0.3257027  )
       101           Ga  tau( 101) = (  -0.1000001   0.6350854   0.6516786  )
       102           Ga  tau( 102) = (  -0.1000001   0.6350854   0.9776544  )
       103           Ga  tau( 103) = (  -0.2000001   0.8082905   0.3257027  )
       104           Ga  tau( 104) = (  -0.2000001   0.8082905   0.6516786  )
       105           Ga  tau( 105) = (  -0.2000001   0.8082905   0.9776544  )
       106           Ga  tau( 106) = (   0.3999999   0.1154701   0.3257027  )
       107           Ga  tau( 107) = (   0.3999999   0.1154701   0.6516786  )
       108           Ga  tau( 108) = (   0.3999999   0.1154701   0.9776544  )
       109           Ga  tau( 109) = (   0.2999999   0.2886752   0.3257027  )
       110           Ga  tau( 110) = (   0.2999999   0.2886752   0.6516786  )
       111           Ga  tau( 111) = (   0.2999999   0.2886752   0.9776544  )
       112           Ga  tau( 112) = (   0.1999999   0.4618803   0.3257027  )
       113           Ga  tau( 113) = (   0.1999999   0.4618803   0.6516786  )
       114           Ga  tau( 114) = (   0.1999999   0.4618803   0.9776544  )
       115           Ga  tau( 115) = (   0.0999999   0.6350854   0.3257027  )
       116           Ga  tau( 116) = (   0.0999999   0.6350854   0.6516786  )
       117           Ga  tau( 117) = (   0.0999999   0.6350854   0.9776544  )
       118           Ga  tau( 118) = (  -0.0000001   0.8082905   0.3257027  )
       119           Ga  tau( 119) = (  -0.0000001   0.8082905   0.6516786  )
       120           Ga  tau( 120) = (  -0.0000001   0.8082905   0.9776544  )
       121           Ga  tau( 121) = (   0.5999999   0.1154701   0.3257027  )
       122           Ga  tau( 122) = (   0.5999999   0.1154701   0.6516786  )
       123           Ga  tau( 123) = (   0.5999999   0.1154701   0.9776544  )
       124           Ga  tau( 124) = (   0.4999999   0.2886752   0.3257027  )
       125           Ga  tau( 125) = (   0.4999999   0.2886752   0.6516786  )
       126           Ga  tau( 126) = (   0.4999999   0.2886752   0.9776544  )
       127           Ga  tau( 127) = (   0.3999999   0.4618803   0.3257027  )
       128           Ga  tau( 128) = (   0.3999999   0.4618803   0.6516786  )
       129           Ga  tau( 129) = (   0.3999999   0.4618803   0.9776544  )
       130           Ga  tau( 130) = (   0.2999999   0.6350854   0.3257027  )
       131           Ga  tau( 131) = (   0.2999999   0.6350854   0.6516786  )
       132           Ga  tau( 132) = (   0.2999999   0.6350854   0.9776544  )
       133           Ga  tau( 133) = (   0.1999999   0.8082905   0.3257027  )
       134           Ga  tau( 134) = (   0.1999999   0.8082905   0.6516786  )
       135           Ga  tau( 135) = (   0.1999999   0.8082905   0.9776544  )
       136           Ga  tau( 136) = (   0.7999999   0.1154701   0.3257027  )
       137           Ga  tau( 137) = (   0.7999999   0.1154701   0.6516786  )
       138           Ga  tau( 138) = (   0.7999999   0.1154701   0.9776544  )
       139           Ga  tau( 139) = (   0.6999999   0.2886752   0.3257027  )
       140           Ga  tau( 140) = (   0.6999999   0.2886752   0.6516786  )
       141           Ga  tau( 141) = (   0.6999999   0.2886752   0.9776544  )
       142           Ga  tau( 142) = (   0.5999999   0.4618803   0.3257027  )
       143           Ga  tau( 143) = (   0.5999999   0.4618803   0.6516786  )
       144           Ga  tau( 144) = (   0.5999999   0.4618803   0.9776544  )
       145           Ga  tau( 145) = (   0.4999999   0.6350854   0.3257027  )
       146           Ga  tau( 146) = (   0.4999999   0.6350854   0.6516786  )
       147           Ga  tau( 147) = (   0.4999999   0.6350854   0.9776544  )
       148           Ga  tau( 148) = (   0.3999999   0.8082905   0.3257027  )
       149           Ga  tau( 149) = (   0.3999999   0.8082905   0.6516786  )
       150           Ga  tau( 150) = (   0.3999999   0.8082905   0.9776544  )
       151           N   tau( 151) = (   0.1000001   0.0577350   0.6114777  )
       152           N   tau( 152) = (   0.1000001   0.0577350   0.9374535  )
       153           N   tau( 153) = (   0.0000001   0.2309401   0.2855019  )
       154           N   tau( 154) = (   0.0000001   0.2309401   0.6114777  )
       155           N   tau( 155) = (   0.0000001   0.2309401   0.9374535  )
       156           N   tau( 156) = (  -0.0999999   0.4041451   0.2855019  )
       157           N   tau( 157) = (  -0.0999999   0.4041451   0.6114777  )
       158           N   tau( 158) = (  -0.0999999   0.4041451   0.9374535  )
       159           N   tau( 159) = (  -0.1999999   0.5773502   0.2855019  )
       160           N   tau( 160) = (  -0.1999999   0.5773502   0.6114777  )
       161           N   tau( 161) = (  -0.1999999   0.5773502   0.9374535  )
       162           N   tau( 162) = (  -0.2999999   0.7505553   0.2855019  )
       163           N   tau( 163) = (  -0.2999999   0.7505553   0.6114777  )
       164           N   tau( 164) = (  -0.2999999   0.7505553   0.9374535  )
       165           N   tau( 165) = (   0.3000001   0.0577350   0.2855019  )
       166           N   tau( 166) = (   0.3000001   0.0577350   0.6114777  )
       167           N   tau( 167) = (   0.3000001   0.0577350   0.9374535  )
       168           N   tau( 168) = (   0.2000001   0.2309401   0.2855019  )
       169           N   tau( 169) = (   0.2000001   0.2309401   0.6114777  )
       170           N   tau( 170) = (   0.2000001   0.2309401   0.9374535  )
       171           N   tau( 171) = (   0.1000001   0.4041451   0.2855019  )
       172           N   tau( 172) = (   0.1000001   0.4041451   0.6114777  )
       173           N   tau( 173) = (   0.1000001   0.4041451   0.9374535  )
       174           N   tau( 174) = (   0.0000001   0.5773502   0.2855019  )
       175           N   tau( 175) = (   0.0000001   0.5773502   0.6114777  )
       176           N   tau( 176) = (   0.0000001   0.5773502   0.9374535  )
       177           N   tau( 177) = (  -0.0999999   0.7505553   0.2855019  )
       178           N   tau( 178) = (  -0.0999999   0.7505553   0.6114777  )
       179           N   tau( 179) = (  -0.0999999   0.7505553   0.9374535  )
       180           N   tau( 180) = (   0.5000001   0.0577350   0.2855019  )
       181           N   tau( 181) = (   0.5000001   0.0577350   0.6114777  )
       182           N   tau( 182) = (   0.5000001   0.0577350   0.9374535  )
       183           N   tau( 183) = (   0.4000001   0.2309401   0.2855019  )
       184           N   tau( 184) = (   0.4000001   0.2309401   0.6114777  )
       185           N   tau( 185) = (   0.4000001   0.2309401   0.9374535  )
       186           N   tau( 186) = (   0.3000001   0.4041451   0.2855019  )
       187           N   tau( 187) = (   0.3000001   0.4041451   0.6114777  )
       188           N   tau( 188) = (   0.3000001   0.4041451   0.9374535  )
       189           N   tau( 189) = (   0.2000001   0.5773502   0.2855019  )
       190           N   tau( 190) = (   0.2000001   0.5773502   0.6114777  )
       191           N   tau( 191) = (   0.2000001   0.5773502   0.9374535  )
       192           N   tau( 192) = (   0.1000001   0.7505553   0.2855019  )
       193           N   tau( 193) = (   0.1000001   0.7505553   0.6114777  )
       194           N   tau( 194) = (   0.1000001   0.7505553   0.9374535  )
       195           N   tau( 195) = (   0.7000001   0.0577350   0.2855019  )
       196           N   tau( 196) = (   0.7000001   0.0577350   0.6114777  )
       197           N   tau( 197) = (   0.7000001   0.0577350   0.9374535  )
       198           N   tau( 198) = (   0.6000001   0.2309401   0.2855019  )
       199           N   tau( 199) = (   0.6000001   0.2309401   0.6114777  )
       200           N   tau( 200) = (   0.6000001   0.2309401   0.9374535  )
       201           N   tau( 201) = (   0.5000001   0.4041451   0.2855019  )
       202           N   tau( 202) = (   0.5000001   0.4041451   0.6114777  )
       203           N   tau( 203) = (   0.5000001   0.4041451   0.9374535  )
       204           N   tau( 204) = (   0.4000001   0.5773502   0.2855019  )
       205           N   tau( 205) = (   0.4000001   0.5773502   0.6114777  )
       206           N   tau( 206) = (   0.4000001   0.5773502   0.9374535  )
       207           N   tau( 207) = (   0.3000001   0.7505553   0.2855019  )
       208           N   tau( 208) = (   0.3000001   0.7505553   0.6114777  )
       209           N   tau( 209) = (   0.3000001   0.7505553   0.9374535  )
       210           N   tau( 210) = (   0.9000001   0.0577350   0.2855019  )
       211           N   tau( 211) = (   0.9000001   0.0577350   0.6114777  )
       212           N   tau( 212) = (   0.9000001   0.0577350   0.9374535  )
       213           N   tau( 213) = (   0.8000001   0.2309401   0.2855019  )
       214           N   tau( 214) = (   0.8000001   0.2309401   0.6114777  )
       215           N   tau( 215) = (   0.8000001   0.2309401   0.9374535  )
       216           N   tau( 216) = (   0.7000001   0.4041451   0.2855019  )
       217           N   tau( 217) = (   0.7000001   0.4041451   0.6114777  )
       218           N   tau( 218) = (   0.7000001   0.4041451   0.9374535  )
       219           N   tau( 219) = (   0.6000001   0.5773502   0.2855019  )
       220           N   tau( 220) = (   0.6000001   0.5773502   0.6114777  )
       221           N   tau( 221) = (   0.6000001   0.5773502   0.9374535  )
       222           N   tau( 222) = (   0.5000001   0.7505553   0.2855019  )
       223           N   tau( 223) = (   0.5000001   0.7505553   0.6114777  )
       224           N   tau( 224) = (   0.5000001   0.7505553   0.9374535  )
       225           N   tau( 225) = (  -0.0000001   0.1154701   0.1225140  )
       226           N   tau( 226) = (  -0.0000001   0.1154701   0.4484898  )
       227           N   tau( 227) = (  -0.0000001   0.1154701   0.7744656  )
       228           N   tau( 228) = (  -0.1000001   0.2886752   0.1225140  )
       229           N   tau( 229) = (  -0.1000001   0.2886752   0.4484898  )
       230           N   tau( 230) = (  -0.1000001   0.2886752   0.7744656  )
       231           N   tau( 231) = (  -0.2000001   0.4618803   0.1225140  )
       232           N   tau( 232) = (  -0.2000001   0.4618803   0.4484898  )
       233           N   tau( 233) = (  -0.2000001   0.4618803   0.7744656  )
       234           N   tau( 234) = (  -0.3000001   0.6350854   0.1225140  )
       235           N   tau( 235) = (  -0.3000001   0.6350854   0.4484898  )
       236           N   tau( 236) = (  -0.3000001   0.6350854   0.7744656  )
       237           N   tau( 237) = (  -0.4000001   0.8082905   0.1225140  )
       238           N   tau( 238) = (  -0.4000001   0.8082905   0.4484898  )
       239           N   tau( 239) = (  -0.4000001   0.8082905   0.7744656  )
       240           N   tau( 240) = (   0.1999999   0.1154701   0.1225140  )
       241           N   tau( 241) = (   0.1999999   0.1154701   0.4484898  )
       242           N   tau( 242) = (   0.1999999   0.1154701   0.7744656  )
       243           N   tau( 243) = (   0.0999999   0.2886752   0.1225140  )
       244           N   tau( 244) = (   0.0999999   0.2886752   0.4484898  )
       245           N   tau( 245) = (   0.0999999   0.2886752   0.7744656  )
       246           N   tau( 246) = (  -0.0000001   0.4618803   0.1225140  )
       247           N   tau( 247) = (  -0.0000001   0.4618803   0.4484898  )
       248           N   tau( 248) = (  -0.0000001   0.4618803   0.7744656  )
       249           N   tau( 249) = (  -0.1000001   0.6350854   0.1225140  )
       250           N   tau( 250) = (  -0.1000001   0.6350854   0.4484898  )
       251           N   tau( 251) = (  -0.1000001   0.6350854   0.7744656  )
       252           N   tau( 252) = (  -0.2000001   0.8082905   0.1225140  )
       253           N   tau( 253) = (  -0.2000001   0.8082905   0.4484898  )
       254           N   tau( 254) = (  -0.2000001   0.8082905   0.7744656  )
       255           N   tau( 255) = (   0.3999999   0.1154701   0.1225140  )
       256           N   tau( 256) = (   0.3999999   0.1154701   0.4484898  )
       257           N   tau( 257) = (   0.3999999   0.1154701   0.7744656  )
       258           N   tau( 258) = (   0.2999999   0.2886752   0.1225140  )
       259           N   tau( 259) = (   0.2999999   0.2886752   0.4484898  )
       260           N   tau( 260) = (   0.2999999   0.2886752   0.7744656  )
       261           N   tau( 261) = (   0.1999999   0.4618803   0.1225140  )
       262           N   tau( 262) = (   0.1999999   0.4618803   0.4484898  )
       263           N   tau( 263) = (   0.1999999   0.4618803   0.7744656  )
       264           N   tau( 264) = (   0.0999999   0.6350854   0.1225140  )
       265           N   tau( 265) = (   0.0999999   0.6350854   0.4484898  )
       266           N   tau( 266) = (   0.0999999   0.6350854   0.7744656  )
       267           N   tau( 267) = (  -0.0000001   0.8082905   0.1225140  )
       268           N   tau( 268) = (  -0.0000001   0.8082905   0.4484898  )
       269           N   tau( 269) = (  -0.0000001   0.8082905   0.7744656  )
       270           N   tau( 270) = (   0.5999999   0.1154701   0.1225140  )
       271           N   tau( 271) = (   0.5999999   0.1154701   0.4484898  )
       272           N   tau( 272) = (   0.5999999   0.1154701   0.7744656  )
       273           N   tau( 273) = (   0.4999999   0.2886752   0.1225140  )
       274           N   tau( 274) = (   0.4999999   0.2886752   0.4484898  )
       275           N   tau( 275) = (   0.4999999   0.2886752   0.7744656  )
       276           N   tau( 276) = (   0.3999999   0.4618803   0.1225140  )
       277           N   tau( 277) = (   0.3999999   0.4618803   0.4484898  )
       278           N   tau( 278) = (   0.3999999   0.4618803   0.7744656  )
       279           N   tau( 279) = (   0.2999999   0.6350854   0.1225140  )
       280           N   tau( 280) = (   0.2999999   0.6350854   0.4484898  )
       281           N   tau( 281) = (   0.2999999   0.6350854   0.7744656  )
       282           N   tau( 282) = (   0.1999999   0.8082905   0.1225140  )
       283           N   tau( 283) = (   0.1999999   0.8082905   0.4484898  )
       284           N   tau( 284) = (   0.1999999   0.8082905   0.7744656  )
       285           N   tau( 285) = (   0.7999999   0.1154701   0.1225140  )
       286           N   tau( 286) = (   0.7999999   0.1154701   0.4484898  )
       287           N   tau( 287) = (   0.7999999   0.1154701   0.7744656  )
       288           N   tau( 288) = (   0.6999999   0.2886752   0.1225140  )
       289           N   tau( 289) = (   0.6999999   0.2886752   0.4484898  )
       290           N   tau( 290) = (   0.6999999   0.2886752   0.7744656  )
       291           N   tau( 291) = (   0.5999999   0.4618803   0.1225140  )
       292           N   tau( 292) = (   0.5999999   0.4618803   0.4484898  )
       293           N   tau( 293) = (   0.5999999   0.4618803   0.7744656  )
       294           N   tau( 294) = (   0.4999999   0.6350854   0.1225140  )
       295           N   tau( 295) = (   0.4999999   0.6350854   0.4484898  )
       296           N   tau( 296) = (   0.4999999   0.6350854   0.7744656  )
       297           N   tau( 297) = (   0.3999999   0.8082905   0.1225140  )
       298           N   tau( 298) = (   0.3999999   0.8082905   0.4484898  )
       299           N   tau( 299) = (   0.3999999   0.8082905   0.7744656  )

   Crystallographic axes

     site n.     atom                  positions (cryst. coord.)
         1           Ga  tau(   1) = (  0.1333334  0.0666666  0.1663874  )
         2           Ga  tau(   2) = (  0.1333334  0.0666666  0.4997208  )
         3           Ga  tau(   3) = (  0.1333334  0.0666666  0.8330541  )
         4           Ga  tau(   4) = (  0.1333334  0.2666666  0.1663874  )
         5           Ga  tau(   5) = (  0.1333334  0.2666666  0.4997208  )
         6           Ga  tau(   6) = (  0.1333334  0.2666666  0.8330541  )
         7           Ga  tau(   7) = (  0.1333334  0.4666666  0.1663874  )
         8           Ga  tau(   8) = (  0.1333334  0.4666666  0.4997208  )
         9           Ga  tau(   9) = (  0.1333334  0.4666666  0.8330541  )
        10           Ga  tau(  10) = (  0.1333334  0.6666666  0.1663874  )
        11           Ga  tau(  11) = (  0.1333334  0.6666666  0.4997208  )
        12           Ga  tau(  12) = (  0.1333334  0.6666666  0.8330541  )
        13           Ga  tau(  13) = (  0.1333334  0.8666666  0.1663874  )
        14           Ga  tau(  14) = (  0.1333334  0.8666666  0.4997208  )
        15           Ga  tau(  15) = (  0.1333334  0.8666666  0.8330541  )
        16           Ga  tau(  16) = (  0.3333334  0.0666666  0.1663874  )
        17           Ga  tau(  17) = (  0.3333334  0.0666666  0.4997208  )
        18           Ga  tau(  18) = (  0.3333334  0.0666666  0.8330541  )
        19           Ga  tau(  19) = (  0.3333334  0.2666666  0.1663874  )
        20           Ga  tau(  20) = (  0.3333334  0.2666666  0.4997208  )
        21           Ga  tau(  21) = (  0.3333334  0.2666666  0.8330541  )
        22           Ga  tau(  22) = (  0.3333334  0.4666666  0.1663874  )
        23           Ga  tau(  23) = (  0.3333334  0.4666666  0.4997208  )
        24           Ga  tau(  24) = (  0.3333334  0.4666666  0.8330541  )
        25           Ga  tau(  25) = (  0.3333334  0.6666666  0.1663874  )
        26           Ga  tau(  26) = (  0.3333334  0.6666666  0.4997208  )
        27           Ga  tau(  27) = (  0.3333334  0.6666666  0.8330541  )
        28           Ga  tau(  28) = (  0.3333334  0.8666666  0.1663874  )
        29           Ga  tau(  29) = (  0.3333334  0.8666666  0.4997208  )
        30           Ga  tau(  30) = (  0.3333334  0.8666666  0.8330541  )
        31           Ga  tau(  31) = (  0.5333334  0.0666666  0.1663874  )
        32           Ga  tau(  32) = (  0.5333334  0.0666666  0.4997208  )
        33           Ga  tau(  33) = (  0.5333334  0.0666666  0.8330541  )
        34           Ga  tau(  34) = (  0.5333334  0.2666666  0.1663874  )
        35           Ga  tau(  35) = (  0.5333334  0.2666666  0.4997208  )
        36           Ga  tau(  36) = (  0.5333334  0.2666666  0.8330541  )
        37           Ga  tau(  37) = (  0.5333334  0.4666666  0.1663874  )
        38           Ga  tau(  38) = (  0.5333334  0.4666666  0.4997208  )
        39           Ga  tau(  39) = (  0.5333334  0.4666666  0.8330541  )
        40           Ga  tau(  40) = (  0.5333334  0.6666666  0.1663874  )
        41           Ga  tau(  41) = (  0.5333334  0.6666666  0.4997208  )
        42           Ga  tau(  42) = (  0.5333334  0.6666666  0.8330541  )
        43           Ga  tau(  43) = (  0.5333334  0.8666666  0.1663874  )
        44           Ga  tau(  44) = (  0.5333334  0.8666666  0.4997208  )
        45           Ga  tau(  45) = (  0.5333334  0.8666666  0.8330541  )
        46           Ga  tau(  46) = (  0.7333334  0.0666666  0.1663874  )
        47           Ga  tau(  47) = (  0.7333334  0.0666666  0.4997208  )
        48           Ga  tau(  48) = (  0.7333334  0.0666666  0.8330541  )
        49           Ga  tau(  49) = (  0.7333334  0.2666666  0.1663874  )
        50           Ga  tau(  50) = (  0.7333334  0.2666666  0.4997208  )
        51           Ga  tau(  51) = (  0.7333334  0.2666666  0.8330541  )
        52           Ga  tau(  52) = (  0.7333334  0.4666666  0.1663874  )
        53           Ga  tau(  53) = (  0.7333334  0.4666666  0.4997208  )
        54           Ga  tau(  54) = (  0.7333334  0.4666666  0.8330541  )
        55           Ga  tau(  55) = (  0.7333334  0.6666666  0.1663874  )
        56           Ga  tau(  56) = (  0.7333334  0.6666666  0.4997208  )
        57           Ga  tau(  57) = (  0.7333334  0.6666666  0.8330541  )
        58           Ga  tau(  58) = (  0.7333334  0.8666666  0.1663874  )
        59           Ga  tau(  59) = (  0.7333334  0.8666666  0.4997208  )
        60           Ga  tau(  60) = (  0.7333334  0.8666666  0.8330541  )
        61           Ga  tau(  61) = (  0.9333334  0.0666666  0.1663874  )
        62           Ga  tau(  62) = (  0.9333334  0.0666666  0.4997208  )
        63           Ga  tau(  63) = (  0.9333334  0.0666666  0.8330541  )
        64           Ga  tau(  64) = (  0.9333334  0.2666666  0.1663874  )
        65           Ga  tau(  65) = (  0.9333334  0.2666666  0.4997208  )
        66           Ga  tau(  66) = (  0.9333334  0.2666666  0.8330541  )
        67           Ga  tau(  67) = (  0.9333334  0.4666666  0.1663874  )
        68           Ga  tau(  68) = (  0.9333334  0.4666666  0.4997208  )
        69           Ga  tau(  69) = (  0.9333334  0.4666666  0.8330541  )
        70           Ga  tau(  70) = (  0.9333334  0.6666666  0.1663874  )
        71           Ga  tau(  71) = (  0.9333334  0.6666666  0.4997208  )
        72           Ga  tau(  72) = (  0.9333334  0.6666666  0.8330541  )
        73           Ga  tau(  73) = (  0.9333334  0.8666666  0.1663874  )
        74           Ga  tau(  74) = (  0.9333334  0.8666666  0.4997208  )
        75           Ga  tau(  75) = (  0.9333334  0.8666666  0.8330541  )
        76           Ga  tau(  76) = (  0.0666666  0.1333334  0.3330541  )
        77           Ga  tau(  77) = (  0.0666666  0.1333334  0.6663874  )
        78           Ga  tau(  78) = (  0.0666666  0.1333334  0.9997208  )
        79           Ga  tau(  79) = (  0.0666666  0.3333334  0.3330541  )
        80           Ga  tau(  80) = (  0.0666666  0.3333334  0.6663874  )
        81           Ga  tau(  81) = (  0.0666666  0.3333334  0.9997208  )
        82           Ga  tau(  82) = (  0.0666666  0.5333334  0.3330541  )
        83           Ga  tau(  83) = (  0.0666666  0.5333334  0.6663874  )
        84           Ga  tau(  84) = (  0.0666666  0.5333334  0.9997208  )
        85           Ga  tau(  85) = (  0.0666666  0.7333334  0.3330541  )
        86           Ga  tau(  86) = (  0.0666666  0.7333334  0.6663874  )
        87           Ga  tau(  87) = (  0.0666666  0.7333334  0.9997208  )
        88           Ga  tau(  88) = (  0.0666666  0.9333334  0.3330541  )
        89           Ga  tau(  89) = (  0.0666666  0.9333334  0.6663874  )
        90           Ga  tau(  90) = (  0.0666666  0.9333334  0.9997208  )
        91           Ga  tau(  91) = (  0.2666666  0.1333334  0.3330541  )
        92           Ga  tau(  92) = (  0.2666666  0.1333334  0.6663874  )
        93           Ga  tau(  93) = (  0.2666666  0.1333334  0.9997208  )
        94           Ga  tau(  94) = (  0.2666666  0.3333334  0.3330541  )
        95           Ga  tau(  95) = (  0.2666666  0.3333334  0.6663874  )
        96           Ga  tau(  96) = (  0.2666666  0.3333334  0.9997208  )
        97           Ga  tau(  97) = (  0.2666666  0.5333334  0.3330541  )
        98           Ga  tau(  98) = (  0.2666666  0.5333334  0.6663874  )
        99           Ga  tau(  99) = (  0.2666666  0.5333334  0.9997208  )
       100           Ga  tau( 100) = (  0.2666666  0.7333334  0.3330541  )
       101           Ga  tau( 101) = (  0.2666666  0.7333334  0.6663874  )
       102           Ga  tau( 102) = (  0.2666666  0.7333334  0.9997208  )
       103           Ga  tau( 103) = (  0.2666666  0.9333334  0.3330541  )
       104           Ga  tau( 104) = (  0.2666666  0.9333334  0.6663874  )
       105           Ga  tau( 105) = (  0.2666666  0.9333334  0.9997208  )
       106           Ga  tau( 106) = (  0.4666666  0.1333334  0.3330541  )
       107           Ga  tau( 107) = (  0.4666666  0.1333334  0.6663874  )
       108           Ga  tau( 108) = (  0.4666666  0.1333334  0.9997208  )
       109           Ga  tau( 109) = (  0.4666666  0.3333334  0.3330541  )
       110           Ga  tau( 110) = (  0.4666666  0.3333334  0.6663874  )
       111           Ga  tau( 111) = (  0.4666666  0.3333334  0.9997208  )
       112           Ga  tau( 112) = (  0.4666666  0.5333334  0.3330541  )
       113           Ga  tau( 113) = (  0.4666666  0.5333334  0.6663874  )
       114           Ga  tau( 114) = (  0.4666666  0.5333334  0.9997208  )
       115           Ga  tau( 115) = (  0.4666666  0.7333334  0.3330541  )
       116           Ga  tau( 116) = (  0.4666666  0.7333334  0.6663874  )
       117           Ga  tau( 117) = (  0.4666666  0.7333334  0.9997208  )
       118           Ga  tau( 118) = (  0.4666666  0.9333334  0.3330541  )
       119           Ga  tau( 119) = (  0.4666666  0.9333334  0.6663874  )
       120           Ga  tau( 120) = (  0.4666666  0.9333334  0.9997208  )
       121           Ga  tau( 121) = (  0.6666666  0.1333334  0.3330541  )
       122           Ga  tau( 122) = (  0.6666666  0.1333334  0.6663874  )
       123           Ga  tau( 123) = (  0.6666666  0.1333334  0.9997208  )
       124           Ga  tau( 124) = (  0.6666666  0.3333334  0.3330541  )
       125           Ga  tau( 125) = (  0.6666666  0.3333334  0.6663874  )
       126           Ga  tau( 126) = (  0.6666666  0.3333334  0.9997208  )
       127           Ga  tau( 127) = (  0.6666666  0.5333334  0.3330541  )
       128           Ga  tau( 128) = (  0.6666666  0.5333334  0.6663874  )
       129           Ga  tau( 129) = (  0.6666666  0.5333334  0.9997208  )
       130           Ga  tau( 130) = (  0.6666666  0.7333334  0.3330541  )
       131           Ga  tau( 131) = (  0.6666666  0.7333334  0.6663874  )
       132           Ga  tau( 132) = (  0.6666666  0.7333334  0.9997208  )
       133           Ga  tau( 133) = (  0.6666666  0.9333334  0.3330541  )
       134           Ga  tau( 134) = (  0.6666666  0.9333334  0.6663874  )
       135           Ga  tau( 135) = (  0.6666666  0.9333334  0.9997208  )
       136           Ga  tau( 136) = (  0.8666666  0.1333334  0.3330541  )
       137           Ga  tau( 137) = (  0.8666666  0.1333334  0.6663874  )
       138           Ga  tau( 138) = (  0.8666666  0.1333334  0.9997208  )
       139           Ga  tau( 139) = (  0.8666666  0.3333334  0.3330541  )
       140           Ga  tau( 140) = (  0.8666666  0.3333334  0.6663874  )
       141           Ga  tau( 141) = (  0.8666666  0.3333334  0.9997208  )
       142           Ga  tau( 142) = (  0.8666666  0.5333334  0.3330541  )
       143           Ga  tau( 143) = (  0.8666666  0.5333334  0.6663874  )
       144           Ga  tau( 144) = (  0.8666666  0.5333334  0.9997208  )
       145           Ga  tau( 145) = (  0.8666666  0.7333334  0.3330541  )
       146           Ga  tau( 146) = (  0.8666666  0.7333334  0.6663874  )
       147           Ga  tau( 147) = (  0.8666666  0.7333334  0.9997208  )
       148           Ga  tau( 148) = (  0.8666666  0.9333334  0.3330541  )
       149           Ga  tau( 149) = (  0.8666666  0.9333334  0.6663874  )
       150           Ga  tau( 150) = (  0.8666666  0.9333334  0.9997208  )
       151           N   tau( 151) = (  0.1333334  0.0666666  0.6252792  )
       152           N   tau( 152) = (  0.1333334  0.0666666  0.9586126  )
       153           N   tau( 153) = (  0.1333334  0.2666666  0.2919459  )
       154           N   tau( 154) = (  0.1333334  0.2666666  0.6252792  )
       155           N   tau( 155) = (  0.1333334  0.2666666  0.9586126  )
       156           N   tau( 156) = (  0.1333334  0.4666666  0.2919459  )
       157           N   tau( 157) = (  0.1333334  0.4666666  0.6252792  )
       158           N   tau( 158) = (  0.1333334  0.4666666  0.9586126  )
       159           N   tau( 159) = (  0.1333334  0.6666666  0.2919459  )
       160           N   tau( 160) = (  0.1333334  0.6666666  0.6252792  )
       161           N   tau( 161) = (  0.1333334  0.6666666  0.9586126  )
       162           N   tau( 162) = (  0.1333334  0.8666666  0.2919459  )
       163           N   tau( 163) = (  0.1333334  0.8666666  0.6252792  )
       164           N   tau( 164) = (  0.1333334  0.8666666  0.9586126  )
       165           N   tau( 165) = (  0.3333334  0.0666666  0.2919459  )
       166           N   tau( 166) = (  0.3333334  0.0666666  0.6252792  )
       167           N   tau( 167) = (  0.3333334  0.0666666  0.9586126  )
       168           N   tau( 168) = (  0.3333334  0.2666666  0.2919459  )
       169           N   tau( 169) = (  0.3333334  0.2666666  0.6252792  )
       170           N   tau( 170) = (  0.3333334  0.2666666  0.9586126  )
       171           N   tau( 171) = (  0.3333334  0.4666666  0.2919459  )
       172           N   tau( 172) = (  0.3333334  0.4666666  0.6252792  )
       173           N   tau( 173) = (  0.3333334  0.4666666  0.9586126  )
       174           N   tau( 174) = (  0.3333334  0.6666666  0.2919459  )
       175           N   tau( 175) = (  0.3333334  0.6666666  0.6252792  )
       176           N   tau( 176) = (  0.3333334  0.6666666  0.9586126  )
       177           N   tau( 177) = (  0.3333334  0.8666666  0.2919459  )
       178           N   tau( 178) = (  0.3333334  0.8666666  0.6252792  )
       179           N   tau( 179) = (  0.3333334  0.8666666  0.9586126  )
       180           N   tau( 180) = (  0.5333334  0.0666666  0.2919459  )
       181           N   tau( 181) = (  0.5333334  0.0666666  0.6252792  )
       182           N   tau( 182) = (  0.5333334  0.0666666  0.9586126  )
       183           N   tau( 183) = (  0.5333334  0.2666666  0.2919459  )
       184           N   tau( 184) = (  0.5333334  0.2666666  0.6252792  )
       185           N   tau( 185) = (  0.5333334  0.2666666  0.9586126  )
       186           N   tau( 186) = (  0.5333334  0.4666666  0.2919459  )
       187           N   tau( 187) = (  0.5333334  0.4666666  0.6252792  )
       188           N   tau( 188) = (  0.5333334  0.4666666  0.9586126  )
       189           N   tau( 189) = (  0.5333334  0.6666666  0.2919459  )
       190           N   tau( 190) = (  0.5333334  0.6666666  0.6252792  )
       191           N   tau( 191) = (  0.5333334  0.6666666  0.9586126  )
       192           N   tau( 192) = (  0.5333334  0.8666666  0.2919459  )
       193           N   tau( 193) = (  0.5333334  0.8666666  0.6252792  )
       194           N   tau( 194) = (  0.5333334  0.8666666  0.9586126  )
       195           N   tau( 195) = (  0.7333334  0.0666666  0.2919459  )
       196           N   tau( 196) = (  0.7333334  0.0666666  0.6252792  )
       197           N   tau( 197) = (  0.7333334  0.0666666  0.9586126  )
       198           N   tau( 198) = (  0.7333334  0.2666666  0.2919459  )
       199           N   tau( 199) = (  0.7333334  0.2666666  0.6252792  )
       200           N   tau( 200) = (  0.7333334  0.2666666  0.9586126  )
       201           N   tau( 201) = (  0.7333334  0.4666666  0.2919459  )
       202           N   tau( 202) = (  0.7333334  0.4666666  0.6252792  )
       203           N   tau( 203) = (  0.7333334  0.4666666  0.9586126  )
       204           N   tau( 204) = (  0.7333334  0.6666666  0.2919459  )
       205           N   tau( 205) = (  0.7333334  0.6666666  0.6252792  )
       206           N   tau( 206) = (  0.7333334  0.6666666  0.9586126  )
       207           N   tau( 207) = (  0.7333334  0.8666666  0.2919459  )
       208           N   tau( 208) = (  0.7333334  0.8666666  0.6252792  )
       209           N   tau( 209) = (  0.7333334  0.8666666  0.9586126  )
       210           N   tau( 210) = (  0.9333334  0.0666666  0.2919459  )
       211           N   tau( 211) = (  0.9333334  0.0666666  0.6252792  )
       212           N   tau( 212) = (  0.9333334  0.0666666  0.9586126  )
       213           N   tau( 213) = (  0.9333334  0.2666666  0.2919459  )
       214           N   tau( 214) = (  0.9333334  0.2666666  0.6252792  )
       215           N   tau( 215) = (  0.9333334  0.2666666  0.9586126  )
       216           N   tau( 216) = (  0.9333334  0.4666666  0.2919459  )
       217           N   tau( 217) = (  0.9333334  0.4666666  0.6252792  )
       218           N   tau( 218) = (  0.9333334  0.4666666  0.9586126  )
       219           N   tau( 219) = (  0.9333334  0.6666666  0.2919459  )
       220           N   tau( 220) = (  0.9333334  0.6666666  0.6252792  )
       221           N   tau( 221) = (  0.9333334  0.6666666  0.9586126  )
       222           N   tau( 222) = (  0.9333334  0.8666666  0.2919459  )
       223           N   tau( 223) = (  0.9333334  0.8666666  0.6252792  )
       224           N   tau( 224) = (  0.9333334  0.8666666  0.9586126  )
       225           N   tau( 225) = (  0.0666666  0.1333334  0.1252792  )
       226           N   tau( 226) = (  0.0666666  0.1333334  0.4586126  )
       227           N   tau( 227) = (  0.0666666  0.1333334  0.7919459  )
       228           N   tau( 228) = (  0.0666666  0.3333334  0.1252792  )
       229           N   tau( 229) = (  0.0666666  0.3333334  0.4586126  )
       230           N   tau( 230) = (  0.0666666  0.3333334  0.7919459  )
       231           N   tau( 231) = (  0.0666666  0.5333334  0.1252792  )
       232           N   tau( 232) = (  0.0666666  0.5333334  0.4586126  )
       233           N   tau( 233) = (  0.0666666  0.5333334  0.7919459  )
       234           N   tau( 234) = (  0.0666666  0.7333334  0.1252792  )
       235           N   tau( 235) = (  0.0666666  0.7333334  0.4586126  )
       236           N   tau( 236) = (  0.0666666  0.7333334  0.7919459  )
       237           N   tau( 237) = (  0.0666666  0.9333334  0.1252792  )
       238           N   tau( 238) = (  0.0666666  0.9333334  0.4586126  )
       239           N   tau( 239) = (  0.0666666  0.9333334  0.7919459  )
       240           N   tau( 240) = (  0.2666666  0.1333334  0.1252792  )
       241           N   tau( 241) = (  0.2666666  0.1333334  0.4586126  )
       242           N   tau( 242) = (  0.2666666  0.1333334  0.7919459  )
       243           N   tau( 243) = (  0.2666666  0.3333334  0.1252792  )
       244           N   tau( 244) = (  0.2666666  0.3333334  0.4586126  )
       245           N   tau( 245) = (  0.2666666  0.3333334  0.7919459  )
       246           N   tau( 246) = (  0.2666666  0.5333334  0.1252792  )
       247           N   tau( 247) = (  0.2666666  0.5333334  0.4586126  )
       248           N   tau( 248) = (  0.2666666  0.5333334  0.7919459  )
       249           N   tau( 249) = (  0.2666666  0.7333334  0.1252792  )
       250           N   tau( 250) = (  0.2666666  0.7333334  0.4586126  )
       251           N   tau( 251) = (  0.2666666  0.7333334  0.7919459  )
       252           N   tau( 252) = (  0.2666666  0.9333334  0.1252792  )
       253           N   tau( 253) = (  0.2666666  0.9333334  0.4586126  )
       254           N   tau( 254) = (  0.2666666  0.9333334  0.7919459  )
       255           N   tau( 255) = (  0.4666666  0.1333334  0.1252792  )
       256           N   tau( 256) = (  0.4666666  0.1333334  0.4586126  )
       257           N   tau( 257) = (  0.4666666  0.1333334  0.7919459  )
       258           N   tau( 258) = (  0.4666666  0.3333334  0.1252792  )
       259           N   tau( 259) = (  0.4666666  0.3333334  0.4586126  )
       260           N   tau( 260) = (  0.4666666  0.3333334  0.7919459  )
       261           N   tau( 261) = (  0.4666666  0.5333334  0.1252792  )
       262           N   tau( 262) = (  0.4666666  0.5333334  0.4586126  )
       263           N   tau( 263) = (  0.4666666  0.5333334  0.7919459  )
       264           N   tau( 264) = (  0.4666666  0.7333334  0.1252792  )
       265           N   tau( 265) = (  0.4666666  0.7333334  0.4586126  )
       266           N   tau( 266) = (  0.4666666  0.7333334  0.7919459  )
       267           N   tau( 267) = (  0.4666666  0.9333334  0.1252792  )
       268           N   tau( 268) = (  0.4666666  0.9333334  0.4586126  )
       269           N   tau( 269) = (  0.4666666  0.9333334  0.7919459  )
       270           N   tau( 270) = (  0.6666666  0.1333334  0.1252792  )
       271           N   tau( 271) = (  0.6666666  0.1333334  0.4586126  )
       272           N   tau( 272) = (  0.6666666  0.1333334  0.7919459  )
       273           N   tau( 273) = (  0.6666666  0.3333334  0.1252792  )
       274           N   tau( 274) = (  0.6666666  0.3333334  0.4586126  )
       275           N   tau( 275) = (  0.6666666  0.3333334  0.7919459  )
       276           N   tau( 276) = (  0.6666666  0.5333334  0.1252792  )
       277           N   tau( 277) = (  0.6666666  0.5333334  0.4586126  )
       278           N   tau( 278) = (  0.6666666  0.5333334  0.7919459  )
       279           N   tau( 279) = (  0.6666666  0.7333334  0.1252792  )
       280           N   tau( 280) = (  0.6666666  0.7333334  0.4586126  )
       281           N   tau( 281) = (  0.6666666  0.7333334  0.7919459  )
       282           N   tau( 282) = (  0.6666666  0.9333334  0.1252792  )
       283           N   tau( 283) = (  0.6666666  0.9333334  0.4586126  )
       284           N   tau( 284) = (  0.6666666  0.9333334  0.7919459  )
       285           N   tau( 285) = (  0.8666666  0.1333334  0.1252792  )
       286           N   tau( 286) = (  0.8666666  0.1333334  0.4586126  )
       287           N   tau( 287) = (  0.8666666  0.1333334  0.7919459  )
       288           N   tau( 288) = (  0.8666666  0.3333334  0.1252792  )
       289           N   tau( 289) = (  0.8666666  0.3333334  0.4586126  )
       290           N   tau( 290) = (  0.8666666  0.3333334  0.7919459  )
       291           N   tau( 291) = (  0.8666666  0.5333334  0.1252792  )
       292           N   tau( 292) = (  0.8666666  0.5333334  0.4586126  )
       293           N   tau( 293) = (  0.8666666  0.5333334  0.7919459  )
       294           N   tau( 294) = (  0.8666666  0.7333334  0.1252792  )
       295           N   tau( 295) = (  0.8666666  0.7333334  0.4586126  )
       296           N   tau( 296) = (  0.8666666  0.7333334  0.7919459  )
       297           N   tau( 297) = (  0.8666666  0.9333334  0.1252792  )
       298           N   tau( 298) = (  0.8666666  0.9333334  0.4586126  )
       299           N   tau( 299) = (  0.8666666  0.9333334  0.7919459  )

     number of k points=     6  Gaussian smearing, width (Ry)=  0.0100
                       cart. coord. in units 2pi/alat
        k(    1) = (   0.0000000   0.0000000   0.0000000), wk =   0.2500000
        k(    2) = (   0.0000000   0.0000000  -0.5112854), wk =   0.2500000
        k(    3) = (   0.0000000  -0.5773503   0.0000000), wk =   0.5000000
        k(    4) = (   0.0000000  -0.5773503  -0.5112854), wk =   0.5000000
        k(    5) = (  -0.5000000  -0.2886751   0.0000000), wk =   0.2500000
        k(    6) = (  -0.5000000  -0.2886751  -0.5112854), wk =   0.2500000

                       cryst. coord.
        k(    1) = (   0.0000000   0.0000000   0.0000000), wk =   0.2500000
        k(    2) = (   0.0000000   0.0000000  -0.5000000), wk =   0.2500000
        k(    3) = (   0.0000000  -0.5000000   0.0000000), wk =   0.5000000
        k(    4) = (   0.0000000  -0.5000000  -0.5000000), wk =   0.5000000
        k(    5) = (  -0.5000000  -0.0000000   0.0000000), wk =   0.2500000
        k(    6) = (  -0.5000000  -0.0000000  -0.5000000), wk =   0.2500000

     Dense  grid:  2698283 G-vectors     FFT dimensions: ( 192, 192, 180)

     Smooth grid:  1930731 G-vectors     FFT dimensions: ( 180, 180, 160)

     Dynamical RAM for                 wfc:      92.96 MB

     Dynamical RAM for     wfc (w. buffer):     278.88 MB

     Dynamical RAM for           str. fact:       1.29 MB

     Dynamical RAM for           local pot:       0.00 MB

     Dynamical RAM for          nlocal pot:     223.89 MB

     Dynamical RAM for                qrad:       3.00 MB

     Dynamical RAM for          rho,v,vnew:       4.46 MB

     Dynamical RAM for               rhoin:       1.49 MB

     Dynamical RAM for            rho*nmix:      10.29 MB

     Dynamical RAM for           G-vectors:       2.64 MB

     Dynamical RAM for          h,s,v(r/c):    1912.69 MB

     Dynamical RAM for          <psi|beta>:      95.97 MB

     Dynamical RAM for                 psi:     371.85 MB

     Dynamical RAM for                hpsi:     371.85 MB

     Dynamical RAM for                spsi:     371.85 MB

     Dynamical RAM for      wfcinit/wfcrot:     245.71 MB

     Dynamical RAM for           addusdens:      54.52 MB

     Dynamical RAM for          addusforce:     102.87 MB

     Dynamical RAM for         addusstress:      32.57 MB

     Estimated static dynamical RAM per process >     521.80 MB

     Estimated max dynamical RAM per process >       3.57 GB

     Estimated total dynamical RAM >     912.14 GB

     Atomic positions and unit cell read from directory:
     ./GaN.save/
     Atomic positions from file used, from input discarded
 

     Check: negative core charge=   -0.000003

     The initial density is read from file :
     ./GaN.save/charge-density



     %%%%%%%%%%%%%%%%%%%%%%%%%%%%%%%%%%%%%%%%%%%%%%%%%%%%%%%%%%%%%%%%%%%%%%%%
     %                                                                      %
     % You are using vdW-DF, which was implemented by the Thonhauser group. %
     % Please cite the following two papers that made this development      %
     % possible and the two reviews that describe the various versions:     %
     %                                                                      %
     %   T. Thonhauser et al., PRL 115, 136402 (2015).                      %
     %   T. Thonhauser et al., PRB 76, 125112 (2007).                       %
     %   K. Berland et al., Rep. Prog. Phys. 78, 066501 (2015).             %
     %   D.C. Langreth et al., J. Phys.: Condens. Matter 21, 084203 (2009). %
     %                                                                      %
     % If you are calculating stress with vdW-DF, please also cite:         %
     %                                                                      %
     %   R. Sabatini et al., J. Phys.: Condens. Matter 24, 424209 (2012).   %
     %                                                                      %
     %%%%%%%%%%%%%%%%%%%%%%%%%%%%%%%%%%%%%%%%%%%%%%%%%%%%%%%%%%%%%%%%%%%%%%%%

     %%%%%%%%%%%%%%%%%%%%%%%%%%%%%%%%%%%%%%%%%%%%%%%%%%%%%%%%%%%%%%%%%%%%%%%%
     %                                                                      %
     %  vdW-DF NEWS:                                                        %
     %                                                                      %
     %  * vdW-DF3 is now available. DOI: 10.1021/acs.jctc.0c00471           %
     %    use with input_dft = 'vdW-DF3-opt1' or 'vdW-DF3-opt2'             %
     %                                                                      %
     %  * Unscreened and range-separated vdW-DF hybrid functionals          %
     %    DOI: 10.1063/1.4986522 and 10.1088/1361-648X/ac2ad2               %
     %    use with input_dft = 'vdW-DF-cx0' (etc) and 'vdW-DF-ahcx'         %
     %                                                                      %
     %%%%%%%%%%%%%%%%%%%%%%%%%%%%%%%%%%%%%%%%%%%%%%%%%%%%%%%%%%%%%%%%%%%%%%%%


     Carrying out vdW-DF run using the following parameters:
     Nqs    =  20  Npoints =  1024  r_max =  100.000
     q_mesh =  0.00001000  0.04494208  0.09755937  0.15916263
               0.23128650  0.31572767  0.41458969  0.53033537
               0.66584808  0.82450364  1.01025438  1.22772762
               1.48234092  1.78043706  2.12944203  2.53805004
               3.01644009  3.57652955  4.23227104  5.00000000


     -----------------------------------------------
     Non-local corr. energy    =      81.68741023 Ry
     -----------------------------------------------

     Wavefunctions not found or not readable, recomputing them from scratch
     Starting wfcs are 1946 randomized atomic wfcs
     Checking if some PAW data can be deallocated... 
       PAW data deallocated on  149 nodes for type:  1
       PAW data deallocated on  107 nodes for type:  2

     total cpu time spent up to now is      122.4 secs

     Self-consistent Calculation

     iteration #  1     ecut=    70.00 Ry     beta= 0.70
     Davidson diagonalization with overlap

---- Real-time Memory Report at c_bands before calling an iterative solver
          1246 MiB given to the printing process from OS
             0 MiB allocation reported by mallinfo(arena+hblkhd)
       1942758 MiB available memory on the node where the printing process lives
------------------
     ethr =  1.00E-05,  avg # of iterations = 31.7

     Threshold (ethr) on eigenvalues was too large:
     Diagonalizing with lowered threshold

     Davidson diagonalization with overlap

---- Real-time Memory Report at c_bands before calling an iterative solver
          3591 MiB given to the printing process from OS
             0 MiB allocation reported by mallinfo(arena+hblkhd)
       1945296 MiB available memory on the node where the printing process lives
------------------
     c_bands:  4 eigenvalues not converged
     ethr =  2.32E-08,  avg # of iterations = 81.2


     -----------------------------------------------
     Non-local corr. energy    =      81.68753142 Ry
     -----------------------------------------------


     total cpu time spent up to now is    11342.5 secs

     total energy              =  -46815.18972738 Ry
     estimated scf accuracy    <       0.00000013 Ry

     iteration #  2     ecut=    70.00 Ry     beta= 0.70
     Davidson diagonalization with overlap

---- Real-time Memory Report at c_bands before calling an iterative solver
          3601 MiB given to the printing process from OS
             0 MiB allocation reported by mallinfo(arena+hblkhd)
       1922786 MiB available memory on the node where the printing process lives
------------------
     c_bands:  4 eigenvalues not converged
     c_bands: 10 eigenvalues not converged
     ethr =  4.64E-12,  avg # of iterations =113.3


     -----------------------------------------------
     Non-local corr. energy    =      81.68751102 Ry
     -----------------------------------------------


     total cpu time spent up to now is    20142.1 secs

     total energy              =  -46815.18972767 Ry
     estimated scf accuracy    <       0.00000054 Ry

     iteration #  3     ecut=    70.00 Ry     beta= 0.70
     Davidson diagonalization with overlap

---- Real-time Memory Report at c_bands before calling an iterative solver
          3631 MiB given to the printing process from OS
             0 MiB allocation reported by mallinfo(arena+hblkhd)
       1922624 MiB available memory on the node where the printing process lives
------------------
     c_bands:  2 eigenvalues not converged
     c_bands:  2 eigenvalues not converged
     ethr =  4.64E-12,  avg # of iterations = 18.8


     -----------------------------------------------
     Non-local corr. energy    =      81.68746092 Ry
     -----------------------------------------------


     total cpu time spent up to now is    23615.5 secs

     End of self-consistent calculation

          k = 0.0000 0.0000 0.0000 (241213 PWs)   bands (ev):

    -6.8808  -6.7029  -6.6980  -6.6976  -6.6889  -6.6654  -6.6441  -6.6427
    -6.6011  -6.6007  -6.5997  -6.5861  -6.5838  -6.5837  -6.5732  -6.5683
    -6.5630  -6.5613  -6.5413  -6.5408  -6.5208  -6.4897  -6.4894  -6.4728
    -6.4724  -6.4695  -6.4693  -6.4669  -6.4659  -6.4655  -6.4634  -6.4634
    -6.4543  -6.4404  -6.4399  -6.4245  -6.4233  -6.4197  -6.4179  -6.4112
    -6.4103  -6.4023  -6.3985  -6.3966  -6.3964  -6.3947  -6.3945  -6.3903
    -6.3899  -6.3886  -6.3882  -6.3835  -6.3833  -6.3794  -6.3783  -6.3774
    -6.3772  -6.3747  -6.3741  -6.3693  -6.3691  -6.3672  -6.3668  -6.3627
    -6.3619  -6.3606  -6.3598  -6.3597  -6.3548  -6.3541  -6.3534  -6.3532
    -6.3525  -6.3495  -6.3491  -6.3489  -6.3459  -6.3448  -6.3447  -6.3426
    -6.3421  -6.3416  -6.3388  -6.3377  -6.3362  -6.3361  -6.3360  -6.3334
    -6.3329  -6.3323  -6.3318  -6.3310  -6.3304  -6.3298  -6.3296  -6.3272
    -6.3271  -6.3253  -6.3248  -6.3222  -6.3218  -6.3196  -6.3189  -6.3184
    -6.3156  -6.3151  -6.3147  -6.3138  -6.3126  -6.3120  -6.3118  -6.3092
    -6.3089  -6.3084  -6.3077  -6.3064  -6.3062  -6.3061  -6.3057  -6.3021
    -6.3019  -6.2988  -6.2987  -6.2983  -6.2973  -6.2952  -6.2932  -6.2930
    -6.2922  -6.2903  -6.2894  -6.2892  -6.2884  -6.2884  -6.2881  -6.2825
    -6.2804  -6.2800  -6.2798  -6.2794  -6.2788  -6.2778  -6.2772  -6.2748
    -6.2740  -6.2730  -6.2706  -6.2701  -6.2680  -5.7361  -5.7238  -5.7238
    -5.7005  -5.6845  -5.6838  -5.6728  -5.6581  -5.6572  -5.6524  -5.6515
    -5.6438  -5.5620  -5.5619  -5.5420  -5.5419  -5.5412  -5.5339  -5.5326
    -5.5326  -5.3057  -5.3047  -5.3047  -5.2994  -5.2993  -5.2921  -5.2921
    -5.2907  -5.2879  -5.2878  -5.2844  -5.2836  -5.2812  -5.2812  -5.2736
    -5.2731  -5.2731  -5.2727  -5.2722  -5.2721  -5.2685  -5.2668  -5.2667
    -5.2636  -5.2632  -5.2631  -5.2584  -5.2583  -5.2573  -5.2558  -5.2534
    -5.2533  -5.2513  -5.2512  -5.2489  -5.2487  -5.2483  -5.2482  -5.2466
    -5.2458  -5.2458  -5.2439  -5.2439  -5.2410  -5.2410  -5.2393  -5.2381
    -5.2366  -5.2365  -5.2350  -5.2349  -5.2321  -5.2319  -5.2318  -5.2310
    -5.2302  -5.2301  -5.2300  -5.2277  -5.2277  -5.2259  -5.2259  -5.2250
    -5.2245  -5.2242  -5.2241  -5.2207  -5.2179  -5.2179  -5.2168  -5.2167
    -5.2157  -5.2155  -5.2155  -5.2134  -5.2126  -5.2118  -5.2118  -5.2109
    -5.2109  -5.2097  -5.2097  -5.2093  -5.2093  -5.2088  -5.2071  -5.2071
    -5.2068  -5.2056  -5.2041  -5.2039  -5.2038  -5.2020  -5.2020  -5.2004
    -5.1996  -5.1996  -5.1996  -5.1972  -5.1960  -5.1960  -5.1957  -5.1951
    -5.1943  -5.1942  -5.1928  -5.1928  -5.1909  -5.1908  -5.1908  -5.1899
    -5.1899  -5.1894  -5.1894  -5.1893  -5.1877  -5.1875  -5.1875  -5.1874
    -5.1869  -5.1861  -5.1861  -5.1842  -5.1841  -5.1837  -5.1836  -5.1831
    -5.1828  -5.1824  -5.1804  -5.1804  -5.1799  -5.1799  -5.1799  -5.1796
    -5.1774  -5.1770  -5.1770  -5.1765  -5.1761  -5.1761  -5.1753  -5.1753
    -5.1743  -5.1737  -5.1715  -5.1715  -5.1708  -5.1707  -5.1694  -5.1694
    -5.1690  -5.1684  -5.1684  -5.1681  -5.1676  -5.1671  -5.1671  -5.1651
    -5.1649  -5.1649  -5.1640  -5.1638  -5.1637  -5.1632  -5.1632  -5.1630
    -5.1618  -5.1604  -5.1604  -5.1598  -5.1597  -5.1597  -5.1594  -5.1586
    -5.1584  -5.1584  -5.1574  -5.1574  -5.1566  -5.1566  -5.1557  -5.1556
    -5.1556  -5.1549  -5.1549  -5.1547  -5.1541  -5.1541  -5.1522  -5.1514
    -5.1512  -5.1511  -5.1505  -5.1504  -5.1486  -5.1473  -5.1472  -5.1469
    -5.1469  -5.1462  -5.1461  -5.1460  -5.1460  -5.1460  -5.1458  -5.1456
    -5.1436  -5.1433  -5.1433  -5.1418  -5.1418  -5.1407  -5.1404  -5.1404
    -5.1389  -5.1389  -5.1385  -5.1384  -5.1384  -5.1383  -5.1375  -5.1374
    -5.1371  -5.1368  -5.1368  -5.1342  -5.1342  -5.1342  -5.1328  -5.1327
    -5.1327  -5.1313  -5.1311  -5.1310  -5.1310  -5.1307  -5.1306  -5.1297
    -5.1294  -5.1290  -5.1290  -5.1280  -5.1280  -5.1271  -5.1269  -5.1268
    -5.1260  -5.1260  -5.1256  -5.1254  -5.1254  -5.1218  -5.1218  -5.1218
    -5.1217  -5.1202  -5.1202  -5.1189  -5.1189  -5.1189  -5.1180  -5.1177
    -5.1167  -5.1167  -5.1157  -5.1135  -5.1134  -5.1131  -5.1114  -5.1114
    -5.1106  -5.1105  -5.1096  -5.1085  -5.1077  -5.1077  -5.1058  -5.1058
    -5.1049  -5.1049  -5.1044  -5.1033  -5.1033  -5.1025  -5.1016  -5.1016
    -5.1015  -5.1010  -5.1010  -5.1006  -5.0993  -5.0981  -5.0974  -5.0974
    -5.0933  -5.0932  -5.0932  -5.0924  -5.0924  -5.0924  -5.0907  -5.0899
    -5.0896  -5.0896  -5.0881  -5.0881  -5.0867  -5.0867  -5.0866  -5.0850
    -5.0832  -5.0831  -5.0831  -5.0818  -5.0799  -5.0799  -5.0798  -5.0791
    -5.0780  -5.0779  -5.0779  -5.0767  -5.0767  -5.0759  -5.0750  -5.0749
    -5.0738  -5.0738  -5.0737  -5.0736  -5.0731  -5.0714  -5.0714  -5.0708
    -5.0707  -5.0697  -5.0696  -5.0696  -5.0687  -5.0685  -5.0672  -5.0672
    -5.0669  -5.0660  -5.0659  -5.0659  -5.0658  -5.0657  -5.0651  -5.0650
    -5.0650  -5.0638  -5.0637  -5.0635  -5.0634  -5.0623  -5.0617  -5.0617
    -5.0608  -5.0586  -5.0585  -5.0582  -5.0582  -5.0581  -5.0581  -5.0569
    -5.0569  -5.0556  -5.0555  -5.0555  -5.0554  -5.0538  -5.0538  -5.0533
    -5.0523  -5.0523  -5.0518  -5.0502  -5.0499  -5.0498  -5.0498  -5.0498
    -5.0497  -5.0486  -5.0486  -5.0482  -5.0475  -5.0475  -5.0466  -5.0462
    -5.0462  -5.0458  -5.0446  -5.0445  -5.0434  -5.0434  -5.0424  -5.0419
    -5.0418  -5.0417  -5.0412  -5.0408  -5.0408  -5.0405  -5.0401  -5.0399
    -5.0399  -5.0387  -5.0383  -5.0383  -5.0383  -5.0376  -5.0376  -5.0369
    -5.0369  -5.0368  -5.0363  -5.0353  -5.0352  -5.0344  -5.0344  -5.0338
    -5.0338  -5.0331  -5.0329  -5.0329  -5.0320  -5.0320  -5.0315  -5.0311
    -5.0311  -5.0309  -5.0290  -5.0290  -5.0288  -5.0281  -5.0280  -5.0279
    -5.0277  -5.0276  -5.0276  -5.0269  -5.0258  -5.0247  -5.0247  -5.0246
    -5.0242  -5.0237  -5.0236  -5.0221  -5.0221  -5.0201  -5.0193  -5.0193
    -5.0180  -5.0172  -5.0172  -5.0159  -5.0159  -5.0159  -5.0158  -5.0145
    -5.0145  -5.0128  -5.0128  -5.0111  -5.0111  -5.0111  -5.0093  -5.0093
    -5.0084  -5.0084  -5.0081  -5.0066  -5.0056  -5.0053  -5.0053  -5.0051
    -5.0051  -5.0049  -5.0048  -5.0044  -5.0043  -5.0028  -5.0021  -5.0021
    -5.0016  -5.0016  -5.0014  -4.9992  -4.9991  -4.9991  -4.9988  -4.9988
    -4.9981  -4.9966  -4.9965  -4.9965  -4.9955  -4.9948  -4.9948  -4.9940
    -4.9936  -4.9936  -4.9929  -4.9921  -4.9920  -4.9910  -4.9907  -4.9907
    -4.9898  -4.9898  -4.9891  -4.9891  -4.9878  -4.9869  -4.9869  -4.9858
    -4.9858  -4.9856  -4.9848  -4.9845  -4.9845  -4.9837  -4.9837  -4.9824
    -4.9815  -4.9811  -4.9811  -4.9791  -4.9791  -4.9791  -4.9782  -4.9782
    -4.9779  -4.9767  -4.9767  -4.9766  -4.9752  -4.9748  -4.9747  -4.9746
    -4.9743  -4.9742  -4.9728  -4.9717  -4.9716  -4.9702  -4.9701  -4.9698
    -4.9690  -4.9687  -4.9683  -4.9682  -4.9667  -4.9667  -4.9666  -4.9659
    -4.9646  -4.9646  -4.9638  -4.9638  -4.9636  -4.9604  -4.9603  -4.9601
    -4.9597  -4.9596  -4.9578  -4.9578  -4.9571  -4.9567  -4.9564  -4.9564
    -4.9544  -4.9521  -4.9510  -4.9510  -4.9494  -4.9492  -4.9492  -4.9458
    -4.9458  -4.9394  -4.9394  -4.9384  -4.9326  -4.9326  -4.9325  -4.8035
    -4.7863  -4.7861  -4.7805  -4.7804  -4.7540  -4.7539  -4.7508  -4.7507
    -4.7418  -4.7399  -4.7393  -4.3399  -4.3396  -4.3290  -4.3285  -4.3283
    -4.3246  -4.2922  -4.2671  -4.0997  -4.0995  -4.0946  -4.0921  -4.0919
    -4.0872  -4.0869  -4.0839  -4.0747  -4.0743  -4.0735  -4.0470  -4.0310
    -4.0306  -4.0248  -4.0039  -4.0035  -4.0008  -3.9872  -3.9735  -3.9734
    -3.9598  -3.9596  -3.9316  -3.9314  -3.9235  -3.9233  -3.9138  -3.9104
    -3.8942  -3.8255  -3.8251  -3.8249  -3.8245  -3.8163  -3.7997  -3.7994
    -3.7959  -3.7949  -3.7946  -3.7943  -3.7163  -3.5187  -3.4418  -3.4353
    -3.4352  -3.4205  -3.4204  -3.4063  -3.4059  -3.4043  -3.3966  -3.3965
    -3.3951  -3.3864  -3.3825  -3.3822  -3.3793  -3.3633  -3.3633  -3.3204
    -3.3075  -3.3072  -3.2994  -3.2973  -3.2959  -3.2956  -3.2832  -3.2785
    -3.2783  -3.2754  -3.2710  -3.2707  -3.2661  -3.2661  -3.2656  -3.2638
    -3.2597  -3.2597  -3.2572  -3.2572  -3.2516  -3.2469  -3.2467  -3.2433
    -3.2410  -3.2407  -3.2270  -3.2269  -3.2123  -3.1063  -3.0794  -3.0772
    -3.0771  -3.0617  -3.0616  -3.0497  -3.0493  -3.0467  -3.0466  -3.0355
    -3.0355  -2.9929  -2.9737  -2.9733  -2.9472  -2.9282  -2.9281  -2.9221
    -2.9220  -2.9132  -2.9008  -2.9005  -2.8981  -2.8870  -2.8843  -2.8841
    -2.8753  -2.8739  -2.8737   2.0667   2.1985   2.5473   2.5476   2.5552
     2.5734   2.5806   2.5808   2.5898   2.5901   2.5999   2.6129   2.6226
     2.6227   2.6325   2.6332   2.6334   2.6395   2.6397   2.6436   2.6456
     2.6459   2.6526   2.6527   2.6565   2.6565   2.6593   2.6618   2.6619
     2.6721   2.6723   2.7064   2.7946   2.7954   2.7966   2.8152   2.8157
     2.8163   2.9453   2.9504   2.9505   2.9591   2.9648   2.9649   2.9951
     2.9958   2.9959   2.9998   3.0028   3.0079   3.0079   3.0167   3.0168
     3.0444   3.0445   3.0535   3.1377   3.1380   3.1385   3.1476   3.1478
     3.1704   3.2421   3.2422   3.2483   3.2484   3.2495   3.2519   3.2520
     3.2527   3.2627   3.2628   3.2671   3.2789   3.2849   3.2855   3.2968
     3.2970   3.2983   3.3067   3.3082   3.3089   3.3122   3.3522   3.3526
     3.4533   3.6192   3.6298   3.6935   3.6945   3.6947   3.7002   3.7004
     3.7040   3.7200   3.7200   3.7306   3.7308   3.7330   3.7332   3.7363
     3.7365   3.7451   3.7465   3.7764   3.8431   3.9363   3.9367   3.9569
     3.9606   3.9611   3.9664   3.9895   3.9899   3.9900   3.9916   3.9916
     3.9973   3.9983   3.9983   4.0264   4.0471   4.0472   4.4430   4.5339
     4.5340   4.5364   4.5522   4.5526   4.5745   4.5751   4.6002   4.6005
     4.6013   4.6091   4.6297   4.6301   4.6334   4.6579   4.6584   4.6743
     4.7241   4.7252   4.7253   4.7459   4.7461   4.7520   4.9781   4.9782
     4.9907   5.0076   5.0076   5.0171   5.0189   5.0261   5.0261   5.0356
     5.0603   5.0603   5.1197   5.4564   5.4641   5.4642   5.4711   5.4759
     5.4760   5.4903   5.4904   5.4975   5.4975   5.5031   5.5031   5.5119
     5.5146   5.5147   5.5160   5.5475   5.6636   5.6854   5.6859   5.6962
     5.7067   5.7073   5.8422   5.8575   5.8579   5.8672   5.8722   5.8794
     5.8795   5.8988   5.8995   5.9181   5.9183   5.9263   5.9267   5.9328
     5.9375   5.9379   5.9396   5.9845   5.9889   5.9890   6.0015   6.0026
     6.0029   6.0073   6.0074   6.0079   6.0095   6.0145   6.0148   6.0157
     6.0159   6.0169   6.0174   6.0175   6.0178   6.0209   6.0210   6.0213
     6.0214   6.0256   6.0257   6.0321   6.0322   6.0525   6.0578   6.0619
     6.0620   6.0645   6.0650   6.0693   6.0693   6.1379   6.1568   6.1571
     6.2716   6.2843   6.3111   6.3118   6.3342   6.3348   6.3355   6.3383
     6.3473   6.3474   6.3587   6.3645   6.3645   6.3695   6.3696   6.3778
     6.4031   6.4203   6.4205   6.4761   6.4845   6.4846   6.4894   6.4994
     6.5110   6.5112   6.5560   6.5590   6.5594   6.5765   6.5768   6.5786
     6.6272   6.6371   6.6374   6.6417   6.6479   6.6483   6.6552   6.6603
     6.6604   6.6608   6.6706   6.6805   6.6806   6.6841   6.6842   6.6876
     6.6876   6.6883   6.6902   6.6905   6.6910   6.6922   6.6924   6.7530
     6.7580   6.7620   6.7621   6.8076   6.8078   6.8175   6.8678   6.8706
     6.8707   6.8726   6.8735   6.8735   6.8795   6.8804   6.8804   6.8856
     7.0050   7.0051   7.1101   7.1102   7.1309   7.1456   7.1458   7.1469
     7.1473   7.1500   7.1624   7.1775   7.1894   7.1895   7.2869   7.2899
     7.2929   7.2931   7.2987   7.2991   7.3084   7.3208   7.3210   7.3249
     7.3251   7.3647   7.3822   7.3954   7.3988   7.3991   7.4008   7.4009
     7.4059   7.4060   7.4085   7.4091   7.4092   7.4173   7.4175   7.4225
     7.4231   7.4232   7.4236   7.4247   7.4254   7.4261   7.4292   7.4343
     7.4372   7.4385   7.4419   7.4442   7.4443   7.4481   7.4484   7.4546
     7.4554   7.4615   7.4655   7.4732   7.4739   7.4741   7.4776   7.4776
     7.4787   7.4974   7.5631   7.5634   7.5745   7.5761   7.5763   7.6101
     7.6102   7.6114   7.6184   7.6429   7.6430   7.6465   7.6466   7.6500
     7.6530   7.6531   7.6542   7.6999   7.6999   7.7041   7.7115   7.7244
     7.7245   7.7461   7.7462   7.7477   7.7477   7.7502   7.7584   7.7673
     7.7675   7.8430   7.8441   7.8797   7.9227   7.9230   7.9235   7.9667
     7.9668   8.0208   8.0209   8.0489   8.0490   8.0716   8.0806   8.0809
     8.0844   8.0901   8.0902   8.1014   8.1016   8.1023   8.1100   8.1952
     8.2858   8.3214   8.3215   8.3561   8.3562   8.3731   8.3809   8.3810
     8.4369   8.4511   8.4512   8.4622   8.5034   8.5035   8.5208   8.5209
     8.7220   8.7697   8.7697  10.3800  11.1871  11.2776  11.2791  12.0375
    12.1129  12.2322  12.2324  12.2480  12.3076  12.3616  12.3620  12.6885
    12.8087  12.8196  12.8942  12.8946  12.9058  12.9061  12.9098  12.9280
    12.9296  12.9300  12.9365  12.9403  12.9404  12.9410  12.9794  12.9795
    13.0023  13.0024  13.0076  13.0076  13.0162  13.0205  13.0686  13.0690
    13.1665  13.2749  13.6723  13.6732  13.6755  13.6925  13.6929  13.7091
    13.8521  13.8595  13.8598  13.8622  13.8628  13.8642  13.8705  13.8717
    13.8721  13.8774  13.8777  13.8800  13.8878  13.8889  13.9078  13.9086
    13.9103  13.9123  13.9126  13.9143  13.9231  13.9232  13.9660  13.9669
    13.9900  13.9951  13.9955  14.0171  14.0177  14.0194  14.0458  14.0459
    14.0461  14.0491  14.0491  14.0526  14.0527  14.0577  14.0578  14.0833
    14.0834  14.1083  14.1157  14.1158  14.1195  14.1226  14.1230  14.1448
    14.1795  14.1796  14.1894  14.1895  14.1985  14.2066  14.2146  14.2146
    14.2221  14.2222  14.2268  14.2368  14.2368  14.2438  14.3100  14.3563
    14.3569  14.5128  14.5132  14.5133  14.5174  14.5176  14.5611  14.7937
    14.8885  14.8888  14.8896  14.8986  14.8989  14.9020  14.9074  14.9079
    14.9396  14.9396  14.9844  15.0183  15.0667  15.0667  15.0671  15.0752
    15.0753  15.0768  15.0768  15.0780  15.0936  15.1099  15.1106  15.1332
    15.1343  15.1507  15.1551  15.1567  15.1573  15.1724  15.1991  15.1992
    15.2691  15.2694  15.2966  15.3909  15.3932  15.3935  15.4144  15.4152
    15.5390  15.6882  15.7094  15.7136  15.7138  15.7351  15.7352  15.8236
    15.8285  15.8357  15.8357  15.8589  15.8589  15.9191  15.9409  15.9410
    15.9478  15.9619  15.9621  15.9647  15.9678  15.9682  15.9981  15.9983
    16.0176  16.0697  16.1144  16.1244  16.1248  16.1260  16.1289  16.1290
    16.1297  16.1350  16.1352  16.1377  16.1420  16.1423  16.1487  16.1490
    16.1493  16.1523  16.1527  16.1563  16.1570  16.1587  16.1670  16.1672
    16.1805  16.1825  16.1855  16.1856  16.1867  16.1869  16.1871  16.1956
    16.1956  16.1993  16.2386  16.2388  16.2556  16.2596  16.2727  16.2734
    16.3132  16.3133  16.3251  16.3431  16.3509  16.3574  16.3575  16.3589
    16.3591  16.3632  16.3642  16.3644  16.3648  16.3896  16.3898  16.3907
    16.3950  16.4007  16.4010  16.4012  16.4032  16.4035  16.4037  16.4038
    16.4139  16.4313  16.4316  16.4407  16.4477  16.4477  16.4496  16.4498
    16.4581  16.4653  16.4732  16.4734  16.4860  16.4874  16.4876  16.4911
    16.4914  16.4939  16.6309  16.6316  16.6589  16.6652  16.6717  16.6803

     occupation numbers 
     1.0000   1.0000   1.0000   1.0000   1.0000   1.0000   1.0000   1.0000
     1.0000   1.0000   1.0000   1.0000   1.0000   1.0000   1.0000   1.0000
     1.0000   1.0000   1.0000   1.0000   1.0000   1.0000   1.0000   1.0000
     1.0000   1.0000   1.0000   1.0000   1.0000   1.0000   1.0000   1.0000
     1.0000   1.0000   1.0000   1.0000   1.0000   1.0000   1.0000   1.0000
     1.0000   1.0000   1.0000   1.0000   1.0000   1.0000   1.0000   1.0000
     1.0000   1.0000   1.0000   1.0000   1.0000   1.0000   1.0000   1.0000
     1.0000   1.0000   1.0000   1.0000   1.0000   1.0000   1.0000   1.0000
     1.0000   1.0000   1.0000   1.0000   1.0000   1.0000   1.0000   1.0000
     1.0000   1.0000   1.0000   1.0000   1.0000   1.0000   1.0000   1.0000
     1.0000   1.0000   1.0000   1.0000   1.0000   1.0000   1.0000   1.0000
     1.0000   1.0000   1.0000   1.0000   1.0000   1.0000   1.0000   1.0000
     1.0000   1.0000   1.0000   1.0000   1.0000   1.0000   1.0000   1.0000
     1.0000   1.0000   1.0000   1.0000   1.0000   1.0000   1.0000   1.0000
     1.0000   1.0000   1.0000   1.0000   1.0000   1.0000   1.0000   1.0000
     1.0000   1.0000   1.0000   1.0000   1.0000   1.0000   1.0000   1.0000
     1.0000   1.0000   1.0000   1.0000   1.0000   1.0000   1.0000   1.0000
     1.0000   1.0000   1.0000   1.0000   1.0000   1.0000   1.0000   1.0000
     1.0000   1.0000   1.0000   1.0000   1.0000   1.0000   1.0000   1.0000
     1.0000   1.0000   1.0000   1.0000   1.0000   1.0000   1.0000   1.0000
     1.0000   1.0000   1.0000   1.0000   1.0000   1.0000   1.0000   1.0000
     1.0000   1.0000   1.0000   1.0000   1.0000   1.0000   1.0000   1.0000
     1.0000   1.0000   1.0000   1.0000   1.0000   1.0000   1.0000   1.0000
     1.0000   1.0000   1.0000   1.0000   1.0000   1.0000   1.0000   1.0000
     1.0000   1.0000   1.0000   1.0000   1.0000   1.0000   1.0000   1.0000
     1.0000   1.0000   1.0000   1.0000   1.0000   1.0000   1.0000   1.0000
     1.0000   1.0000   1.0000   1.0000   1.0000   1.0000   1.0000   1.0000
     1.0000   1.0000   1.0000   1.0000   1.0000   1.0000   1.0000   1.0000
     1.0000   1.0000   1.0000   1.0000   1.0000   1.0000   1.0000   1.0000
     1.0000   1.0000   1.0000   1.0000   1.0000   1.0000   1.0000   1.0000
     1.0000   1.0000   1.0000   1.0000   1.0000   1.0000   1.0000   1.0000
     1.0000   1.0000   1.0000   1.0000   1.0000   1.0000   1.0000   1.0000
     1.0000   1.0000   1.0000   1.0000   1.0000   1.0000   1.0000   1.0000
     1.0000   1.0000   1.0000   1.0000   1.0000   1.0000   1.0000   1.0000
     1.0000   1.0000   1.0000   1.0000   1.0000   1.0000   1.0000   1.0000
     1.0000   1.0000   1.0000   1.0000   1.0000   1.0000   1.0000   1.0000
     1.0000   1.0000   1.0000   1.0000   1.0000   1.0000   1.0000   1.0000
     1.0000   1.0000   1.0000   1.0000   1.0000   1.0000   1.0000   1.0000
     1.0000   1.0000   1.0000   1.0000   1.0000   1.0000   1.0000   1.0000
     1.0000   1.0000   1.0000   1.0000   1.0000   1.0000   1.0000   1.0000
     1.0000   1.0000   1.0000   1.0000   1.0000   1.0000   1.0000   1.0000
     1.0000   1.0000   1.0000   1.0000   1.0000   1.0000   1.0000   1.0000
     1.0000   1.0000   1.0000   1.0000   1.0000   1.0000   1.0000   1.0000
[...]
Ga           14.5923011685        0.9301078373        2.6340237326
Ga           14.5954857786        0.9306307196        7.9288394390
Ga           14.5995136652        0.9362172759       13.2160962466
Ga           12.9767299245        3.7479208759        2.6379278009
Ga           12.9767965166        3.7478720500        7.9322563354
Ga           12.9777174270        3.7473742699       13.2154309503
Ga           11.3558980473        6.5563293238        2.6385367103
Ga           11.3559499081        6.5563592656        7.9296961460
Ga           11.3560749515        6.5564314595       13.2159653287
Ga            9.7341609260        9.3642151286        2.6379278009
Ga            9.7341519376        9.3642972120        7.9322563354
Ga            9.7341813026        9.3653436339       13.2154309503
Ga            8.1016488734       12.1722473869        2.6340237326
Ga            8.1036940079       12.1747438990        7.9288394390
Ga            8.1105460508       12.1754388729       13.2160962466
Ga           -0.0049610013        1.8755025019        5.2877193313
Ga           -0.0024007092        1.8741094908       10.5763339950
Ga            0.0006913722        1.8724498793       15.8504627751
Ga           -1.6287942161        4.6820819387        5.2887383097
Ga           -1.6238865180        4.6839084695       10.5728385342
Ga           -1.6253122895        4.6846881541       15.8580011465
Ga           -3.2452834380        7.4925419226        5.2844457538
Ga           -3.2451159577        7.4926386173       10.5730333462
Ga           -3.2450521474        7.4926754583       15.8586607819
Ga           -4.8709685693       10.2976926456        5.2887383097
Ga           -4.8669328981       10.3010295713       10.5728385342
Ga           -4.8669705572       10.2994049747       15.8580011465
Ga           -6.4896210518       13.1072631795        5.2877193313
Ga           -6.4895472887       13.1101769630       10.5763339950
Ga           -6.4894385137       13.1136845898       15.8504627751
Ga            3.2501060697        1.8764522931        5.2884488080
Ga            3.2469787704        1.8746467460       10.5766719317
Ga            3.2439300722        1.8728865793       15.8508203247
Ga            1.6226930964        4.6917844554        5.2900573045
Ga            1.6227901973        4.6838959872       10.5727528737
Ga            1.6227870259        4.6869461786       15.8570530395
Ga            0.0001890999        7.4949267869        5.2856289163
Ga           -0.0003726233        7.4941143535       10.5735822385
Ga           -0.0003410625        7.4944251964       15.8588735587
Ga           -1.6204818159       10.3020111555        5.2856289163
Ga           -1.6214662654       10.3019309056       10.5735822385
Ga           -1.6211812872       10.3018028166       15.8588735587
Ga           -3.2368222871       13.1087120001        5.2900573045
Ga           -3.2436053505       13.1127403260       10.5727528737
Ga           -3.2409653930       13.1112124838       15.8570530395
Ga            6.4909683104        1.8784126818        5.2887868217
Ga            6.4901672946        1.8734904889       10.5729439809
Ga            6.4915021682        1.8742955783       15.8580632853
Ga            4.8722349364        4.6821411295        5.2887868217
Ga            4.8675716845        4.6839085260       10.5729439809
Ga            4.8689363492        4.6846620157       15.8580632853
Ga            3.2444531435        7.4944174830        5.2853841671
Ga            3.2450367923        7.4935920784       10.5733834089
Ga            3.2449995212        7.4939044793       15.8586345720
Ga            1.6218714744       10.3025951214        5.2847817236
Ga            1.6218957818       10.3026091553       10.5731941990
Ga            1.6218961910       10.3026093915       15.8594290919
Ga            0.0012091357       13.1118808859        5.2853841671
Ga            0.0007861388       13.1127990429       10.5733834089
Ga            0.0010380504       13.1126105647       15.8586345720
Ga            9.7337612699        1.8737208777        5.2845834552
Ga            9.7337776592        1.8735027838       10.5731661230
Ga            9.7337773113        1.8734296229       15.8587827065
Ga            8.1132117614        4.6841676734        5.2849215319
Ga            8.1124204578        4.6837108140       10.5732644803
Ga            8.1124316954        4.6837173021       15.8586720020
Ga            6.4895681947        7.4928281138        5.2845834552
Ga            6.4893875144        7.4929513543       10.5731661230
Ga            6.4893239812        7.4929876335       15.8587827065
Ga            4.8655611129       10.3017688327        5.2853973893
Ga            4.8666259944       10.3016696589       10.5734054488
Ga            4.8663301916       10.3015575557       15.8586395682
Ga            3.2430007067       13.1121258948        5.2853973893
Ga            3.2434472604       13.1130976962       10.5734054488
Ga            3.2432022748       13.1128975750       15.8586395682
Ga           12.9759033076        1.8787671820        5.2890432279
Ga           12.9769547406        1.8738445375       10.5731488190
Ga           12.9756137133        1.8747012751       15.8583086954
Ga           11.3546183967        4.6841842816        5.2850886366
Ga           11.3553020765        4.6837420415       10.5734483576
Ga           11.3552739663        4.6837580630       15.8588393740
Ga            9.7339294622        7.4912998597        5.2850886366
Ga            9.7338883109        7.4921130637       10.5734483576
Ga            9.7338881309        7.4920807088       15.8588393740
Ga            8.1150094412       10.2980823290        5.2890432279
Ga            8.1112720226       10.3014542189       10.5731488190
Ga            8.1113434655       10.2998644864       15.8583086954
Ga            6.4824536236       13.1088535338        5.2899881710
Ga            6.4889036730       13.1125774715       10.5727692195
Ga            6.4864434220       13.1111570450       15.8569877835
N             1.6223123917        0.9366410251        9.9246426857
N             1.6223220867        0.9366466225       15.2108769072
N             0.0140212325        3.7315124591        4.6285924693
N             0.0004263124        3.7436046556        9.9160926474
N             0.0004365357        3.7443368868       15.2130975276
N            -1.6190171185        6.5510027160        4.6310343902
N            -1.6221029185        6.5556791070        9.9193854565
N            -1.6220308231        6.5558717061       15.2082392352
N            -3.2475435559        9.3716932471        4.6310343902
N            -3.2450365825        9.3666826704        9.9193854565
N            -3.2448337391        9.3666488074       15.2082392352
N            -4.8727745684       12.1956910729        4.6285924693
N            -4.8690998792       12.1778714284        9.9160926474
N            -4.8684606367       12.1775141665       15.2130975276
N             4.8468590117        0.9319333086        4.6283019513
N             4.8641296916        0.9377306996        9.9158408877
N             4.8646945287        0.9373831935       15.2128378595
N             3.2305086996        3.7315341721        4.6283019513
N             3.2441647273        3.7435923241        9.9158408877
N             3.2441461968        3.7442552404       15.2128378595
N             1.6222998772        6.5541206196        4.6301568207
N             1.6223105573        6.5554154432        9.9203751181
N             1.6222991231        6.5562320622       15.2075569800
N            -0.0006103917        9.3658506294        4.6306110015
N            -0.0001523683        9.3661150694        9.9194941681
N            -0.0000175659        9.3661928975       15.2076528771
N            -1.6241848744       12.1771971554        4.6301568207
N            -1.6230581842       12.1765589929        9.9203751181
N            -1.6223566885       12.1761407810       15.2075569800
N             8.1050759405        0.9364588005        4.6309140294
N             8.1106538306        0.9368199381        9.9192708712
N             8.1107802580        0.9366649235       15.2081296164
N             6.4862406810        3.7448313323        4.6308146714
N             6.4887029567        3.7462529279        9.9204093699
N             6.4888405724        3.7463323804       15.2084607110
N             4.8635363550        6.5509700576        4.6309140294
N             4.8666380544        6.5556200834        9.9192708712
N             4.8665670216        6.5558070800       15.2081296164
N             3.2450887155        9.3658060444        4.6307471651
N             3.2446766508        9.3660610390        9.9196414206
N             3.2445345428        9.3661430826       15.2077970793
N             1.6222005502       12.1767308020        4.6307471651
N             1.6222153496       12.1762464461        9.9196414206
N             1.6222153475       12.1760823552       15.2077970793
N            11.3621417367        0.9364916235        4.6309169140
N            11.3566576004        0.9368923171        9.9193048990
N            11.3565534822        0.9367498863       15.2081545338
N             9.7337862622        3.7458424820        4.6309734695
N             9.7337579886        3.7463658586        9.9196722049
N             9.7337522961        3.7463183143       15.2082048343
N             8.1108891528        6.5567827309        4.6309734695
N             8.1113282735        6.5564965569        9.9196722049
N             8.1112842526        6.5565153992       15.2082048343
N             6.4920976787        9.3716553675        4.6309169140
N             6.4897026213        9.3667056193        9.9193048990
N             6.4895272135        9.3666866657       15.2081545338
N             4.8689539435       12.1772949093        4.6304025917
N             4.8677123764       12.1765780902        9.9205522617
N             4.8670772237       12.1762113846       15.2077610694
N            14.6202896929        0.9320181990        4.6282667865
N            14.6031166736        0.9376767372        9.9158101326
N            14.6025750939        0.9374048346       15.2128082151
N            12.9808807182        3.7447717769        4.6305679433
N            12.9784878182        3.7462431065        9.9202561646
N            12.9783439405        3.7463344755       15.2082753797
N            11.3565101292        6.5566827094        4.6307750911
N            11.3560296713        6.5564053169        9.9194859733
N            11.3560734095        6.5564305692       15.2080147296
N             9.7335091231        9.3693843709        4.6305679433
N             9.7335868819        9.3665763939        9.9202561646
N             9.7335940709        9.3664061077       15.2082753797
N             8.1172975574       12.1955309791        4.6282667865
N             8.1136114856       12.1778294390        9.9158101326
N             8.1131052212       12.1774963686       15.2128082151
N             0.0046896683        1.8704285760        2.0066695881
N             0.0112273272        1.8666862867        7.2634775433
N            -0.0000049312        1.8732984848       12.5658524967
N            -1.6209233825        4.6810290694        1.9883192546
N            -1.6202872653        4.6802729088        7.2748889192
N            -1.6211226002        4.6824685250       12.5641228435
N            -3.2444469939        7.4930248438        1.9875573000
N            -3.2444183540        7.4930413790        7.2744766071
N            -3.2444575797        7.4930187321       12.5638616131
N            -4.8679449640       10.3050354220        1.9883192546
N            -4.8682817598       10.3059643959        7.2748889192
N            -4.8667979678       10.3041431666       12.5641228435
N            -6.4891898657       13.1181578675        2.0066695881
N            -6.4891619538       13.1256907908        7.2634775433
N            -6.4890517515       13.1126572707       12.5658524967
N             3.2396573489        1.8704197213        2.0070776937
N             3.2332895100        1.8667432479        7.2638768277
N             3.2445850037        1.8732647042       12.5661361595
N             1.6222296398        4.6840903552        1.9865930432
N             1.6221842237        4.6849586955        7.2746096318
N             1.6222345960        4.6819848891       12.5645037936
N            -0.0001518437        7.4926812084        1.9870572811
N             0.0000230652        7.4926386163        7.2753663844
N            -0.0000307968        7.4927072085       12.5640880850
N            -1.6225970158       10.3028386789        1.9870572811
N            -1.6225464471       10.3030114505        7.2753663844
N            -1.6225139755       10.3029305086       12.5640880850
N            -3.2437173016       13.1121576850        1.9865930432
N            -3.2429880049       13.1116841832        7.2746096318
N            -3.2455382107       13.1132147101       12.5645037936
N             6.4867523358        1.8732183460        1.9883819465
N             6.4857187971        1.8729694097        7.2749445790
N             6.4880642443        1.8726708386       12.5642091512
N             4.8656285224        4.6810871564        1.9883819465
N             4.8648961678        4.6803165537        7.2749445790
N             4.8658103213        4.6824970561       12.5642091512
N             3.2447939659        7.4927800860        1.9868435056
N             3.2446222482        7.4927440029        7.2751413719
N             3.2446397640        7.4927928537       12.5639022282
N             1.6223745326       10.3028855622        1.9872175496
N             1.6223743419       10.3028854521        7.2751712030
N             1.6223714392       10.3028837762       12.5639224843
N            -0.0000384805       13.1129947452        1.9868435056
N            -0.0001555882       13.1128640749        7.2751413719
N            -0.0001045242       13.1128548186       12.5639022282
N             9.7335554640        1.8731521910        1.9876714309
N             9.7335444135        1.8731101402        7.2745927674
N             9.7335863079        1.8731611370       12.5639770803
N             8.1108230522        4.6827885515        1.9872001901
N             8.1105070175        4.6826060888        7.2750904229
N             8.1111651926        4.6829860864       12.5639591495
N             6.4889727945        7.4929342241        1.9876714309
N             6.4889308522        7.4929456795        7.2745927674
N             6.4889959640        7.4929564627       12.5639770803
N             4.8670156173       10.3027862025        1.9868660418
N             4.8669544267       10.3029413600        7.2751611127
N             4.8669587773       10.3029217660       12.5639249892
N             3.2446090269       13.1128768477        1.9868660418
N             3.2447128020       13.1127462764        7.2751611127
N             3.2446980084       13.1127598411       12.5639249892
N            12.9805825204        1.8731451029        1.9885765173
N            12.9815674815        1.8729231686        7.2751706980
N            12.9793295231        1.8726325034       12.5643945136
N            11.3564046170        4.6828538301        1.9873149974
N            11.3567329186        4.6826665978        7.2752272941
N            11.3560954272        4.6830379019       12.5641053738
N             9.7336703675        7.4935119975        1.9873149974
N             9.7336723704        7.4938899312        7.2752272941
N             9.7336751834        7.4931521955       12.5641053738
N             8.1124801844       10.3049456857        1.9885765173
N             8.1127804641       10.3059096541        7.2751706980
N             8.1114097615       10.3041168579       12.5643945136
N             6.4880850759       13.1121048543        1.9865197792
N             6.4873809933       13.1116983520        7.2745545752
N             6.4900649691       13.1132479462       12.5645143627
End final coordinates



     Writing all to output data dir ./GaN.save/
 
     init_run     :    117.47s CPU    120.71s WALL (       1 calls)
     electrons    : 116211.36s CPU 117281.23s WALL (       5 calls)
     update_pot   :     10.08s CPU     10.32s WALL (       4 calls)
     forces       :    320.37s CPU    326.57s WALL (       5 calls)
     stress       :   6241.35s CPU   6307.40s WALL (       5 calls)

     Called by init_run:
     wfcinit      :    111.51s CPU    114.32s WALL (       1 calls)
     wfcinit:atom :      0.15s CPU      0.28s WALL (       2 calls)
     wfcinit:wfcr :    109.91s CPU    111.94s WALL (       2 calls)
     potinit      :      1.68s CPU      1.88s WALL (       1 calls)
     hinit0       :      1.21s CPU      1.31s WALL (       1 calls)

     Called by electrons:
     c_bands      : 114909.85s CPU 115956.77s WALL (      55 calls)
     sum_band     :   1171.14s CPU   1187.30s WALL (      55 calls)
     v_of_rho     :     55.63s CPU     57.93s WALL (      57 calls)
     v_h          :      0.51s CPU      0.52s WALL (      57 calls)
     v_xc         :     63.89s CPU     66.75s WALL (      67 calls)
     newd         :     11.71s CPU     11.99s WALL (      57 calls)
     PAW_pot      :     39.35s CPU     39.67s WALL (      61 calls)
     mix_rho      :      2.70s CPU      2.78s WALL (      55 calls)
     vdW_kernel   :      0.16s CPU      0.17s WALL (       1 calls)

     Called by c_bands:
     init_us_2    :     60.68s CPU     61.72s WALL (     250 calls)
     init_us_2:cp :     60.67s CPU     61.71s WALL (     250 calls)
     cegterg      :  92178.24s CPU  93073.31s WALL (     124 calls)

     Called by sum_band:
     sum_band:wei :      0.12s CPU      0.12s WALL (      55 calls)
     sum_band:loo :   1150.49s CPU   1161.21s WALL (      55 calls)
     sum_band:buf :     13.61s CPU     13.81s WALL (     110 calls)
     sum_band:ini :     29.05s CPU     29.43s WALL (     110 calls)
     sum_band:cal :    845.40s CPU    851.62s WALL (     118 calls)
     sum_band:bec :      6.74s CPU      6.82s WALL (     118 calls)
     addusdens    :     11.36s CPU     11.81s WALL (      55 calls)
     addusd:skk   :      2.31s CPU      2.43s WALL (     110 calls)
     addusd:dgemm :      5.20s CPU      5.47s WALL (     110 calls)
     addusd:qvan2 :      1.28s CPU      1.31s WALL (     110 calls)

     Called by *egterg:
     cdiaghg      :  76013.93s CPU  76497.13s WALL (    1799 calls)
     cegterg:over :   3195.50s CPU   3278.50s WALL (    1693 calls)
     cegterg:upda :   1940.49s CPU   1971.79s WALL (    1693 calls)
     cegterg:last :   1122.34s CPU   1130.99s WALL (     132 calls)
     h_psi        :   6677.84s CPU   6778.79s WALL (    1819 calls)
     s_psi        :   2376.98s CPU   2417.09s WALL (    1819 calls)
     g_psi        :      6.58s CPU      6.66s WALL (    1693 calls)

     Called by h_psi:
     h_psi:calbec :   2515.96s CPU   2535.34s WALL (    1819 calls)
     vloc_psi     :   1756.16s CPU   1774.33s WALL (    1819 calls)
     add_vuspsi   :   2378.48s CPU   2421.34s WALL (    1819 calls)

     General routines
     calbec       :   3904.86s CPU   3935.19s WALL (    1987 calls)
     fft          :     30.39s CPU     30.75s WALL (    4433 calls)
     ffts         :      1.25s CPU      1.26s WALL (     112 calls)
     fftw         :   1905.51s CPU   1926.75s WALL ( 1248964 calls)
     interpolate  :      0.71s CPU      0.72s WALL (      57 calls)
 
     Parallel routines

     PAW routines
     PAW_pot      :     39.35s CPU     39.67s WALL (      61 calls)
     PAW_symme    :      1.77s CPU      1.78s WALL (     115 calls)
 
     PWSCF        :   1d10h 9m CPU   1d10h29m WALL

 
   This run was terminated on:  21:30:34  18Mar2024            

=------------------------------------------------------------------------------=
   JOB DONE.
=------------------------------------------------------------------------------=
