
     Program PWSCF v.7.1 starts on 20Mar2024 at 20:40:22 

     This program is part of the open-source Quantum ESPRESSO suite
     for quantum simulation of materials; please cite
         "P. Giannozzi et al., J. Phys.:Condens. Matter 21 395502 (2009);
         "P. Giannozzi et al., J. Phys.:Condens. Matter 29 465901 (2017);
         "P. Giannozzi et al., J. Chem. Phys. 152 154105 (2020);
          URL http://www.quantum-espresso.org", 
     in publications or presentations arising from this work. More details at
     http://www.quantum-espresso.org/quote

     Parallel version (MPI & OpenMP), running on     128 processor cores
     Number of MPI processes:               128
     Threads/MPI process:                     1

     MPI processes distributed on     1 nodes
     2037736 MiB available memory on the printing compute node when the environment starts
 
     Reading input from espresso.pwi
Warning: card &CELL ignored
Warning: card    CELL_DYNAMICS    = 'BFGS' ignored
Warning: card / ignored

     Current dimensions of program PWSCF are:
     Max number of different atomic species (ntypx) = 10
     Max number of k-points (npk) =  40000
     Max angular momentum in pseudopotentials (lmaxx) =  4
     file Pb.pbe-dn-kjpaw_psl.1.0.0.UPF: wavefunction(s)  6S 6P 5D renormalized
     file I.pbe-dn-kjpaw_psl.1.0.0.UPF: wavefunction(s)  5S 5P renormalized

     **************************************************************************
     Initializing libbeef V0.1.2 with the BEEF-vdW functional.
     Citation: Wellendorff et al., PRB 85, 235149 (2012).
     **************************************************************************


     IMPORTANT: XC functional enforced from input :
     Exchange-correlation= BEEF-VDW
                           (   1   4  43  14   2   0   0)
     Any further DFT definition will be discarded
     Please, verify this is what you really want

 
     K-points division:     npool     =       2
     R & G space division:  proc/nbgrp/npool/nimage =      64
     Subspace diagonalization in iterative solution of the eigenvalue problem:
     a serial algorithm will be used

 
     Parallelization info
     --------------------
     sticks:   dense  smooth     PW     G-vecs:    dense   smooth      PW
     Min         268     215     55                29758    21295    2791
     Max         269     216     56                29767    21298    2796
     Sum       17215   13777   3559              1904969  1362953  178821
 
     Using Slab Decomposition
 


     bravais-lattice index     =            4
     lattice parameter (alat)  =      26.7090  a.u.
     unit-cell volume          =   17226.5091 (a.u.)^3
     number of atoms/cell      =           53
     number of atomic types    =            2
     number of electrons       =       848.00
     number of Kohn-Sham states=          509
     kinetic-energy cutoff     =      70.0000  Ry
     charge density cutoff     =     350.0000  Ry
     scf convergence threshold =      1.0E-07
     mixing beta               =       0.7000
     number of iterations used =            8  plain     mixing
     energy convergence thresh.=      1.0E-04
     force convergence thresh. =      1.0E-03
     Exchange-correlation= BEEF-VDW
                           (   1   4  43  14   2   0   0)
     nstep                     =           50


     celldm(1)=  26.709025  celldm(2)=   0.000000  celldm(3)=   1.043981
     celldm(4)=   0.000000  celldm(5)=   0.000000  celldm(6)=   0.000000

     crystal axes: (cart. coord. in units of alat)
               a(1) = (   1.000000   0.000000   0.000000 )  
               a(2) = (  -0.500000   0.866025   0.000000 )  
               a(3) = (   0.000000   0.000000   1.043981 )  

     reciprocal axes: (cart. coord. in units 2 pi/alat)
               b(1) = (  1.000000  0.577350 -0.000000 )  
               b(2) = (  0.000000  1.154701  0.000000 )  
               b(3) = (  0.000000 -0.000000  0.957872 )  


     PseudoPot. # 1 for Pb read from file:
     /trace/group/acmegroup/atimmins/packages/espresso/pseudo/psl_1.0.0/pslibrary.1.0.0/pbe/PSEUDOPOTENTIALS/Pb.pbe-dn-kjpaw_psl.1.0.0.UPF
     MD5 check sum: 39ab5b8a6bbd56b7735ad9f188aac93a
     Pseudo is Projector augmented-wave + core cor, Zval = 14.0
     Generated using 'atomic' code by A. Dal Corso  v.7.1
     Shape of augmentation charge: PSQ
     Using radial grid of 1281 points,  6 beta functions with: 
                l(1) =   0
                l(2) =   0
                l(3) =   1
                l(4) =   1
                l(5) =   2
                l(6) =   2
     Q(r) pseudized with 0 coefficients 


     PseudoPot. # 2 for I  read from file:
     /trace/group/acmegroup/atimmins/packages/espresso/pseudo/psl_1.0.0/pslibrary.1.0.0/pbe/PSEUDOPOTENTIALS/I.pbe-dn-kjpaw_psl.1.0.0.UPF
     MD5 check sum: bfa8781bc1224d19af3f3980e3fab11e
     Pseudo is Projector augmented-wave + core cor, Zval = 17.0
     Generated using 'atomic' code by A. Dal Corso  v.7.1
     Shape of augmentation charge: PSQ
     Using radial grid of 1247 points,  6 beta functions with: 
                l(1) =   0
                l(2) =   0
                l(3) =   1
                l(4) =   1
                l(5) =   2
                l(6) =   2
     Q(r) pseudized with 0 coefficients 


     atomic species   valence    mass     pseudopotential
        Pb            14.00   207.20000     Pb( 1.00)
        I             17.00   126.90447     I ( 1.00)

     No symmetry found


                                    s                        frac. trans.

      isym =  1     identity                                     

 cryst.   s( 1) = (     1          0          0      )
                  (     0          1          0      )
                  (     0          0          1      )

 cart.    s( 1) = (  1.0000000  0.0000000  0.0000000 )
                  (  0.0000000  1.0000000  0.0000000 )
                  (  0.0000000  0.0000000  1.0000000 )


     point group C_1 (1)    
     there are  1 classes
     the character table:

       E    
A      1.00

     the symmetry operations in each class and the name of the first element:

     E        1
          identity                                               

   Cartesian axes

     site n.     atom                  positions (alat units)
         1           Pb  tau(   1) = (   0.1666780   0.2886497   1.0439767  )
         2           Pb  tau(   2) = (   0.1666712   0.2886557   0.5219862  )
         3           Pb  tau(   3) = (   0.0000102   0.5773235   1.0439712  )
         4           Pb  tau(   4) = (   0.0000034   0.5773295   0.5219807  )
         5           Pb  tau(   5) = (  -0.1666576   0.8659973   1.0439657  )
         6           Pb  tau(   6) = (  -0.1666644   0.8660033   0.5219752  )
         7           Pb  tau(   7) = (   0.5000113   0.2886484   1.0439810  )
         8           Pb  tau(   8) = (   0.5000045   0.2886544   0.5219905  )
         9           Pb  tau(   9) = (   0.3333436   0.5773222   1.0439755  )
        10           Pb  tau(  10) = (   0.3333367   0.5773282   0.5219850  )
        11           Pb  tau(  11) = (   0.1666758   0.8659960   1.0439700  )
        12           Pb  tau(  12) = (   0.1666690   0.8660020   0.5219795  )
        13           Pb  tau(  13) = (   0.8333447   0.2886471   1.0439853  )
        14           Pb  tau(  14) = (   0.8333379   0.2886531   0.5219949  )
        15           Pb  tau(  15) = (   0.6666769   0.5773209   1.0439798  )
        16           Pb  tau(  16) = (   0.6666701   0.5773269   0.5219894  )
        17           Pb  tau(  17) = (   0.5000091   0.8659947   1.0439743  )
        18           Pb  tau(  18) = (   0.5000023   0.8660007   0.5219839  )
        19           I   tau(  19) = (   0.1666806   0.0962006   0.9099004  )
        20           I   tau(  20) = (   0.0000060   0.3848804   0.3879044  )
        21           I   tau(  21) = (   0.0000129   0.3848744   0.9098949  )
        22           I   tau(  22) = (  -0.1666617   0.6735542   0.3878990  )
        23           I   tau(  23) = (  -0.1666549   0.6735482   0.9098894  )
        24           I   tau(  24) = (   0.5000071   0.0962053   0.3879143  )
        25           I   tau(  25) = (   0.5000140   0.0961993   0.9099047  )
        26           I   tau(  26) = (   0.3333394   0.3848792   0.3879088  )
        27           I   tau(  27) = (   0.3333462   0.3848731   0.9098993  )
        28           I   tau(  28) = (   0.1666716   0.6735530   0.3879033  )
        29           I   tau(  29) = (   0.1666784   0.6735469   0.9098938  )
        30           I   tau(  30) = (   0.8333405   0.0962041   0.3879186  )
        31           I   tau(  31) = (   0.8333473   0.0961980   0.9099091  )
        32           I   tau(  32) = (   0.6666727   0.3848779   0.3879131  )
        33           I   tau(  33) = (   0.6666795   0.3848718   0.9099036  )
        34           I   tau(  34) = (   0.5000049   0.6735517   0.3879076  )
        35           I   tau(  35) = (   0.5000117   0.6735457   0.9098981  )
        36           I   tau(  36) = (  -0.0000023   0.1924396   0.1340740  )
        37           I   tau(  37) = (   0.0000045   0.1924336   0.6560644  )
        38           I   tau(  38) = (  -0.1666701   0.4811134   0.1340685  )
        39           I   tau(  39) = (  -0.1666632   0.4811074   0.6560589  )
        40           I   tau(  40) = (  -0.3333378   0.7697873   0.1340630  )
        41           I   tau(  41) = (  -0.3333310   0.7697812   0.6560534  )
        42           I   tau(  42) = (   0.3333311   0.1924384   0.1340783  )
        43           I   tau(  43) = (   0.3333379   0.1924323   0.6560688  )
        44           I   tau(  44) = (   0.1666633   0.4811122   0.1340728  )
        45           I   tau(  45) = (   0.1666701   0.4811061   0.6560633  )
        46           I   tau(  46) = (  -0.0000045   0.7697860   0.1340673  )
        47           I   tau(  47) = (   0.0000023   0.7697799   0.6560578  )
        48           I   tau(  48) = (   0.6666644   0.1924371   0.1340827  )
        49           I   tau(  49) = (   0.6666712   0.1924310   0.6560731  )
        50           I   tau(  50) = (   0.4999966   0.4811109   0.1340772  )
        51           I   tau(  51) = (   0.5000034   0.4811049   0.6560676  )
        52           I   tau(  52) = (   0.3333288   0.7697847   0.1340717  )
        53           I   tau(  53) = (   0.3333356   0.7697787   0.6560621  )

   Crystallographic axes

     site n.     atom                  positions (cryst. coord.)
         1           Pb  tau(   1) = (  0.3333300  0.3333039  0.9999959  )
         2           Pb  tau(   2) = (  0.3333266  0.3333109  0.4999959  )
         3           Pb  tau(   3) = (  0.3333281  0.6666357  0.9999906  )
         4           Pb  tau(   4) = (  0.3333248  0.6666427  0.4999906  )
         5           Pb  tau(   5) = (  0.3333262  0.9999675  0.9999854  )
         6           Pb  tau(   6) = (  0.3333229  0.9999745  0.4999854  )
         7           Pb  tau(   7) = (  0.6666626  0.3333025  1.0000001  )
         8           Pb  tau(   8) = (  0.6666592  0.3333094  0.5000001  )
         9           Pb  tau(   9) = (  0.6666607  0.6666343  0.9999948  )
        10           Pb  tau(  10) = (  0.6666573  0.6666412  0.4999948  )
        11           Pb  tau(  11) = (  0.6666588  0.9999661  0.9999895  )
        12           Pb  tau(  12) = (  0.6666555  0.9999730  0.4999895  )
        13           Pb  tau(  13) = (  0.9999951  0.3333010  1.0000042  )
        14           Pb  tau(  14) = (  0.9999918  0.3333079  0.5000042  )
        15           Pb  tau(  15) = (  0.9999933  0.6666328  0.9999990  )
        16           Pb  tau(  16) = (  0.9999899  0.6666397  0.4999990  )
        17           Pb  tau(  17) = (  0.9999914  0.9999646  0.9999937  )
        18           Pb  tau(  18) = (  0.9999881  0.9999715  0.4999937  )
        19           I   tau(  19) = (  0.2222221  0.1110829  0.8715680  )
        20           I   tau(  20) = (  0.2222169  0.4444217  0.3715628  )
        21           I   tau(  21) = (  0.2222202  0.4444147  0.8715628  )
        22           I   tau(  22) = (  0.2222150  0.7777534  0.3715575  )
        23           I   tau(  23) = (  0.2222183  0.7777465  0.8715575  )
        24           I   tau(  24) = (  0.5555513  0.1110884  0.3715722  )
        25           I   tau(  25) = (  0.5555547  0.1110814  0.8715722  )
        26           I   tau(  26) = (  0.5555495  0.4444202  0.3715669  )
        27           I   tau(  27) = (  0.5555528  0.4444132  0.8715669  )
        28           I   tau(  28) = (  0.5555476  0.7777520  0.3715617  )
        29           I   tau(  29) = (  0.5555509  0.7777450  0.8715617  )
        30           I   tau(  30) = (  0.8888839  0.1110869  0.3715764  )
        31           I   tau(  31) = (  0.8888873  0.1110799  0.8715764  )
        32           I   tau(  32) = (  0.8888820  0.4444187  0.3715711  )
        33           I   tau(  33) = (  0.8888854  0.4444117  0.8715711  )
        34           I   tau(  34) = (  0.8888802  0.7777505  0.3715658  )
        35           I   tau(  35) = (  0.8888835  0.7777435  0.8715658  )
        36           I   tau(  36) = (  0.1111028  0.2222102  0.1284257  )
        37           I   tau(  37) = (  0.1111061  0.2222032  0.6284257  )
        38           I   tau(  38) = (  0.1111009  0.5555420  0.1284204  )
        39           I   tau(  39) = (  0.1111043  0.5555350  0.6284204  )
        40           I   tau(  40) = (  0.1110991  0.8888738  0.1284152  )
        41           I   tau(  41) = (  0.1111024  0.8888668  0.6284152  )
        42           I   tau(  42) = (  0.4444354  0.2222087  0.1284299  )
        43           I   tau(  43) = (  0.4444387  0.2222017  0.6284299  )
        44           I   tau(  44) = (  0.4444335  0.5555405  0.1284246  )
        45           I   tau(  45) = (  0.4444369  0.5555335  0.6284246  )
        46           I   tau(  46) = (  0.4444316  0.8888723  0.1284193  )
        47           I   tau(  47) = (  0.4444350  0.8888653  0.6284193  )
        48           I   tau(  48) = (  0.7777680  0.2222072  0.1284340  )
        49           I   tau(  49) = (  0.7777713  0.2222002  0.6284340  )
        50           I   tau(  50) = (  0.7777661  0.5555390  0.1284287  )
        51           I   tau(  51) = (  0.7777694  0.5555320  0.6284287  )
        52           I   tau(  52) = (  0.7777642  0.8888708  0.1284235  )
        53           I   tau(  53) = (  0.7777676  0.8888638  0.6284235  )

     number of k points=     4  Gaussian smearing, width (Ry)=  0.0100
                       cart. coord. in units 2pi/alat
        k(    1) = (   0.0000000   0.0000000   0.0000000), wk =   0.5000000
        k(    2) = (   0.0000000  -0.5773503   0.0000000), wk =   0.5000000
        k(    3) = (   0.5000000  -0.2886751   0.0000000), wk =   0.5000000
        k(    4) = (  -0.5000000  -0.2886751   0.0000000), wk =   0.5000000

                       cryst. coord.
        k(    1) = (   0.0000000   0.0000000   0.0000000), wk =   0.5000000
        k(    2) = (   0.0000000  -0.5000000   0.0000000), wk =   0.5000000
        k(    3) = (   0.5000000  -0.5000000   0.0000000), wk =   0.5000000
        k(    4) = (  -0.5000000   0.0000000   0.0000000), wk =   0.5000000

     Dense  grid:  1904969 G-vectors     FFT dimensions: ( 160, 160, 180)

     Smooth grid:  1362953 G-vectors     FFT dimensions: ( 144, 144, 150)

     Dynamical RAM for                 wfc:      20.68 MB

     Dynamical RAM for     wfc (w. buffer):      62.03 MB

     Dynamical RAM for           str. fact:       0.91 MB

     Dynamical RAM for           local pot:       0.00 MB

     Dynamical RAM for          nlocal pot:      38.75 MB

     Dynamical RAM for                qrad:       3.00 MB

     Dynamical RAM for          rho,v,vnew:       3.12 MB

     Dynamical RAM for               rhoin:       1.04 MB

     Dynamical RAM for            rho*nmix:       7.27 MB

     Dynamical RAM for           G-vectors:       1.87 MB

     Dynamical RAM for          h,s,v(r/c):     189.76 MB

     Dynamical RAM for          <psi|beta>:       7.41 MB

     Dynamical RAM for                 psi:      82.70 MB

     Dynamical RAM for                hpsi:      82.70 MB

     Dynamical RAM for                spsi:      82.70 MB

     Dynamical RAM for      wfcinit/wfcrot:      47.28 MB

     Dynamical RAM for           addusdens:      50.42 MB

     Dynamical RAM for          addusforce:      65.99 MB

     Dynamical RAM for         addusstress:      45.76 MB

     Estimated static dynamical RAM per process >     115.01 MB

     Estimated max dynamical RAM per process >     567.54 MB

     Estimated total dynamical RAM >      70.49 GB

     Check: negative core charge=   -0.000001

     Initial potential from superposition of free atoms

     starting charge     846.9550, renormalised to     848.0000


     %%%%%%%%%%%%%%%%%%%%%%%%%%%%%%%%%%%%%%%%%%%%%%%%%%%%%%%%%%%%%%%%%%%%%%%%
     %                                                                      %
     % You are using vdW-DF, which was implemented by the Thonhauser group. %
     % Please cite the following two papers that made this development      %
     % possible and the two reviews that describe the various versions:     %
     %                                                                      %
     %   T. Thonhauser et al., PRL 115, 136402 (2015).                      %
     %   T. Thonhauser et al., PRB 76, 125112 (2007).                       %
     %   K. Berland et al., Rep. Prog. Phys. 78, 066501 (2015).             %
     %   D.C. Langreth et al., J. Phys.: Condens. Matter 21, 084203 (2009). %
     %                                                                      %
     % If you are calculating stress with vdW-DF, please also cite:         %
     %                                                                      %
     %   R. Sabatini et al., J. Phys.: Condens. Matter 24, 424209 (2012).   %
     %                                                                      %
     %%%%%%%%%%%%%%%%%%%%%%%%%%%%%%%%%%%%%%%%%%%%%%%%%%%%%%%%%%%%%%%%%%%%%%%%

     %%%%%%%%%%%%%%%%%%%%%%%%%%%%%%%%%%%%%%%%%%%%%%%%%%%%%%%%%%%%%%%%%%%%%%%%
     %                                                                      %
     %  vdW-DF NEWS:                                                        %
     %                                                                      %
     %  * vdW-DF3 is now available. DOI: 10.1021/acs.jctc.0c00471           %
     %    use with input_dft = 'vdW-DF3-opt1' or 'vdW-DF3-opt2'             %
     %                                                                      %
     %  * Unscreened and range-separated vdW-DF hybrid functionals          %
     %    DOI: 10.1063/1.4986522 and 10.1088/1361-648X/ac2ad2               %
     %    use with input_dft = 'vdW-DF-cx0' (etc) and 'vdW-DF-ahcx'         %
     %                                                                      %
     %%%%%%%%%%%%%%%%%%%%%%%%%%%%%%%%%%%%%%%%%%%%%%%%%%%%%%%%%%%%%%%%%%%%%%%%


     Carrying out vdW-DF run using the following parameters:
     Nqs    =  20  Npoints =  1024  r_max =  100.000
     q_mesh =  0.00001000  0.04494208  0.09755937  0.15916263
               0.23128650  0.31572767  0.41458969  0.53033537
               0.66584808  0.82450364  1.01025438  1.22772762
               1.48234092  1.78043706  2.12944203  2.53805004
               3.01644009  3.57652955  4.23227104  5.00000000


     -----------------------------------------------
     Non-local corr. energy    =      25.23122439 Ry
     -----------------------------------------------

     Starting wfcs are  477 randomized atomic wfcs +   32 random wfcs
     Checking if some PAW data can be deallocated... 
       PAW data deallocated on   74 nodes for type:  1
       PAW data deallocated on   54 nodes for type:  2

     total cpu time spent up to now is       10.4 secs

     Self-consistent Calculation

     iteration #  1     ecut=    70.00 Ry     beta= 0.70
     Davidson diagonalization with overlap

---- Real-time Memory Report at c_bands before calling an iterative solver
           343 MiB given to the printing process from OS
             0 MiB allocation reported by mallinfo(arena+hblkhd)
       2018462 MiB available memory on the node where the printing process lives
------------------
     ethr =  1.00E-02,  avg # of iterations =  7.8

     Threshold (ethr) on eigenvalues was too large:
     Diagonalizing with lowered threshold

     Davidson diagonalization with overlap

---- Real-time Memory Report at c_bands before calling an iterative solver
           575 MiB given to the printing process from OS
             0 MiB allocation reported by mallinfo(arena+hblkhd)
       2017295 MiB available memory on the node where the printing process lives
------------------
     ethr =  1.93E-04,  avg # of iterations = 11.8


     -----------------------------------------------
     Non-local corr. energy    =      25.35880364 Ry
     -----------------------------------------------


     total cpu time spent up to now is      146.7 secs

     total energy              =  -35860.55544294 Ry
     estimated scf accuracy    <       1.52460674 Ry

     iteration #  2     ecut=    70.00 Ry     beta= 0.70
     Davidson diagonalization with overlap

---- Real-time Memory Report at c_bands before calling an iterative solver
           632 MiB given to the printing process from OS
             0 MiB allocation reported by mallinfo(arena+hblkhd)
       2017241 MiB available memory on the node where the printing process lives
------------------
     ethr =  1.80E-04,  avg # of iterations = 12.5


     -----------------------------------------------
     Non-local corr. energy    =      25.30469472 Ry
     -----------------------------------------------


     total cpu time spent up to now is      238.2 secs

     total energy              =  -35860.46903866 Ry
     estimated scf accuracy    <       3.16906448 Ry

     iteration #  3     ecut=    70.00 Ry     beta= 0.70
     Davidson diagonalization with overlap

---- Real-time Memory Report at c_bands before calling an iterative solver
           640 MiB given to the printing process from OS
             0 MiB allocation reported by mallinfo(arena+hblkhd)
       2016006 MiB available memory on the node where the printing process lives
------------------
     ethr =  1.80E-04,  avg # of iterations = 12.0


     -----------------------------------------------
     Non-local corr. energy    =      25.29465742 Ry
     -----------------------------------------------


     total cpu time spent up to now is      309.5 secs

     total energy              =  -35861.12779195 Ry
     estimated scf accuracy    <       0.52490858 Ry

     iteration #  4     ecut=    70.00 Ry     beta= 0.70
     Davidson diagonalization with overlap

---- Real-time Memory Report at c_bands before calling an iterative solver
           640 MiB given to the printing process from OS
             0 MiB allocation reported by mallinfo(arena+hblkhd)
       2016915 MiB available memory on the node where the printing process lives
------------------
     ethr =  6.19E-05,  avg # of iterations = 14.0


     -----------------------------------------------
     Non-local corr. energy    =      25.29618162 Ry
     -----------------------------------------------


     total cpu time spent up to now is      387.4 secs

     total energy              =  -35861.19712591 Ry
     estimated scf accuracy    <       0.07915020 Ry

     iteration #  5     ecut=    70.00 Ry     beta= 0.70
     Davidson diagonalization with overlap

---- Real-time Memory Report at c_bands before calling an iterative solver
           640 MiB given to the printing process from OS
             0 MiB allocation reported by mallinfo(arena+hblkhd)
       2015838 MiB available memory on the node where the printing process lives
------------------
     ethr =  9.33E-06,  avg # of iterations = 15.8


     -----------------------------------------------
     Non-local corr. energy    =      25.30089848 Ry
     -----------------------------------------------


     total cpu time spent up to now is      484.9 secs

     total energy              =  -35861.20613195 Ry
     estimated scf accuracy    <       0.08743379 Ry

     iteration #  6     ecut=    70.00 Ry     beta= 0.70
     Davidson diagonalization with overlap

---- Real-time Memory Report at c_bands before calling an iterative solver
           640 MiB given to the printing process from OS
             0 MiB allocation reported by mallinfo(arena+hblkhd)
       2016721 MiB available memory on the node where the printing process lives
------------------
     ethr =  9.33E-06,  avg # of iterations = 17.8


     -----------------------------------------------
     Non-local corr. energy    =      25.30836476 Ry
     -----------------------------------------------


     total cpu time spent up to now is      576.0 secs

     total energy              =  -35861.21938583 Ry
     estimated scf accuracy    <       0.01066488 Ry

     iteration #  7     ecut=    70.00 Ry     beta= 0.70
     Davidson diagonalization with overlap

---- Real-time Memory Report at c_bands before calling an iterative solver
           640 MiB given to the printing process from OS
             0 MiB allocation reported by mallinfo(arena+hblkhd)
       2016629 MiB available memory on the node where the printing process lives
------------------
     c_bands:  1 eigenvalues not converged
     ethr =  1.26E-06,  avg # of iterations = 18.5


     -----------------------------------------------
     Non-local corr. energy    =      25.31361945 Ry
     -----------------------------------------------


     total cpu time spent up to now is      683.8 secs

     total energy              =  -35861.22125450 Ry
     estimated scf accuracy    <       0.00186769 Ry

     iteration #  8     ecut=    70.00 Ry     beta= 0.70
     Davidson diagonalization with overlap

---- Real-time Memory Report at c_bands before calling an iterative solver
           640 MiB given to the printing process from OS
             0 MiB allocation reported by mallinfo(arena+hblkhd)
       2016518 MiB available memory on the node where the printing process lives
------------------
     ethr =  2.20E-07,  avg # of iterations = 11.5


     -----------------------------------------------
     Non-local corr. energy    =      25.31876532 Ry
     -----------------------------------------------


     total cpu time spent up to now is      775.4 secs

     total energy              =  -35861.22180812 Ry
     estimated scf accuracy    <       0.00068306 Ry

     iteration #  9     ecut=    70.00 Ry     beta= 0.70
     Davidson diagonalization with overlap

---- Real-time Memory Report at c_bands before calling an iterative solver
           680 MiB given to the printing process from OS
             0 MiB allocation reported by mallinfo(arena+hblkhd)
       2016420 MiB available memory on the node where the printing process lives
------------------
     ethr =  8.05E-08,  avg # of iterations = 12.8


     -----------------------------------------------
     Non-local corr. energy    =      25.32201709 Ry
     -----------------------------------------------


     total cpu time spent up to now is      851.0 secs

     total energy              =  -35861.22190397 Ry
     estimated scf accuracy    <       0.00031536 Ry

     iteration # 10     ecut=    70.00 Ry     beta= 0.70
     Davidson diagonalization with overlap

---- Real-time Memory Report at c_bands before calling an iterative solver
           680 MiB given to the printing process from OS
             0 MiB allocation reported by mallinfo(arena+hblkhd)
       2016327 MiB available memory on the node where the printing process lives
------------------
     c_bands:  1 eigenvalues not converged
     ethr =  3.72E-08,  avg # of iterations = 15.8


     -----------------------------------------------
     Non-local corr. energy    =      25.32085163 Ry
     -----------------------------------------------


     total cpu time spent up to now is      942.9 secs

     total energy              =  -35861.22194975 Ry
     estimated scf accuracy    <       0.00009308 Ry

     iteration # 11     ecut=    70.00 Ry     beta= 0.70
     Davidson diagonalization with overlap

---- Real-time Memory Report at c_bands before calling an iterative solver
           680 MiB given to the printing process from OS
             0 MiB allocation reported by mallinfo(arena+hblkhd)
       2016303 MiB available memory on the node where the printing process lives
------------------
     c_bands:  1 eigenvalues not converged
     ethr =  1.10E-08,  avg # of iterations = 18.0


     -----------------------------------------------
     Non-local corr. energy    =      25.32036565 Ry
     -----------------------------------------------


     total cpu time spent up to now is     1044.4 secs

     total energy              =  -35861.22196333 Ry
     estimated scf accuracy    <       0.00003607 Ry

     iteration # 12     ecut=    70.00 Ry     beta= 0.70
     Davidson diagonalization with overlap

---- Real-time Memory Report at c_bands before calling an iterative solver
           680 MiB given to the printing process from OS
             0 MiB allocation reported by mallinfo(arena+hblkhd)
       2016307 MiB available memory on the node where the printing process lives
------------------
     c_bands:  1 eigenvalues not converged
     c_bands:  1 eigenvalues not converged
     ethr =  4.25E-09,  avg # of iterations = 20.0


     -----------------------------------------------
     Non-local corr. energy    =      25.32014448 Ry
     -----------------------------------------------


     total cpu time spent up to now is     1148.3 secs

     total energy              =  -35861.22196866 Ry
     estimated scf accuracy    <       0.00000340 Ry

     iteration # 13     ecut=    70.00 Ry     beta= 0.70
     Davidson diagonalization with overlap

---- Real-time Memory Report at c_bands before calling an iterative solver
           680 MiB given to the printing process from OS
             0 MiB allocation reported by mallinfo(arena+hblkhd)
       2016123 MiB available memory on the node where the printing process lives
------------------
     ethr =  4.01E-10,  avg # of iterations = 11.5


     -----------------------------------------------
     Non-local corr. energy    =      25.31998730 Ry
     -----------------------------------------------


     total cpu time spent up to now is     1299.2 secs

     total energy              =  -35861.22197005 Ry
     estimated scf accuracy    <       0.00000096 Ry

     iteration # 14     ecut=    70.00 Ry     beta= 0.70
     Davidson diagonalization with overlap

---- Real-time Memory Report at c_bands before calling an iterative solver
           795 MiB given to the printing process from OS
             0 MiB allocation reported by mallinfo(arena+hblkhd)
       2015775 MiB available memory on the node where the printing process lives
------------------
     c_bands:  1 eigenvalues not converged
     ethr =  1.13E-10,  avg # of iterations = 16.8


     -----------------------------------------------
     Non-local corr. energy    =      25.31997718 Ry
     -----------------------------------------------


     total cpu time spent up to now is     1394.5 secs

     total energy              =  -35861.22197013 Ry
     estimated scf accuracy    <       0.00000024 Ry

     iteration # 15     ecut=    70.00 Ry     beta= 0.70
     Davidson diagonalization with overlap

---- Real-time Memory Report at c_bands before calling an iterative solver
           795 MiB given to the printing process from OS
             0 MiB allocation reported by mallinfo(arena+hblkhd)
       2015775 MiB available memory on the node where the printing process lives
------------------
     c_bands:  1 eigenvalues not converged
     ethr =  2.77E-11,  avg # of iterations = 16.3


     -----------------------------------------------
     Non-local corr. energy    =      25.32001184 Ry
     -----------------------------------------------


     total cpu time spent up to now is     1517.4 secs

     total energy              =  -35861.22197020 Ry
     estimated scf accuracy    <       0.00000024 Ry

     iteration # 16     ecut=    70.00 Ry     beta= 0.70
     Davidson diagonalization with overlap

---- Real-time Memory Report at c_bands before calling an iterative solver
           795 MiB given to the printing process from OS
             0 MiB allocation reported by mallinfo(arena+hblkhd)
       2015773 MiB available memory on the node where the printing process lives
------------------
     ethr =  2.77E-11,  avg # of iterations = 15.8


     -----------------------------------------------
     Non-local corr. energy    =      25.32002664 Ry
     -----------------------------------------------


     total cpu time spent up to now is     1612.0 secs

     total energy              =  -35861.22197024 Ry
     estimated scf accuracy    <       0.00000015 Ry

     iteration # 17     ecut=    70.00 Ry     beta= 0.70
     Davidson diagonalization with overlap

---- Real-time Memory Report at c_bands before calling an iterative solver
           795 MiB given to the printing process from OS
             0 MiB allocation reported by mallinfo(arena+hblkhd)
       2014653 MiB available memory on the node where the printing process lives
------------------
     ethr =  1.77E-11,  avg # of iterations = 14.5


     -----------------------------------------------
     Non-local corr. energy    =      25.32006401 Ry
     -----------------------------------------------


     total cpu time spent up to now is     1688.2 secs

     End of self-consistent calculation

          k = 0.0000 0.0000 0.0000 (170421 PWs)   bands (ev):

   -41.0287 -41.0287 -41.0273 -41.0273 -41.0266 -41.0254 -41.0254 -41.0252
   -41.0248 -41.0248 -41.0246 -41.0238 -41.0237 -41.0235 -41.0232 -41.0232
   -41.0230 -41.0227 -41.0226 -41.0225 -41.0181 -41.0181 -41.0181 -41.0180
   -41.0180 -41.0178 -41.0166 -41.0166 -41.0164 -41.0164 -41.0163 -41.0163
   -41.0159 -41.0158 -41.0157 -41.0132 -41.0132 -41.0131 -41.0131 -41.0131
   -41.0130 -41.0130 -41.0130 -41.0129 -41.0129 -41.0128 -41.0128 -41.0124
   -41.0123 -41.0123 -41.0123 -41.0122 -41.0122 -41.0117 -41.0116 -41.0115
   -41.0115 -41.0114 -41.0114 -41.0114 -41.0114 -41.0113 -41.0113 -41.0113
   -41.0112 -41.0109 -41.0109 -41.0108 -41.0108 -41.0108 -41.0107 -41.0107
   -41.0107 -41.0107 -41.0107 -41.0107 -41.0106 -41.0101 -41.0100 -41.0100
   -41.0085 -41.0084 -41.0068 -41.0068 -41.0062 -41.0018 -41.0016 -41.0000
   -41.0000 -40.9993 -40.9523 -40.9523 -40.9517 -40.9517 -40.9517 -40.9508
   -40.9508 -40.9506 -40.9503 -40.9502 -40.9501 -40.9499 -40.9498 -40.9496
   -40.9494 -40.9493 -40.9493 -40.9492 -40.9492 -40.9490 -40.9360 -40.9359
   -40.9347 -40.9347 -40.9343 -40.8881 -40.8881 -40.8879 -40.8879 -40.8879
   -40.8878 -40.8876 -40.8875 -40.8874 -40.8874 -40.8874 -40.8873 -40.8816
   -40.8815 -40.8814 -40.8814 -40.8814 -40.8813 -40.8803 -40.8802 -40.8802
   -40.8801 -40.8801 -40.8800 -40.8794 -40.8793 -40.8792 -40.8792 -40.8792
   -40.8790 -40.8210 -40.8210 -40.8209 -40.8209 -40.8208 -40.8207 -40.8206
   -40.8205 -40.8205 -40.8203 -40.8202 -40.8201 -40.8166 -40.8166 -40.8165
   -40.8161 -40.8160 -40.8159 -40.8152 -40.8151 -40.8151 -40.8135 -40.8134
   -40.8133 -40.8108 -40.8107 -40.8106 -40.8082 -40.8081 -40.8080 -13.1674
   -13.1649 -13.1648 -13.1622 -13.1622 -13.1587 -13.1554 -13.1527 -13.1527
   -13.1510 -13.1507 -13.1507 -13.1455 -13.1445 -13.1445 -13.1439 -13.1426
   -13.1426 -13.1412 -13.1407 -13.1407 -13.1388 -13.1382 -13.1382 -13.1369
   -13.1367 -13.1358 -13.1357 -13.1349 -13.1349 -13.1336 -13.1336 -13.1331
   -13.1322 -13.1300 -13.1300 -13.1286 -13.1285 -13.1282 -13.1282 -13.1263
   -13.1263 -13.1238 -13.1218 -13.1218 -13.0980 -13.0968 -13.0968 -13.0881
   -13.0868 -13.0868 -13.0800 -13.0791 -13.0791 -13.0780 -13.0779 -13.0779
   -13.0746 -13.0738 -13.0738 -13.0397 -13.0288 -13.0288 -13.0240 -13.0240
   -13.0177 -13.0177 -13.0155 -13.0151 -13.0126 -13.0084 -13.0084 -13.0054
   -13.0037 -13.0037 -12.7314 -12.7314 -12.7234 -12.7137 -12.7123 -12.7123
   -12.6534 -12.6534 -12.6533 -12.6492 -12.6491 -12.6491 -12.6448 -12.6406
   -12.6405  -8.3087  -8.1390  -8.0025  -7.9997  -7.9996  -7.9959  -7.9959
    -7.9900  -7.9039  -7.8858  -7.8739  -7.8739  -7.8202  -7.8201  -7.7783
    -7.7685  -7.7684  -7.7643  -7.7643  -7.7603  -7.7563  -7.7563  -7.7547
    -7.7515  -7.7487  -7.7249  -7.6571  -7.6571  -7.6442  -7.6257  -7.6120
    -7.5834  -7.5834  -7.5636  -7.5635  -3.9179  -3.9179  -3.7758  -3.7758
    -3.7273  -3.7269  -3.7268  -3.7205  -3.7204  -3.7202  -3.6299  -3.6210
    -3.6210  -3.5136  -3.3949  -3.2952  -3.2951  -3.1745   1.0024   1.0057
     1.0058   1.0155   1.0167   1.0167   1.0170   1.0297   1.0311   1.0312
     1.1623   1.1722   1.1722   1.2033   1.2033   1.2241   1.2926   1.2926
     1.3457   1.4181   1.4181   1.4434   1.5642   1.5642   1.6296   1.6297
     1.6323   1.6904   1.7116   1.7116   1.8597   1.8600   1.8601   1.8671
     1.8804   1.8806   1.9937   2.0262   2.0303   2.0303   2.0397   2.0398
     2.0434   2.0841   2.0842   2.0880   2.1449   2.2259   2.2259   2.2373
     2.2769   2.3259   2.3260   2.3887   2.4027   2.4028   2.4172   2.4173
     2.4423   2.4894   2.4898   2.5261   2.6034   2.6034   2.6065   2.6089
     2.6146   2.6147   2.6188   2.6272   2.6272   2.6395   2.6396   2.6796
     2.6796   2.7026   2.7165   2.7165   2.7741   2.7905   2.7905   2.8101
     2.8101   2.8221   2.8322   2.8507   2.8507   2.8646   2.8674   2.8885
     2.8885   2.9042   2.9043   2.9108   2.9108   2.9123   3.0536   3.0842
     3.0842   3.1046   3.1047   3.1111   3.2568   3.2568   3.2786   5.5758
     5.7727   6.0737   6.3475   6.3476   6.3515   6.3779   6.3780   6.4430
     6.5882   6.5885   6.6201   6.6202   6.6309   6.6874   6.6875   6.7548
     6.7548   6.8381   6.8735   6.8884   6.8885   6.9529   6.9530   7.0416
     7.0506   7.0507   7.0638   7.0912   7.0913   7.2397   7.2401   7.2700
     7.2701   7.3074   7.3076   7.3194   7.3250   7.3253   7.3399   7.3451
     7.4156   7.4157   7.4398   7.4515   7.4517   7.5000   7.5002   7.5220
     7.5221   7.5331   7.5630   7.7285   7.7286   9.1880   9.2978   9.2978
     9.3046   9.3498   9.3500   9.4903   9.6583   9.6802   9.6803   9.7760
     9.7858   9.7858  10.0590  10.0590  10.0738  10.3597  10.5755  10.5755
    10.7755  10.7756  10.7833  10.8208  10.8341  10.8448  10.8448  10.9056
    10.9057  10.9391  10.9392  10.9643  10.9769

     occupation numbers 
     1.0000   1.0000   1.0000   1.0000   1.0000   1.0000   1.0000   1.0000
     1.0000   1.0000   1.0000   1.0000   1.0000   1.0000   1.0000   1.0000
     1.0000   1.0000   1.0000   1.0000   1.0000   1.0000   1.0000   1.0000
     1.0000   1.0000   1.0000   1.0000   1.0000   1.0000   1.0000   1.0000
     1.0000   1.0000   1.0000   1.0000   1.0000   1.0000   1.0000   1.0000
     1.0000   1.0000   1.0000   1.0000   1.0000   1.0000   1.0000   1.0000
     1.0000   1.0000   1.0000   1.0000   1.0000   1.0000   1.0000   1.0000
     1.0000   1.0000   1.0000   1.0000   1.0000   1.0000   1.0000   1.0000
     1.0000   1.0000   1.0000   1.0000   1.0000   1.0000   1.0000   1.0000
     1.0000   1.0000   1.0000   1.0000   1.0000   1.0000   1.0000   1.0000
     1.0000   1.0000   1.0000   1.0000   1.0000   1.0000   1.0000   1.0000
     1.0000   1.0000   1.0000   1.0000   1.0000   1.0000   1.0000   1.0000
     1.0000   1.0000   1.0000   1.0000   1.0000   1.0000   1.0000   1.0000
     1.0000   1.0000   1.0000   1.0000   1.0000   1.0000   1.0000   1.0000
     1.0000   1.0000   1.0000   1.0000   1.0000   1.0000   1.0000   1.0000
     1.0000   1.0000   1.0000   1.0000   1.0000   1.0000   1.0000   1.0000
     1.0000   1.0000   1.0000   1.0000   1.0000   1.0000   1.0000   1.0000
     1.0000   1.0000   1.0000   1.0000   1.0000   1.0000   1.0000   1.0000
     1.0000   1.0000   1.0000   1.0000   1.0000   1.0000   1.0000   1.0000
     1.0000   1.0000   1.0000   1.0000   1.0000   1.0000   1.0000   1.0000
     1.0000   1.0000   1.0000   1.0000   1.0000   1.0000   1.0000   1.0000
     1.0000   1.0000   1.0000   1.0000   1.0000   1.0000   1.0000   1.0000
     1.0000   1.0000   1.0000   1.0000   1.0000   1.0000   1.0000   1.0000
     1.0000   1.0000   1.0000   1.0000   1.0000   1.0000   1.0000   1.0000
     1.0000   1.0000   1.0000   1.0000   1.0000   1.0000   1.0000   1.0000
     1.0000   1.0000   1.0000   1.0000   1.0000   1.0000   1.0000   1.0000
     1.0000   1.0000   1.0000   1.0000   1.0000   1.0000   1.0000   1.0000
     1.0000   1.0000   1.0000   1.0000   1.0000   1.0000   1.0000   1.0000
     1.0000   1.0000   1.0000   1.0000   1.0000   1.0000   1.0000   1.0000
     1.0000   1.0000   1.0000   1.0000   1.0000   1.0000   1.0000   1.0000
     1.0000   1.0000   1.0000   1.0000   1.0000   1.0000   1.0000   1.0000
     1.0000   1.0000   1.0000   1.0000   1.0000   1.0000   1.0000   1.0000
     1.0000   1.0000   1.0000   1.0000   1.0000   1.0000   1.0000   1.0000
     1.0000   1.0000   1.0000   1.0000   1.0000   1.0000   1.0000   1.0000
     1.0000   1.0000   1.0000   1.0000   1.0000   1.0000   1.0000   1.0000
     1.0000   1.0000   1.0000   1.0000   1.0000   1.0000   1.0000   1.0000
     1.0000   1.0000   1.0000   1.0000   1.0000   1.0000   1.0000   1.0000
     1.0000   1.0000   1.0000   1.0000   1.0000   1.0000   1.0000   1.0000
     1.0000   1.0000   1.0000   1.0000   1.0000   1.0000   1.0000   1.0000
     1.0000   1.0000   1.0000   1.0000   1.0000   1.0000   1.0000   1.0000
     1.0000   1.0000   1.0000   1.0000   1.0000   1.0000   1.0000   1.0000
     1.0000   1.0000   1.0000   1.0000   1.0000   1.0000   1.0000   1.0000
     1.0000   1.0000   1.0000   1.0000   1.0000   1.0000   1.0000   1.0000
     1.0000   1.0000   1.0000   1.0000   1.0000   1.0000   1.0000   1.0000
     1.0000   1.0000   1.0000   1.0000   1.0000   1.0000   1.0000   1.0000
     1.0000   1.0000   1.0000   1.0000   1.0000   1.0000   1.0000   1.0000
     1.0000   1.0000   1.0000   1.0000   1.0000   1.0000   1.0000   1.0000
     1.0000   1.0000   1.0000   1.0000   1.0000   1.0000   1.0000   1.0000
     1.0000   1.0000   1.0000   1.0000   1.0000   1.0000   1.0000   1.0000
     1.0000   1.0000   1.0000   1.0000   1.0000   1.0000   1.0000   1.0000
     1.0000   1.0000   1.0000   1.0000   1.0000   1.0000   1.0000   1.0000
     1.0000   1.0000   1.0000   1.0000   1.0000   1.0000   1.0000   1.0000
     1.0000   1.0000   1.0000   1.0000   1.0000   1.0000   1.0000   0.9953
     0.7085   0.0049   0.0000   0.0000   0.0000   0.0000   0.0000   0.0000
     0.0000   0.0000   0.0000   0.0000   0.0000   0.0000   0.0000   0.0000
     0.0000   0.0000   0.0000   0.0000   0.0000   0.0000   0.0000   0.0000
     0.0000   0.0000   0.0000   0.0000   0.0000   0.0000   0.0000   0.0000
     0.0000   0.0000   0.0000   0.0000   0.0000   0.0000   0.0000   0.0000
     0.0000   0.0000   0.0000   0.0000   0.0000   0.0000   0.0000   0.0000
     0.0000   0.0000   0.0000   0.0000   0.0000   0.0000   0.0000   0.0000
     0.0000   0.0000   0.0000   0.0000   0.0000   0.0000   0.0000   0.0000
     0.0000   0.0000   0.0000   0.0000   0.0000   0.0000   0.0000   0.0000
     0.0000   0.0000   0.0000   0.0000   0.0000   0.0000   0.0000   0.0000
     0.0000   0.0000   0.0000   0.0000   0.0000

          k = 0.0000-0.5774 0.0000 (170366 PWs)   bands (ev):

   -41.0287 -41.0287 -41.0273 -41.0273 -41.0266 -41.0254 -41.0254 -41.0252
   -41.0248 -41.0248 -41.0246 -41.0238 -41.0237 -41.0235 -41.0232 -41.0232
   -41.0230 -41.0227 -41.0226 -41.0225 -41.0181 -41.0181 -41.0181 -41.0180
   -41.0180 -41.0178 -41.0166 -41.0166 -41.0164 -41.0164 -41.0163 -41.0163
   -41.0159 -41.0158 -41.0157 -41.0132 -41.0132 -41.0131 -41.0131 -41.0131
   -41.0130 -41.0130 -41.0130 -41.0129 -41.0129 -41.0128 -41.0128 -41.0124
   -41.0123 -41.0123 -41.0123 -41.0122 -41.0122 -41.0117 -41.0116 -41.0115
   -41.0115 -41.0114 -41.0114 -41.0114 -41.0114 -41.0113 -41.0113 -41.0113
   -41.0112 -41.0109 -41.0109 -41.0108 -41.0108 -41.0108 -41.0107 -41.0107
   -41.0107 -41.0107 -41.0107 -41.0107 -41.0106 -41.0101 -41.0100 -41.0100
   -41.0085 -41.0084 -41.0068 -41.0068 -41.0062 -41.0018 -41.0016 -41.0000
   -41.0000 -40.9993 -40.9523 -40.9523 -40.9517 -40.9517 -40.9517 -40.9508
   -40.9508 -40.9506 -40.9503 -40.9502 -40.9501 -40.9499 -40.9498 -40.9496
   -40.9494 -40.9493 -40.9493 -40.9492 -40.9492 -40.9490 -40.9360 -40.9359
   -40.9347 -40.9347 -40.9343 -40.8881 -40.8881 -40.8879 -40.8879 -40.8879
   -40.8878 -40.8876 -40.8875 -40.8874 -40.8874 -40.8874 -40.8873 -40.8816
   -40.8815 -40.8814 -40.8814 -40.8814 -40.8813 -40.8803 -40.8802 -40.8802
   -40.8801 -40.8801 -40.8800 -40.8794 -40.8793 -40.8792 -40.8792 -40.8792
   -40.8790 -40.8210 -40.8210 -40.8209 -40.8209 -40.8208 -40.8207 -40.8206
   -40.8205 -40.8205 -40.8203 -40.8202 -40.8201 -40.8166 -40.8166 -40.8165
   -40.8161 -40.8160 -40.8159 -40.8152 -40.8151 -40.8151 -40.8135 -40.8134
   -40.8133 -40.8108 -40.8107 -40.8106 -40.8082 -40.8081 -40.8080 -13.1695
   -13.1652 -13.1650 -13.1619 -13.1602 -13.1579 -13.1576 -13.1540 -13.1522
   -13.1495 -13.1477 -13.1459 -13.1458 -13.1447 -13.1443 -13.1441 -13.1433
   -13.1433 -13.1424 -13.1417 -13.1407 -13.1400 -13.1391 -13.1385 -13.1374
   -13.1372 -13.1356 -13.1353 -13.1348 -13.1346 -13.1342 -13.1336 -13.1329
   -13.1318 -13.1306 -13.1300 -13.1290 -13.1284 -13.1281 -13.1280 -13.1268
   -13.1260 -13.1233 -13.1216 -13.1214 -13.0980 -13.0969 -13.0968 -13.0881
   -13.0867 -13.0867 -13.0800 -13.0791 -13.0791 -13.0780 -13.0779 -13.0779
   -13.0746 -13.0739 -13.0738 -13.0392 -13.0290 -13.0286 -13.0244 -13.0242
   -13.0178 -13.0177 -13.0154 -13.0149 -13.0126 -13.0084 -13.0082 -13.0053
   -13.0037 -13.0037 -12.7314 -12.7314 -12.7235 -12.7137 -12.7123 -12.7123
   -12.6534 -12.6534 -12.6533 -12.6492 -12.6491 -12.6490 -12.6446 -12.6407
   -12.6405  -8.2202  -8.2123  -8.0830  -8.0596  -8.0594  -8.0205  -7.9087
    -7.8728  -7.8638  -7.8606  -7.8582  -7.8580  -7.8524  -7.8481  -7.8435
    -7.7869  -7.7864  -7.7598  -7.7513  -7.7399  -7.7384  -7.7355  -7.7342
    -7.7339  -7.7254  -7.7169  -7.6990  -7.6643  -7.6422  -7.6398  -7.6255
    -7.5846  -7.5817  -7.5683  -7.5573  -3.8638  -3.8567  -3.8536  -3.8514
    -3.8500  -3.7632  -3.7605  -3.7366  -3.6587  -3.6580  -3.6414  -3.5451
    -3.5112  -3.4877  -3.4811  -3.2883  -3.2441  -3.2239   0.6861   0.8565
     0.8577   0.8853   0.8872   1.0023   1.1071   1.1081   1.1982   1.2053
     1.3443   1.3475   1.3508   1.3568   1.3730   1.3734   1.3764   1.4007
     1.4596   1.4755   1.5051   1.5140   1.5596   1.5926   1.5965   1.6599
     1.6678   1.6793   1.6849   1.6959   1.7210   1.7276   1.7291   1.7617
     1.7960   1.8189   1.8762   1.8899   1.9561   1.9602   2.0068   2.0470
     2.0706   2.0807   2.1363   2.1517   2.2203   2.2223   2.2307   2.2344
     2.2759   2.2878   2.2938   2.3086   2.3226   2.3443   2.3732   2.3767
     2.4016   2.4116   2.4243   2.4607   2.4864   2.4879   2.5062   2.5122
     2.5195   2.5359   2.5369   2.5671   2.5714   2.6030   2.6161   2.6541
     2.6688   2.6705   2.7002   2.7113   2.7190   2.7244   2.7712   2.7855
     2.8033   2.8137   2.8537   2.8551   2.8803   2.8858   2.9710   2.9899
     2.9906   3.0008   3.0249   3.0734   3.0781   3.1069   3.1196   3.1295
     3.1299   3.1339   3.1399   3.1925   3.2256   3.2364   3.2384   5.7564
     6.2136   6.2277   6.3093   6.3868   6.4772   6.5391   6.5867   6.6064
     6.6374   6.6734   6.6987   6.7363   6.7716   6.7742   6.7923   6.7933
     6.8024   6.8054   6.8189   6.8535   6.8785   6.8850   6.9200   6.9553
     6.9572   7.0097   7.0266   7.0446   7.0640   7.0750   7.0903   7.1032
     7.1106   7.1574   7.1615   7.1874   7.2111   7.2330   7.2346   7.2527
     7.2572   7.2947   7.3388   7.3466   7.3661   7.4021   7.4091   7.4416
     7.6336   7.6505   7.6881   7.6919   7.8116   8.9911   9.4136   9.4547
     9.4598   9.5133   9.6053   9.7009   9.8882   9.9059   9.9964  10.0148
    10.0350  10.0441  10.0667  10.0847  10.0914  10.1120  10.2172  10.2405
    10.2410  10.3242  10.5093  10.5705  10.5861  10.6231  10.6890  10.7252
    10.7448  10.7772  10.8027  10.8141  10.8270

     occupation numbers 
     1.0000   1.0000   1.0000   1.0000   1.0000   1.0000   1.0000   1.0000
     1.0000   1.0000   1.0000   1.0000   1.0000   1.0000   1.0000   1.0000
     1.0000   1.0000   1.0000   1.0000   1.0000   1.0000   1.0000   1.0000
     1.0000   1.0000   1.0000   1.0000   1.0000   1.0000   1.0000   1.0000
     1.0000   1.0000   1.0000   1.0000   1.0000   1.0000   1.0000   1.0000
     1.0000   1.0000   1.0000   1.0000   1.0000   1.0000   1.0000   1.0000
     1.0000   1.0000   1.0000   1.0000   1.0000   1.0000   1.0000   1.0000
     1.0000   1.0000   1.0000   1.0000   1.0000   1.0000   1.0000   1.0000
     1.0000   1.0000   1.0000   1.0000   1.0000   1.0000   1.0000   1.0000
     1.0000   1.0000   1.0000   1.0000   1.0000   1.0000   1.0000   1.0000
     1.0000   1.0000   1.0000   1.0000   1.0000   1.0000   1.0000   1.0000
     1.0000   1.0000   1.0000   1.0000   1.0000   1.0000   1.0000   1.0000
     1.0000   1.0000   1.0000   1.0000   1.0000   1.0000   1.0000   1.0000
     1.0000   1.0000   1.0000   1.0000   1.0000   1.0000   1.0000   1.0000
     1.0000   1.0000   1.0000   1.0000   1.0000   1.0000   1.0000   1.0000
     1.0000   1.0000   1.0000   1.0000   1.0000   1.0000   1.0000   1.0000
     1.0000   1.0000   1.0000   1.0000   1.0000   1.0000   1.0000   1.0000
     1.0000   1.0000   1.0000   1.0000   1.0000   1.0000   1.0000   1.0000
     1.0000   1.0000   1.0000   1.0000   1.0000   1.0000   1.0000   1.0000
     1.0000   1.0000   1.0000   1.0000   1.0000   1.0000   1.0000   1.0000
     1.0000   1.0000   1.0000   1.0000   1.0000   1.0000   1.0000   1.0000
     1.0000   1.0000   1.0000   1.0000   1.0000   1.0000   1.0000   1.0000
     1.0000   1.0000   1.0000   1.0000   1.0000   1.0000   1.0000   1.0000
     1.0000   1.0000   1.0000   1.0000   1.0000   1.0000   1.0000   1.0000
     1.0000   1.0000   1.0000   1.0000   1.0000   1.0000   1.0000   1.0000
     1.0000   1.0000   1.0000   1.0000   1.0000   1.0000   1.0000   1.0000
     1.0000   1.0000   1.0000   1.0000   1.0000   1.0000   1.0000   1.0000
     1.0000   1.0000   1.0000   1.0000   1.0000   1.0000   1.0000   1.0000
     1.0000   1.0000   1.0000   1.0000   1.0000   1.0000   1.0000   1.0000
     1.0000   1.0000   1.0000   1.0000   1.0000   1.0000   1.0000   1.0000
     1.0000   1.0000   1.0000   1.0000   1.0000   1.0000   1.0000   1.0000
     1.0000   1.0000   1.0000   1.0000   1.0000   1.0000   1.0000   1.0000
     1.0000   1.0000   1.0000   1.0000   1.0000   1.0000   1.0000   1.0000
     1.0000   1.0000   1.0000   1.0000   1.0000   1.0000   1.0000   1.0000
     1.0000   1.0000   1.0000   1.0000   1.0000   1.0000   1.0000   1.0000
     1.0000   1.0000   1.0000   1.0000   1.0000   1.0000   1.0000   1.0000
     1.0000   1.0000   1.0000   1.0000   1.0000   1.0000   1.0000   1.0000
     1.0000   1.0000   1.0000   1.0000   1.0000   1.0000   1.0000   1.0000
     1.0000   1.0000   1.0000   1.0000   1.0000   1.0000   1.0000   1.0000
     1.0000   1.0000   1.0000   1.0000   1.0000   1.0000   1.0000   1.0000
     1.0000   1.0000   1.0000   1.0000   1.0000   1.0000   1.0000   1.0000
     1.0000   1.0000   1.0000   1.0000   1.0000   1.0000   1.0000   1.0000
     1.0000   1.0000   1.0000   1.0000   1.0000   1.0000   1.0000   1.0000
     1.0000   1.0000   1.0000   1.0000   1.0000   1.0000   1.0000   1.0000
     1.0000   1.0000   1.0000   1.0000   1.0000   1.0000   1.0000   1.0000
     1.0000   1.0000   1.0000   1.0000   1.0000   1.0000   1.0000   1.0000
     1.0000   1.0000   1.0000   1.0000   1.0000   1.0000   1.0000   1.0000
     1.0000   1.0000   1.0000   1.0000   1.0000   1.0000   1.0000   1.0000
     1.0000   1.0000   1.0000   1.0000   1.0000   1.0000   1.0000   1.0000
     1.0000   1.0000   1.0000   1.0000   1.0000   1.0000   1.0000   1.0000
     1.0000   1.0000   1.0000   1.0000   1.0000   1.0000   1.0000   1.0000
     1.0000   1.0000   1.0000   1.0000   1.0000   1.0000   1.0000   1.0000
     1.0000   1.0000   1.0000   1.0000   1.0000   1.0000   1.0000   0.7638
     0.0000   0.0000   0.0000   0.0000   0.0000   0.0000   0.0000   0.0000
     0.0000   0.0000   0.0000   0.0000   0.0000   0.0000   0.0000   0.0000
     0.0000   0.0000   0.0000   0.0000   0.0000   0.0000   0.0000   0.0000
     0.0000   0.0000   0.0000   0.0000   0.0000   0.0000   0.0000   0.0000
     0.0000   0.0000   0.0000   0.0000   0.0000   0.0000   0.0000   0.0000
     0.0000   0.0000   0.0000   0.0000   0.0000   0.0000   0.0000   0.0000
     0.0000   0.0000   0.0000   0.0000   0.0000   0.0000   0.0000   0.0000
     0.0000   0.0000   0.0000   0.0000   0.0000   0.0000   0.0000   0.0000
     0.0000   0.0000   0.0000   0.0000   0.0000   0.0000   0.0000   0.0000
     0.0000   0.0000   0.0000   0.0000   0.0000   0.0000   0.0000   0.0000
     0.0000   0.0000   0.0000   0.0000   0.0000

          k = 0.5000-0.2887 0.0000 (170366 PWs)   bands (ev):

   -41.0287 -41.0287 -41.0273 -41.0273 -41.0266 -41.0254 -41.0254 -41.0252
   -41.0248 -41.0248 -41.0246 -41.0238 -41.0237 -41.0235 -41.0232 -41.0232
   -41.0230 -41.0227 -41.0226 -41.0225 -41.0181 -41.0181 -41.0181 -41.0180
   -41.0180 -41.0178 -41.0166 -41.0166 -41.0164 -41.0164 -41.0163 -41.0163
   -41.0159 -41.0158 -41.0157 -41.0132 -41.0132 -41.0131 -41.0131 -41.0131
   -41.0130 -41.0130 -41.0130 -41.0129 -41.0129 -41.0128 -41.0128 -41.0124
   -41.0123 -41.0123 -41.0123 -41.0122 -41.0122 -41.0117 -41.0116 -41.0115
   -41.0115 -41.0114 -41.0114 -41.0114 -41.0114 -41.0113 -41.0113 -41.0113
   -41.0112 -41.0109 -41.0109 -41.0108 -41.0108 -41.0108 -41.0107 -41.0107
   -41.0107 -41.0107 -41.0107 -41.0107 -41.0106 -41.0101 -41.0100 -41.0100
   -41.0085 -41.0084 -41.0068 -41.0068 -41.0062 -41.0018 -41.0016 -41.0000
   -41.0000 -40.9993 -40.9523 -40.9523 -40.9517 -40.9517 -40.9517 -40.9508
   -40.9508 -40.9506 -40.9503 -40.9502 -40.9501 -40.9499 -40.9498 -40.9496
   -40.9494 -40.9493 -40.9493 -40.9492 -40.9492 -40.9490 -40.9360 -40.9359
   -40.9347 -40.9347 -40.9343 -40.8881 -40.8881 -40.8879 -40.8879 -40.8879
   -40.8878 -40.8876 -40.8875 -40.8874 -40.8874 -40.8874 -40.8873 -40.8816
   -40.8815 -40.8814 -40.8814 -40.8814 -40.8813 -40.8803 -40.8802 -40.8802
   -40.8801 -40.8801 -40.8800 -40.8794 -40.8793 -40.8792 -40.8792 -40.8792
   -40.8790 -40.8210 -40.8210 -40.8209 -40.8209 -40.8208 -40.8207 -40.8206
   -40.8205 -40.8205 -40.8203 -40.8202 -40.8201 -40.8166 -40.8166 -40.8165
   -40.8161 -40.8160 -40.8159 -40.8152 -40.8151 -40.8151 -40.8135 -40.8134
   -40.8133 -40.8108 -40.8107 -40.8106 -40.8082 -40.8081 -40.8080 -13.1694
   -13.1653 -13.1650 -13.1619 -13.1602 -13.1579 -13.1576 -13.1540 -13.1522
   -13.1496 -13.1477 -13.1459 -13.1458 -13.1447 -13.1443 -13.1441 -13.1433
   -13.1433 -13.1424 -13.1417 -13.1407 -13.1400 -13.1391 -13.1385 -13.1374
   -13.1372 -13.1356 -13.1353 -13.1348 -13.1346 -13.1342 -13.1336 -13.1330
   -13.1318 -13.1305 -13.1300 -13.1290 -13.1284 -13.1281 -13.1280 -13.1269
   -13.1260 -13.1233 -13.1216 -13.1214 -13.0980 -13.0969 -13.0968 -13.0881
   -13.0868 -13.0867 -13.0800 -13.0791 -13.0790 -13.0780 -13.0779 -13.0779
   -13.0746 -13.0739 -13.0739 -13.0392 -13.0290 -13.0286 -13.0244 -13.0242
   -13.0177 -13.0177 -13.0154 -13.0149 -13.0126 -13.0083 -13.0082 -13.0053
   -13.0037 -13.0037 -12.7314 -12.7314 -12.7235 -12.7137 -12.7123 -12.7123
   -12.6534 -12.6534 -12.6533 -12.6492 -12.6491 -12.6490 -12.6446 -12.6407
   -12.6406  -8.2202  -8.2123  -8.0830  -8.0596  -8.0594  -8.0205  -7.9087
    -7.8728  -7.8637  -7.8606  -7.8583  -7.8581  -7.8524  -7.8481  -7.8436
    -7.7869  -7.7864  -7.7598  -7.7512  -7.7399  -7.7385  -7.7356  -7.7342
    -7.7338  -7.7254  -7.7169  -7.6991  -7.6643  -7.6422  -7.6398  -7.6255
    -7.5846  -7.5816  -7.5683  -7.5574  -3.8639  -3.8567  -3.8537  -3.8513
    -3.8500  -3.7632  -3.7605  -3.7366  -3.6586  -3.6579  -3.6414  -3.5451
    -3.5112  -3.4878  -3.4812  -3.2883  -3.2440  -3.2240   0.6860   0.8565
     0.8577   0.8853   0.8872   1.0022   1.1071   1.1081   1.1982   1.2053
     1.3442   1.3474   1.3507   1.3566   1.3730   1.3735   1.3765   1.4009
     1.4596   1.4755   1.5051   1.5140   1.5595   1.5926   1.5965   1.6597
     1.6679   1.6794   1.6850   1.6960   1.7211   1.7277   1.7291   1.7617
     1.7960   1.8189   1.8763   1.8900   1.9560   1.9602   2.0067   2.0470
     2.0704   2.0807   2.1362   2.1516   2.2203   2.2225   2.2309   2.2344
     2.2760   2.2877   2.2938   2.3085   2.3225   2.3442   2.3731   2.3766
     2.4016   2.4115   2.4242   2.4607   2.4864   2.4879   2.5062   2.5121
     2.5195   2.5358   2.5369   2.5671   2.5714   2.6030   2.6162   2.6541
     2.6688   2.6705   2.7002   2.7113   2.7190   2.7245   2.7713   2.7855
     2.8033   2.8137   2.8537   2.8551   2.8803   2.8858   2.9710   2.9899
     2.9906   3.0008   3.0249   3.0734   3.0781   3.1069   3.1196   3.1295
     3.1299   3.1340   3.1399   3.1925   3.2256   3.2364   3.2384   5.7564
     6.2136   6.2277   6.3093   6.3869   6.4772   6.5392   6.5870   6.6067
     6.6374   6.6737   6.6988   6.7363   6.7714   6.7740   6.7920   6.7930
     6.8021   6.8051   6.8187   6.8535   6.8786   6.8852   6.9201   6.9555
     6.9573   7.0098   7.0267   7.0448   7.0642   7.0750   7.0904   7.1033
     7.1106   7.1572   7.1613   7.1873   7.2111   7.2331   7.2345   7.2528
     7.2570   7.2947   7.3387   7.3465   7.3660   7.4022   7.4090   7.4415
     7.6336   7.6504   7.6880   7.6918   7.8118   8.9910   9.4136   9.4547
     9.4598   9.5134   9.6052   9.7009   9.8882   9.9059   9.9964  10.0149
    10.0351  10.0442  10.0668  10.0847  10.0913  10.1119  10.2173  10.2405
    10.2410  10.3242  10.5093  10.5706  10.5860  10.6231  10.6891  10.7252
    10.7448  10.7772  10.8026  10.8141  10.8269

     occupation numbers 
     1.0000   1.0000   1.0000   1.0000   1.0000   1.0000   1.0000   1.0000
     1.0000   1.0000   1.0000   1.0000   1.0000   1.0000   1.0000   1.0000
     1.0000   1.0000   1.0000   1.0000   1.0000   1.0000   1.0000   1.0000
     1.0000   1.0000   1.0000   1.0000   1.0000   1.0000   1.0000   1.0000
     1.0000   1.0000   1.0000   1.0000   1.0000   1.0000   1.0000   1.0000
     1.0000   1.0000   1.0000   1.0000   1.0000   1.0000   1.0000   1.0000
     1.0000   1.0000   1.0000   1.0000   1.0000   1.0000   1.0000   1.0000
     1.0000   1.0000   1.0000   1.0000   1.0000   1.0000   1.0000   1.0000
     1.0000   1.0000   1.0000   1.0000   1.0000   1.0000   1.0000   1.0000
     1.0000   1.0000   1.0000   1.0000   1.0000   1.0000   1.0000   1.0000
     1.0000   1.0000   1.0000   1.0000   1.0000   1.0000   1.0000   1.0000
     1.0000   1.0000   1.0000   1.0000   1.0000   1.0000   1.0000   1.0000
     1.0000   1.0000   1.0000   1.0000   1.0000   1.0000   1.0000   1.0000
     1.0000   1.0000   1.0000   1.0000   1.0000   1.0000   1.0000   1.0000
     1.0000   1.0000   1.0000   1.0000   1.0000   1.0000   1.0000   1.0000
     1.0000   1.0000   1.0000   1.0000   1.0000   1.0000   1.0000   1.0000
     1.0000   1.0000   1.0000   1.0000   1.0000   1.0000   1.0000   1.0000
     1.0000   1.0000   1.0000   1.0000   1.0000   1.0000   1.0000   1.0000
     1.0000   1.0000   1.0000   1.0000   1.0000   1.0000   1.0000   1.0000
     1.0000   1.0000   1.0000   1.0000   1.0000   1.0000   1.0000   1.0000
     1.0000   1.0000   1.0000   1.0000   1.0000   1.0000   1.0000   1.0000
     1.0000   1.0000   1.0000   1.0000   1.0000   1.0000   1.0000   1.0000
     1.0000   1.0000   1.0000   1.0000   1.0000   1.0000   1.0000   1.0000
     1.0000   1.0000   1.0000   1.0000   1.0000   1.0000   1.0000   1.0000
     1.0000   1.0000   1.0000   1.0000   1.0000   1.0000   1.0000   1.0000
     1.0000   1.0000   1.0000   1.0000   1.0000   1.0000   1.0000   1.0000
     1.0000   1.0000   1.0000   1.0000   1.0000   1.0000   1.0000   1.0000
     1.0000   1.0000   1.0000   1.0000   1.0000   1.0000   1.0000   1.0000
     1.0000   1.0000   1.0000   1.0000   1.0000   1.0000   1.0000   1.0000
     1.0000   1.0000   1.0000   1.0000   1.0000   1.0000   1.0000   1.0000
     1.0000   1.0000   1.0000   1.0000   1.0000   1.0000   1.0000   1.0000
     1.0000   1.0000   1.0000   1.0000   1.0000   1.0000   1.0000   1.0000
     1.0000   1.0000   1.0000   1.0000   1.0000   1.0000   1.0000   1.0000
     1.0000   1.0000   1.0000   1.0000   1.0000   1.0000   1.0000   1.0000
     1.0000   1.0000   1.0000   1.0000   1.0000   1.0000   1.0000   1.0000
     1.0000   1.0000   1.0000   1.0000   1.0000   1.0000   1.0000   1.0000
     1.0000   1.0000   1.0000   1.0000   1.0000   1.0000   1.0000   1.0000
     1.0000   1.0000   1.0000   1.0000   1.0000   1.0000   1.0000   1.0000
     1.0000   1.0000   1.0000   1.0000   1.0000   1.0000   1.0000   1.0000
     1.0000   1.0000   1.0000   1.0000   1.0000   1.0000   1.0000   1.0000
     1.0000   1.0000   1.0000   1.0000   1.0000   1.0000   1.0000   1.0000
     1.0000   1.0000   1.0000   1.0000   1.0000   1.0000   1.0000   1.0000
     1.0000   1.0000   1.0000   1.0000   1.0000   1.0000   1.0000   1.0000
     1.0000   1.0000   1.0000   1.0000   1.0000   1.0000   1.0000   1.0000
     1.0000   1.0000   1.0000   1.0000   1.0000   1.0000   1.0000   1.0000
     1.0000   1.0000   1.0000   1.0000   1.0000   1.0000   1.0000   1.0000
     1.0000   1.0000   1.0000   1.0000   1.0000   1.0000   1.0000   1.0000
     1.0000   1.0000   1.0000   1.0000   1.0000   1.0000   1.0000   1.0000
     1.0000   1.0000   1.0000   1.0000   1.0000   1.0000   1.0000   1.0000
     1.0000   1.0000   1.0000   1.0000   1.0000   1.0000   1.0000   1.0000
     1.0000   1.0000   1.0000   1.0000   1.0000   1.0000   1.0000   1.0000
     1.0000   1.0000   1.0000   1.0000   1.0000   1.0000   1.0000   1.0000
     1.0000   1.0000   1.0000   1.0000   1.0000   1.0000   1.0000   0.7637
     0.0000   0.0000   0.0000   0.0000   0.0000   0.0000   0.0000   0.0000
     0.0000   0.0000   0.0000   0.0000   0.0000   0.0000   0.0000   0.0000
     0.0000   0.0000   0.0000   0.0000   0.0000   0.0000   0.0000   0.0000
     0.0000   0.0000   0.0000   0.0000   0.0000   0.0000   0.0000   0.0000
     0.0000   0.0000   0.0000   0.0000   0.0000   0.0000   0.0000   0.0000
     0.0000   0.0000   0.0000   0.0000   0.0000   0.0000   0.0000   0.0000
     0.0000   0.0000   0.0000   0.0000   0.0000   0.0000   0.0000   0.0000
     0.0000   0.0000   0.0000   0.0000   0.0000   0.0000   0.0000   0.0000
     0.0000   0.0000   0.0000   0.0000   0.0000   0.0000   0.0000   0.0000
     0.0000   0.0000   0.0000   0.0000   0.0000   0.0000   0.0000   0.0000
     0.0000   0.0000   0.0000   0.0000   0.0000

          k =-0.5000-0.2887 0.0000 (170366 PWs)   bands (ev):

   -41.0287 -41.0287 -41.0273 -41.0273 -41.0266 -41.0254 -41.0254 -41.0252
   -41.0248 -41.0248 -41.0246 -41.0238 -41.0237 -41.0235 -41.0232 -41.0232
   -41.0230 -41.0227 -41.0226 -41.0225 -41.0181 -41.0181 -41.0181 -41.0180
   -41.0180 -41.0178 -41.0166 -41.0166 -41.0164 -41.0164 -41.0163 -41.0163
   -41.0159 -41.0158 -41.0157 -41.0132 -41.0132 -41.0131 -41.0131 -41.0131
   -41.0130 -41.0130 -41.0130 -41.0129 -41.0129 -41.0128 -41.0128 -41.0124
   -41.0123 -41.0123 -41.0123 -41.0122 -41.0122 -41.0117 -41.0116 -41.0115
   -41.0115 -41.0114 -41.0114 -41.0114 -41.0114 -41.0113 -41.0113 -41.0113
   -41.0112 -41.0109 -41.0109 -41.0108 -41.0108 -41.0108 -41.0107 -41.0107
   -41.0107 -41.0107 -41.0107 -41.0107 -41.0106 -41.0101 -41.0100 -41.0100
   -41.0085 -41.0084 -41.0068 -41.0068 -41.0062 -41.0018 -41.0016 -41.0000
   -41.0000 -40.9993 -40.9523 -40.9523 -40.9517 -40.9517 -40.9517 -40.9508
   -40.9508 -40.9506 -40.9503 -40.9502 -40.9501 -40.9499 -40.9498 -40.9496
   -40.9494 -40.9493 -40.9493 -40.9492 -40.9492 -40.9490 -40.9360 -40.9359
   -40.9347 -40.9347 -40.9343 -40.8881 -40.8881 -40.8879 -40.8879 -40.8879
   -40.8878 -40.8876 -40.8875 -40.8874 -40.8874 -40.8874 -40.8873 -40.8816
   -40.8815 -40.8814 -40.8814 -40.8814 -40.8813 -40.8803 -40.8802 -40.8802
   -40.8801 -40.8801 -40.8800 -40.8794 -40.8793 -40.8792 -40.8792 -40.8792
   -40.8790 -40.8210 -40.8210 -40.8209 -40.8209 -40.8208 -40.8207 -40.8206
   -40.8205 -40.8205 -40.8203 -40.8202 -40.8201 -40.8166 -40.8166 -40.8165
   -40.8161 -40.8160 -40.8159 -40.8152 -40.8151 -40.8151 -40.8135 -40.8134
   -40.8133 -40.8108 -40.8107 -40.8106 -40.8082 -40.8081 -40.8080 -13.1694
   -13.1653 -13.1650 -13.1619 -13.1602 -13.1579 -13.1576 -13.1540 -13.1522
   -13.1496 -13.1477 -13.1459 -13.1458 -13.1447 -13.1443 -13.1441 -13.1433
   -13.1433 -13.1424 -13.1417 -13.1407 -13.1400 -13.1391 -13.1385 -13.1374
   -13.1372 -13.1356 -13.1353 -13.1348 -13.1346 -13.1342 -13.1336 -13.1330
   -13.1318 -13.1306 -13.1300 -13.1290 -13.1284 -13.1281 -13.1280 -13.1269
   -13.1260 -13.1233 -13.1216 -13.1214 -13.0980 -13.0969 -13.0968 -13.0881
   -13.0868 -13.0867 -13.0800 -13.0791 -13.0790 -13.0780 -13.0779 -13.0779
   -13.0746 -13.0739 -13.0739 -13.0392 -13.0290 -13.0286 -13.0244 -13.0242
   -13.0178 -13.0177 -13.0154 -13.0149 -13.0126 -13.0083 -13.0082 -13.0053
   -13.0037 -13.0037 -12.7314 -12.7314 -12.7235 -12.7137 -12.7123 -12.7123
   -12.6534 -12.6534 -12.6533 -12.6492 -12.6491 -12.6490 -12.6446 -12.6407
   -12.6406  -8.2203  -8.2123  -8.0830  -8.0596  -8.0594  -8.0205  -7.9087
    -7.8728  -7.8637  -7.8606  -7.8583  -7.8581  -7.8524  -7.8481  -7.8436
    -7.7869  -7.7864  -7.7598  -7.7513  -7.7399  -7.7385  -7.7355  -7.7342
    -7.7338  -7.7254  -7.7169  -7.6991  -7.6642  -7.6422  -7.6398  -7.6255
    -7.5847  -7.5816  -7.5682  -7.5574  -3.8638  -3.8567  -3.8537  -3.8513
    -3.8500  -3.7632  -3.7605  -3.7366  -3.6587  -3.6580  -3.6414  -3.5451
    -3.5112  -3.4878  -3.4811  -3.2883  -3.2440  -3.2240   0.6860   0.8565
     0.8577   0.8853   0.8872   1.0023   1.1071   1.1082   1.1982   1.2053
     1.3443   1.3475   1.3507   1.3567   1.3730   1.3734   1.3765   1.4008
     1.4597   1.4755   1.5050   1.5140   1.5596   1.5926   1.5965   1.6598
     1.6678   1.6793   1.6849   1.6960   1.7211   1.7277   1.7290   1.7617
     1.7960   1.8189   1.8763   1.8900   1.9561   1.9602   2.0067   2.0470
     2.0706   2.0808   2.1363   2.1517   2.2204   2.2223   2.2308   2.2344
     2.2759   2.2878   2.2939   2.3086   2.3226   2.3443   2.3730   2.3766
     2.4016   2.4115   2.4242   2.4607   2.4864   2.4879   2.5062   2.5122
     2.5195   2.5358   2.5369   2.5671   2.5714   2.6029   2.6162   2.6541
     2.6688   2.6705   2.7002   2.7112   2.7189   2.7245   2.7712   2.7855
     2.8033   2.8137   2.8537   2.8551   2.8803   2.8858   2.9710   2.9899
     2.9906   3.0008   3.0249   3.0734   3.0781   3.1069   3.1196   3.1295
     3.1299   3.1340   3.1399   3.1924   3.2256   3.2364   3.2384   5.7564
     6.2136   6.2277   6.3093   6.3868   6.4772   6.5391   6.5868   6.6064
     6.6374   6.6734   6.6987   6.7363   6.7716   6.7743   6.7922   6.7931
     6.8024   6.8053   6.8189   6.8535   6.8785   6.8851   6.9200   6.9553
     6.9573   7.0097   7.0267   7.0446   7.0640   7.0750   7.0904   7.1033
     7.1106   7.1574   7.1615   7.1874   7.2111   7.2330   7.2346   7.2528
     7.2571   7.2948   7.3387   7.3466   7.3660   7.4022   7.4091   7.4415
     7.6336   7.6505   7.6880   7.6918   7.8116   8.9911   9.4136   9.4547
     9.4598   9.5134   9.6052   9.7009   9.8882   9.9059   9.9964  10.0148
    10.0351  10.0440  10.0667  10.0847  10.0914  10.1120  10.2173  10.2406
    10.2410  10.3242  10.5093  10.5706  10.5860  10.6231  10.6890  10.7252
    10.7448  10.7772  10.8027  10.8141  10.8270

     occupation numbers 
     1.0000   1.0000   1.0000   1.0000   1.0000   1.0000   1.0000   1.0000
     1.0000   1.0000   1.0000   1.0000   1.0000   1.0000   1.0000   1.0000
     1.0000   1.0000   1.0000   1.0000   1.0000   1.0000   1.0000   1.0000
     1.0000   1.0000   1.0000   1.0000   1.0000   1.0000   1.0000   1.0000
     1.0000   1.0000   1.0000   1.0000   1.0000   1.0000   1.0000   1.0000
     1.0000   1.0000   1.0000   1.0000   1.0000   1.0000   1.0000   1.0000
     1.0000   1.0000   1.0000   1.0000   1.0000   1.0000   1.0000   1.0000
     1.0000   1.0000   1.0000   1.0000   1.0000   1.0000   1.0000   1.0000
     1.0000   1.0000   1.0000   1.0000   1.0000   1.0000   1.0000   1.0000
     1.0000   1.0000   1.0000   1.0000   1.0000   1.0000   1.0000   1.0000
     1.0000   1.0000   1.0000   1.0000   1.0000   1.0000   1.0000   1.0000
     1.0000   1.0000   1.0000   1.0000   1.0000   1.0000   1.0000   1.0000
     1.0000   1.0000   1.0000   1.0000   1.0000   1.0000   1.0000   1.0000
     1.0000   1.0000   1.0000   1.0000   1.0000   1.0000   1.0000   1.0000
     1.0000   1.0000   1.0000   1.0000   1.0000   1.0000   1.0000   1.0000
     1.0000   1.0000   1.0000   1.0000   1.0000   1.0000   1.0000   1.0000
     1.0000   1.0000   1.0000   1.0000   1.0000   1.0000   1.0000   1.0000
     1.0000   1.0000   1.0000   1.0000   1.0000   1.0000   1.0000   1.0000
     1.0000   1.0000   1.0000   1.0000   1.0000   1.0000   1.0000   1.0000
     1.0000   1.0000   1.0000   1.0000   1.0000   1.0000   1.0000   1.0000
     1.0000   1.0000   1.0000   1.0000   1.0000   1.0000   1.0000   1.0000
     1.0000   1.0000   1.0000   1.0000   1.0000   1.0000   1.0000   1.0000
     1.0000   1.0000   1.0000   1.0000   1.0000   1.0000   1.0000   1.0000
     1.0000   1.0000   1.0000   1.0000   1.0000   1.0000   1.0000   1.0000
     1.0000   1.0000   1.0000   1.0000   1.0000   1.0000   1.0000   1.0000
     1.0000   1.0000   1.0000   1.0000   1.0000   1.0000   1.0000   1.0000
     1.0000   1.0000   1.0000   1.0000   1.0000   1.0000   1.0000   1.0000
     1.0000   1.0000   1.0000   1.0000   1.0000   1.0000   1.0000   1.0000
     1.0000   1.0000   1.0000   1.0000   1.0000   1.0000   1.0000   1.0000
     1.0000   1.0000   1.0000   1.0000   1.0000   1.0000   1.0000   1.0000
     1.0000   1.0000   1.0000   1.0000   1.0000   1.0000   1.0000   1.0000
     1.0000   1.0000   1.0000   1.0000   1.0000   1.0000   1.0000   1.0000
     1.0000   1.0000   1.0000   1.0000   1.0000   1.0000   1.0000   1.0000
     1.0000   1.0000   1.0000   1.0000   1.0000   1.0000   1.0000   1.0000
     1.0000   1.0000   1.0000   1.0000   1.0000   1.0000   1.0000   1.0000
     1.0000   1.0000   1.0000   1.0000   1.0000   1.0000   1.0000   1.0000
     1.0000   1.0000   1.0000   1.0000   1.0000   1.0000   1.0000   1.0000
     1.0000   1.0000   1.0000   1.0000   1.0000   1.0000   1.0000   1.0000
     1.0000   1.0000   1.0000   1.0000   1.0000   1.0000   1.0000   1.0000
     1.0000   1.0000   1.0000   1.0000   1.0000   1.0000   1.0000   1.0000
     1.0000   1.0000   1.0000   1.0000   1.0000   1.0000   1.0000   1.0000
     1.0000   1.0000   1.0000   1.0000   1.0000   1.0000   1.0000   1.0000
     1.0000   1.0000   1.0000   1.0000   1.0000   1.0000   1.0000   1.0000
     1.0000   1.0000   1.0000   1.0000   1.0000   1.0000   1.0000   1.0000
     1.0000   1.0000   1.0000   1.0000   1.0000   1.0000   1.0000   1.0000
     1.0000   1.0000   1.0000   1.0000   1.0000   1.0000   1.0000   1.0000
     1.0000   1.0000   1.0000   1.0000   1.0000   1.0000   1.0000   1.0000
     1.0000   1.0000   1.0000   1.0000   1.0000   1.0000   1.0000   1.0000
     1.0000   1.0000   1.0000   1.0000   1.0000   1.0000   1.0000   1.0000
     1.0000   1.0000   1.0000   1.0000   1.0000   1.0000   1.0000   1.0000
     1.0000   1.0000   1.0000   1.0000   1.0000   1.0000   1.0000   1.0000
     1.0000   1.0000   1.0000   1.0000   1.0000   1.0000   1.0000   1.0000
     1.0000   1.0000   1.0000   1.0000   1.0000   1.0000   1.0000   0.7637
     0.0000   0.0000   0.0000   0.0000   0.0000   0.0000   0.0000   0.0000
     0.0000   0.0000   0.0000   0.0000   0.0000   0.0000   0.0000   0.0000
     0.0000   0.0000   0.0000   0.0000   0.0000   0.0000   0.0000   0.0000
     0.0000   0.0000   0.0000   0.0000   0.0000   0.0000   0.0000   0.0000
     0.0000   0.0000   0.0000   0.0000   0.0000   0.0000   0.0000   0.0000
     0.0000   0.0000   0.0000   0.0000   0.0000   0.0000   0.0000   0.0000
     0.0000   0.0000   0.0000   0.0000   0.0000   0.0000   0.0000   0.0000
     0.0000   0.0000   0.0000   0.0000   0.0000   0.0000   0.0000   0.0000
     0.0000   0.0000   0.0000   0.0000   0.0000   0.0000   0.0000   0.0000
     0.0000   0.0000   0.0000   0.0000   0.0000   0.0000   0.0000   0.0000
     0.0000   0.0000   0.0000   0.0000   0.0000

     the Fermi energy is     5.8255 ev

!    total energy              =  -35861.22197028 Ry
     total all-electron energy =  -1250800.068949 Ry
     estimated scf accuracy    <       0.00000002 Ry
     smearing contrib. (-TS)   =      -0.00458345 Ry
     internal energy E=F+TS    =  -35861.21738683 Ry

     The total energy is F=E-TS. E is the sum of the following terms:
     one-electron contribution =   -6704.14792629 Ry
     hartree contribution      =    3735.74620832 Ry
     xc contribution           =   -2498.30063006 Ry
     ewald contribution        =   -5363.78606132 Ry
     one-center paw contrib.   =  -25030.72897748 Ry
      -> PAW hartree energy AE =      96.02018000 Ry
      -> PAW hartree energy PS =     -96.25774927 Ry
      -> PAW xc energy AE      =    -798.43886265 Ry
      -> PAW xc energy PS      =      33.31835825 Ry
      -> total E_H with PAW    =    3735.50863905 Ry
      -> total E_XC with PAW   =   -3263.42113446 Ry

     convergence has been achieved in  17 iterations


     -----------------------------------------------
     Non-local corr. energy    =      25.32006401 Ry
     -----------------------------------------------


     Forces acting on atoms (cartesian axes, Ry/au):

     atom    1 type  1   force =    -0.00000529    0.00001865   -0.00037497
     atom    2 type  1   force =     0.00000050   -0.02678687   -0.00506755
     atom    3 type  1   force =     0.00041680    0.00024525   -0.00045635
     atom    4 type  1   force =     0.00147382    0.00085086    0.00168240
     atom    5 type  1   force =     0.00001078   -0.00000217   -0.00036931
     atom    6 type  1   force =    -0.02320147    0.01339743   -0.00506150
     atom    7 type  1   force =    -0.00007611   -0.00003855   -0.00023761
     atom    8 type  1   force =    -0.00334950   -0.00193402    0.00036726
     atom    9 type  1   force =    -0.00040533    0.00025666   -0.00045218
     atom   10 type  1   force =    -0.00145589    0.00086172    0.00168459
     atom   11 type  1   force =     0.00001611   -0.00047017   -0.00044242
     atom   12 type  1   force =     0.00001884   -0.00169059    0.00169591
     atom   13 type  1   force =     0.00008644   -0.00004838   -0.00024587
     atom   14 type  1   force =     0.00336687   -0.00194415    0.00035988
     atom   15 type  1   force =    -0.00000504    0.00010845   -0.00024953
     atom   16 type  1   force =    -0.00000161    0.00388954    0.00035550
     atom   17 type  1   force =    -0.00001756   -0.00000109   -0.00037378
     atom   18 type  1   force =     0.02319932    0.01339535   -0.00506518
     atom   19 type  2   force =     0.00025852    0.00016424    0.00210019
     atom   20 type  2   force =    -0.00112606    0.00031715    0.00157143
     atom   21 type  2   force =    -0.00013652   -0.00010579    0.00220704
     atom   22 type  2   force =    -0.00029384   -0.00112779    0.00157260
     atom   23 type  2   force =    -0.00017558   -0.00005978    0.00220380
     atom   24 type  2   force =     0.00089486    0.00116201    0.00153000
     atom   25 type  2   force =     0.00002862    0.00053183    0.00215970
     atom   26 type  2   force =     0.00145465    0.00019630    0.00153229
     atom   27 type  2   force =     0.00046603   -0.00021205    0.00217036
     atom   28 type  2   force =     0.00007800    0.00004300    0.00096507
     atom   29 type  2   force =     0.00007228    0.00003769    0.00242839
     atom   30 type  2   force =    -0.00115205    0.00093968    0.00154382
     atom   31 type  2   force =    -0.00030527    0.00029017    0.00217890
     atom   32 type  2   force =    -0.00032503   -0.00018134    0.00042385
     atom   33 type  2   force =    -0.00033460   -0.00017555    0.00198369
     atom   34 type  2   force =     0.00023370   -0.00146819    0.00155464
     atom   35 type  2   force =     0.00009532   -0.00040405    0.00218323
     atom   36 type  2   force =     0.00097089   -0.00026064   -0.00056234
     atom   37 type  2   force =    -0.00215851    0.00154276   -0.00080445
     atom   38 type  2   force =     0.00010558    0.00004770   -0.00198578
     atom   39 type  2   force =    -0.00015478   -0.00008311   -0.00100863
     atom   40 type  2   force =     0.00028289    0.00094401   -0.00055241
     atom   41 type  2   force =     0.00027610   -0.00264664   -0.00080258
     atom   42 type  2   force =    -0.00100751   -0.00060520   -0.00057518
     atom   43 type  2   force =     0.00210144    0.00119896   -0.00082600
     atom   44 type  2   force =    -0.00031061    0.00013874   -0.00197829
     atom   45 type  2   force =    -0.00032107    0.00755886    0.00040000
     atom   46 type  2   force =    -0.00002556   -0.00035723   -0.00197096
     atom   47 type  2   force =     0.00637710   -0.00404779    0.00039522
     atom   48 type  2   force =     0.00007630    0.00022291   -0.00203217
     atom   49 type  2   force =     0.00007128    0.00051640   -0.00105623
     atom   50 type  2   force =     0.00025240   -0.00006836   -0.00202884
     atom   51 type  2   force =     0.00049896   -0.00019950   -0.00104649
     atom   52 type  2   force =    -0.00021181   -0.00013438   -0.00199925
     atom   53 type  2   force =    -0.00662779   -0.00382293    0.00037608
     The non-local contrib.  to forces
     atom    1 type  1   force =     0.00003084   -0.00023234   -0.00051027
     atom    2 type  1   force =    -0.00000529    0.03893931    0.03063204
     atom    3 type  1   force =     0.00060870    0.00029179   -0.00091857
     atom    4 type  1   force =     0.00140095    0.00080680    0.00037813
     atom    5 type  1   force =    -0.00014493    0.00004565   -0.00055325
     atom    6 type  1   force =     0.03372486   -0.01949459    0.03060056
     atom    7 type  1   force =     0.00040123    0.00017407   -0.00060200
     atom    8 type  1   force =    -0.00474316   -0.00273892    0.00083597
     atom    9 type  1   force =    -0.00053382    0.00029856   -0.00091399
     atom   10 type  1   force =    -0.00140420    0.00081197    0.00038126
     atom   11 type  1   force =     0.00003369   -0.00071217   -0.00094984
     atom   12 type  1   force =    -0.00000677   -0.00163732    0.00034676
     atom   13 type  1   force =    -0.00032872    0.00015586   -0.00057257
     atom   14 type  1   force =     0.00473776   -0.00275752    0.00086647
     atom   15 type  1   force =     0.00002929   -0.00046730   -0.00057938
     atom   16 type  1   force =    -0.00001005    0.00546295    0.00085804
     atom   17 type  1   force =     0.00018673    0.00003327   -0.00051954
     atom   18 type  1   force =    -0.03373733   -0.01949560    0.03061277
     atom   19 type  2   force =     0.00013935    0.00007742    0.24142658
     atom   20 type  2   force =    -0.00869072    0.00330394    0.23317460
     atom   21 type  2   force =    -0.00075693    0.00066387    0.24130601
     atom   22 type  2   force =    -0.00148982   -0.00915975    0.23318914
     atom   23 type  2   force =     0.00016989   -0.00094498    0.24131141
     atom   24 type  2   force =     0.00723070    0.00604638    0.23316237
     atom   25 type  2   force =     0.00095088    0.00050361    0.24129286
     atom   26 type  2   force =     0.00886615    0.00324252    0.23317056
     atom   27 type  2   force =     0.00090973    0.00060289    0.24129477
     atom   28 type  2   force =     0.00003527    0.00003729    0.23837120
     atom   29 type  2   force =     0.00002303    0.00004210    0.24627685
[...]
     atom   41 type  2   force =    -0.00012117   -0.00066916    0.00539384
     atom   42 type  2   force =     0.00014171    0.00007440    0.00545959
     atom   43 type  2   force =     0.00048623    0.00028213    0.00539308
     atom   44 type  2   force =    -0.00011855    0.00007604    0.00536584
     atom   45 type  2   force =     0.00010661   -0.00213212    0.00412249
     atom   46 type  2   force =     0.00000285   -0.00013677    0.00536352
     atom   47 type  2   force =    -0.00179133    0.00116033    0.00412219
     atom   48 type  2   force =     0.00001367   -0.00010429    0.00547481
     atom   49 type  2   force =    -0.00008575    0.00012955    0.00463953
     atom   50 type  2   force =    -0.00007310    0.00006685    0.00547683
     atom   51 type  2   force =     0.00007088   -0.00013500    0.00464023
     atom   52 type  2   force =    -0.00014416   -0.00008224    0.00536890
     atom   53 type  2   force =     0.00208381    0.00120566    0.00410842
     The Hubbard contrib.    to forces
     atom    1 type  1   force =     0.00000000    0.00000000    0.00000000
     atom    2 type  1   force =     0.00000000    0.00000000    0.00000000
     atom    3 type  1   force =     0.00000000    0.00000000    0.00000000
     atom    4 type  1   force =     0.00000000    0.00000000    0.00000000
     atom    5 type  1   force =     0.00000000    0.00000000    0.00000000
     atom    6 type  1   force =     0.00000000    0.00000000    0.00000000
     atom    7 type  1   force =     0.00000000    0.00000000    0.00000000
     atom    8 type  1   force =     0.00000000    0.00000000    0.00000000
     atom    9 type  1   force =     0.00000000    0.00000000    0.00000000
     atom   10 type  1   force =     0.00000000    0.00000000    0.00000000
     atom   11 type  1   force =     0.00000000    0.00000000    0.00000000
     atom   12 type  1   force =     0.00000000    0.00000000    0.00000000
     atom   13 type  1   force =     0.00000000    0.00000000    0.00000000
     atom   14 type  1   force =     0.00000000    0.00000000    0.00000000
     atom   15 type  1   force =     0.00000000    0.00000000    0.00000000
     atom   16 type  1   force =     0.00000000    0.00000000    0.00000000
     atom   17 type  1   force =     0.00000000    0.00000000    0.00000000
     atom   18 type  1   force =     0.00000000    0.00000000    0.00000000
     atom   19 type  2   force =     0.00000000    0.00000000    0.00000000
     atom   20 type  2   force =     0.00000000    0.00000000    0.00000000
     atom   21 type  2   force =     0.00000000    0.00000000    0.00000000
     atom   22 type  2   force =     0.00000000    0.00000000    0.00000000
     atom   23 type  2   force =     0.00000000    0.00000000    0.00000000
     atom   24 type  2   force =     0.00000000    0.00000000    0.00000000
     atom   25 type  2   force =     0.00000000    0.00000000    0.00000000
     atom   26 type  2   force =     0.00000000    0.00000000    0.00000000
     atom   27 type  2   force =     0.00000000    0.00000000    0.00000000
     atom   28 type  2   force =     0.00000000    0.00000000    0.00000000
     atom   29 type  2   force =     0.00000000    0.00000000    0.00000000
     atom   30 type  2   force =     0.00000000    0.00000000    0.00000000
     atom   31 type  2   force =     0.00000000    0.00000000    0.00000000
     atom   32 type  2   force =     0.00000000    0.00000000    0.00000000
     atom   33 type  2   force =     0.00000000    0.00000000    0.00000000
     atom   34 type  2   force =     0.00000000    0.00000000    0.00000000
     atom   35 type  2   force =     0.00000000    0.00000000    0.00000000
     atom   36 type  2   force =     0.00000000    0.00000000    0.00000000
     atom   37 type  2   force =     0.00000000    0.00000000    0.00000000
     atom   38 type  2   force =     0.00000000    0.00000000    0.00000000
     atom   39 type  2   force =     0.00000000    0.00000000    0.00000000
     atom   40 type  2   force =     0.00000000    0.00000000    0.00000000
     atom   41 type  2   force =     0.00000000    0.00000000    0.00000000
     atom   42 type  2   force =     0.00000000    0.00000000    0.00000000
     atom   43 type  2   force =     0.00000000    0.00000000    0.00000000
     atom   44 type  2   force =     0.00000000    0.00000000    0.00000000
     atom   45 type  2   force =     0.00000000    0.00000000    0.00000000
     atom   46 type  2   force =     0.00000000    0.00000000    0.00000000
     atom   47 type  2   force =     0.00000000    0.00000000    0.00000000
     atom   48 type  2   force =     0.00000000    0.00000000    0.00000000
     atom   49 type  2   force =     0.00000000    0.00000000    0.00000000
     atom   50 type  2   force =     0.00000000    0.00000000    0.00000000
     atom   51 type  2   force =     0.00000000    0.00000000    0.00000000
     atom   52 type  2   force =     0.00000000    0.00000000    0.00000000
     atom   53 type  2   force =     0.00000000    0.00000000    0.00000000
     The SCF correction term to forces
     atom    1 type  1   force =     0.00000072   -0.00000377    0.00000130
     atom    2 type  1   force =    -0.00000530    0.00000347   -0.00000387
     atom    3 type  1   force =     0.00000677    0.00000399   -0.00000386
     atom    4 type  1   force =    -0.00000226   -0.00000113    0.00000093
     atom    5 type  1   force =    -0.00000289    0.00000245    0.00000129
     atom    6 type  1   force =     0.00000046   -0.00000652   -0.00000384
     atom    7 type  1   force =    -0.00000632   -0.00000367    0.00000456
     atom    8 type  1   force =    -0.00000253   -0.00000154    0.00000166
     atom    9 type  1   force =    -0.00000291    0.00000494   -0.00000449
     atom   10 type  1   force =     0.00000626    0.00000273    0.00000148
     atom   11 type  1   force =     0.00000274   -0.00000502   -0.00000450
     atom   12 type  1   force =     0.00000539    0.00000406    0.00000147
     atom   13 type  1   force =     0.00000623   -0.00000792    0.00000464
     atom   14 type  1   force =     0.00000567   -0.00000865    0.00000168
     atom   15 type  1   force =    -0.00000370    0.00000946    0.00000467
     atom   16 type  1   force =    -0.00000455    0.00000936    0.00000162
     atom   17 type  1   force =     0.00000038    0.00000017   -0.00000052
     atom   18 type  1   force =    -0.00001156   -0.00000679   -0.00000229
     atom   19 type  2   force =    -0.00000286   -0.00000173    0.00000896
     atom   20 type  2   force =    -0.00000119   -0.00000261    0.00000057
     atom   21 type  2   force =     0.00001354   -0.00000056   -0.00000050
     atom   22 type  2   force =    -0.00000280    0.00000030    0.00000063
     atom   23 type  2   force =     0.00000628    0.00001206   -0.00000057
     atom   24 type  2   force =     0.00000622   -0.00000152   -0.00000144
     atom   25 type  2   force =    -0.00000220   -0.00001224    0.00000121
     atom   26 type  2   force =     0.00000192    0.00000593   -0.00000134
     atom   27 type  2   force =    -0.00001165    0.00000415    0.00000125
     atom   28 type  2   force =     0.00000553    0.00000338    0.00000555
     atom   29 type  2   force =     0.00000427    0.00000255    0.00000062
     atom   30 type  2   force =     0.00000343   -0.00000588    0.00000666
     atom   31 type  2   force =     0.00000558   -0.00001584   -0.00000062
     atom   32 type  2   force =    -0.00000004    0.00000003   -0.00000284
     atom   33 type  2   force =    -0.00000194   -0.00000113   -0.00000465
     atom   34 type  2   force =    -0.00000325    0.00000620    0.00000673
     atom   35 type  2   force =    -0.00001085    0.00001284   -0.00000061
     atom   36 type  2   force =     0.00000746   -0.00000877   -0.00000255
     atom   37 type  2   force =    -0.00000966   -0.00000537   -0.00000029
     atom   38 type  2   force =     0.00000460    0.00000275    0.00000671
     atom   39 type  2   force =     0.00000455    0.00000267   -0.00000434
     atom   40 type  2   force =    -0.00000394    0.00001077   -0.00000256
     atom   41 type  2   force =    -0.00000927   -0.00000568   -0.00000040
     atom   42 type  2   force =    -0.00000840   -0.00000497   -0.00000489
     atom   43 type  2   force =     0.00000710    0.00000384    0.00000692
     atom   44 type  2   force =     0.00000370   -0.00000383   -0.00000801
     atom   45 type  2   force =     0.00000380    0.00000540    0.00000622
     atom   46 type  2   force =    -0.00000155    0.00000510   -0.00000802
     atom   47 type  2   force =     0.00000637    0.00000063    0.00000613
     atom   48 type  2   force =     0.00000049   -0.00000975    0.00000380
     atom   49 type  2   force =     0.00000400   -0.00001188   -0.00000475
     atom   50 type  2   force =    -0.00000818    0.00000523    0.00000377
     atom   51 type  2   force =    -0.00000835    0.00000924   -0.00000476
     atom   52 type  2   force =     0.00000546    0.00000317   -0.00000801
     atom   53 type  2   force =     0.00000326    0.00000198    0.00000159

     Total force =     0.003308     Total SCF correction =     0.000070


     Computing stress (Cartesian axis) and pressure



     -----------------------------------------------
     Non-local corr. energy    =      25.32876352 Ry
     -----------------------------------------------

          total   stress  (Ry/bohr**3)                   (kbar)     P=        6.67
   0.00004228   0.00000005  -0.00000015            6.22        0.01       -0.02
   0.00000005   0.00004222  -0.00000008            0.01        6.21       -0.01
  -0.00000015  -0.00000008   0.00005160           -0.02       -0.01        7.59

     kinetic stress (kbar)  14758.99     -0.03     -0.01
                               -0.03  14759.02     -0.00
                               -0.01     -0.00  14770.32

     local   stress (kbar)  -7942.91     -2.89      2.90
                               -2.89  -7939.70      1.61
                                2.90      1.61   1674.12

     nonloc. stress (kbar)  -1114.12     -0.00     -0.01
                               -0.00  -1114.12     -0.00
                               -0.01     -0.00  -1119.26

     hartree stress (kbar)  12043.27      0.96     -1.11
                                0.96  12042.22     -0.61
                               -1.11     -0.61   7702.58

     exc-cor stress (kbar)   6795.00      0.01     -0.00
                                0.01   6795.00     -0.00
                               -0.00     -0.00   6793.54

     corecor stress (kbar) -11070.10     -0.00      0.00
                               -0.00 -11070.09      0.00
                                0.00      0.00 -11069.99

     ewald   stress (kbar) -13545.33      1.96     -1.79
                                1.96 -13547.52     -1.00
                               -1.79     -1.00 -18826.61

     hubbard stress (kbar)      0.00      0.00      0.00
                                0.00      0.00      0.00
                                0.00      0.00      0.00

     DFT-D   stress (kbar)      0.00      0.00      0.00
                                0.00      0.00      0.00
                                0.00      0.00      0.00

     XDM     stress (kbar)      0.00      0.00      0.00
                                0.00      0.00      0.00
                                0.00      0.00      0.00

     dft-nl  stress (kbar)     81.41     -0.00      0.00
                               -0.00     81.41      0.00
                                0.00      0.00     82.91

     TS-vdW  stress (kbar)      0.00      0.00      0.00
                                0.00      0.00      0.00
                                0.00      0.00      0.00

     MDB     stress (kbar)      0.00      0.00      0.00
                                0.00      0.00      0.00
                                0.00      0.00      0.00

     3D-RISM stress (kbar)      0.00      0.00      0.00
                                0.00      0.00      0.00
                                0.00      0.00      0.00

     Energy error            =      3.9E-05 Ry
     Gradient error          =      8.9E-04 Ry/Bohr

     bfgs converged in  26 scf cycles and  25 bfgs steps
     (criteria: energy <  1.0E-04 Ry, force <  1.0E-03 Ry/Bohr)

     End of BFGS Geometry Optimization

     Final energy             =  -35861.2788318609 Ry

     File ./PbI2.bfgs deleted, as requested
Begin final coordinates

ATOMIC_POSITIONS (angstrom)
Pb            2.3578461206        4.0816349377       14.7630410800
Pb            2.3548603972        3.5413144958        7.2299987050
Pb            0.0049187071        8.1626634568       14.7470086989
Pb            0.0452824950        8.1859980862        7.4452242153
Pb           -2.3528979229       12.2406814498       14.7627287264
Pb           -2.8223124829       12.5085043719        7.2298601686
Pb            7.0628021402        4.0773640847       14.7812270869
Pb            7.0356413072        4.0617366072        7.3332171051
Pb            4.7078655675        8.1607377306       14.7550081163
Pb            4.6705170135        8.1862630792        7.4463525217
Pb            2.3547319714       12.2363159972       14.7547120320
Pb            2.3581611235       12.1913024216        7.4461910105
Pb           11.7845925082        4.0780919159       14.7745268889
Pb           11.8075013948        4.0619251811        7.3322451320
Pb            9.4243411038        8.1661165974       14.7743987113
Pb            9.4217403398        8.1942907786        7.3321571364
Pb            7.0662758707       12.2393774795       14.7584222531
Pb            7.5328480256       12.5089836766        7.2290759900
I             2.3621706493        1.3635494733       12.8859474056
I             0.0081389649        5.3440497944        5.5129220730
I             0.0004450274        5.4308735728       12.8753072364
I            -2.4345262527        9.5750284721        5.5128541969
I            -2.3632159172        9.5243537121       12.8750277223
I             6.9730026711        1.3932663988        5.5146334220
I             7.0643896793        1.3708475200       12.8806265424
I             4.6933278500        5.3417910675        5.5146551114
I             4.7196196931        5.4321623555       12.8807879425
I             2.3592967874        9.5215492613        5.4693884084
I             2.3608511544        9.5223921052       12.8844709246
I            11.8649986668        1.3958764434        5.5136206176
I            11.7754610123        1.3683593669       12.8789986123
I             9.4170839275        5.4367481158        5.4908529253
I             9.4189241991        5.4376054799       12.9059954118
I             7.1415533360        9.5771722205        5.5136237461
I             7.0729069282        9.5129103199       12.8789324977
I             0.0300568512        2.6982916783        1.9004759988
I             0.0429487751        2.6876501738        9.3017972149
I            -2.3457350483        6.8055826391        1.8846898366
I            -2.3359741244        6.8113375908        9.2644889123
I            -4.7145405592       10.9161640688        1.9003759596
I            -4.7176113805       10.9333519543        9.3017518650
I             4.6859560294        2.7047077351        1.9054926446
I             4.6599842407        2.6901635609        9.3020328268
I             2.3498559153        6.8030595088        1.8798543166
I             2.3585568740        6.8601135152        9.2377036366
I            -0.0000970421       10.8734014060        1.8796826346
I             0.0536583810       10.8524221149        9.2375771868
I             9.4274854111        2.7163927693        1.8898085222
I             9.4201174352        2.6972015526        9.2667098462
I             7.0669388601        6.8056678568        1.8900112094
I             7.0466206985        6.8090332270        9.2668098598
I             4.7099083924       10.8792015660        1.8784540772
I             4.6682386293       10.8551545903        9.2378554983
End final coordinates



     Writing all to output data dir ./PbI2.save/
 
     init_run     :      9.31s CPU      9.74s WALL (       1 calls)
     electrons    :  31380.59s CPU  31750.08s WALL (      26 calls)
     update_pot   :     38.96s CPU     39.37s WALL (      25 calls)
     forces       :    136.44s CPU    139.57s WALL (      26 calls)
     stress       :   1868.62s CPU   1883.61s WALL (      26 calls)

     Called by init_run:
     wfcinit      :      6.63s CPU      6.87s WALL (       1 calls)
     wfcinit:atom :      0.05s CPU      0.08s WALL (       2 calls)
     wfcinit:wfcr :      6.45s CPU      6.59s WALL (       2 calls)
     potinit      :      1.24s CPU      1.32s WALL (       1 calls)
     hinit0       :      0.38s CPU      0.39s WALL (       1 calls)

     Called by electrons:
     c_bands      :  30316.04s CPU  30661.37s WALL (     319 calls)
     sum_band     :    768.17s CPU    780.57s WALL (     319 calls)
     v_of_rho     :    192.88s CPU    195.68s WALL (     327 calls)
     v_h          :      2.18s CPU      2.21s WALL (     327 calls)
     v_xc         :    219.39s CPU    223.18s WALL (     379 calls)
     newd         :     58.32s CPU     60.14s WALL (     327 calls)
     PAW_pot      :     56.32s CPU     57.22s WALL (     352 calls)
     mix_rho      :      8.56s CPU      9.09s WALL (     319 calls)
     vdW_kernel   :      0.26s CPU      0.27s WALL (       1 calls)

     Called by c_bands:
     init_us_2    :     57.98s CPU     58.96s WALL (    1432 calls)
     init_us_2:cp :     57.95s CPU     58.94s WALL (    1432 calls)
     cegterg      :  28907.29s CPU  29237.77s WALL (     638 calls)

     Called by sum_band:
     sum_band:wei :      0.46s CPU      0.49s WALL (     319 calls)
     sum_band:loo :    685.79s CPU    693.20s WALL (     319 calls)
     sum_band:buf :     17.75s CPU     17.97s WALL (     638 calls)
     sum_band:ini :     26.18s CPU     26.58s WALL (     638 calls)
     sum_band:cal :    279.84s CPU    282.07s WALL (     688 calls)
     sum_band:bec :      4.17s CPU      4.27s WALL (     688 calls)
     addusdens    :     69.75s CPU     72.41s WALL (     319 calls)
     addusd:skk   :      1.64s CPU      1.69s WALL (     638 calls)
     addusd:dgemm :     41.93s CPU     44.24s WALL (     638 calls)
     addusd:qvan2 :     22.70s CPU     22.91s WALL (     638 calls)

     Called by *egterg:
     cdiaghg      :  19873.42s CPU  19982.56s WALL (   10482 calls)
     cegterg:over :   1901.52s CPU   1949.44s WALL (    9930 calls)
     cegterg:upda :   1193.50s CPU   1220.96s WALL (    9930 calls)
     cegterg:last :    419.83s CPU    422.91s WALL (     659 calls)
     h_psi        :   4040.59s CPU   4114.56s WALL (   10570 calls)
     s_psi        :    846.74s CPU    853.25s WALL (   10570 calls)
     g_psi        :      5.55s CPU      5.62s WALL (    9930 calls)

     Called by h_psi:
     h_psi:calbec :    935.46s CPU    943.99s WALL (   10570 calls)
     vloc_psi     :   2223.83s CPU   2254.26s WALL (   10570 calls)
     add_vuspsi   :    845.60s CPU    852.72s WALL (   10570 calls)

     General routines
     calbec       :   1359.20s CPU   1371.01s WALL (   11518 calls)
     fft          :    117.47s CPU    118.82s WALL (   24986 calls)
     ffts         :      2.03s CPU      2.07s WALL (     646 calls)
     fftw         :   2408.81s CPU   2440.63s WALL ( 2224732 calls)
     interpolate  :      2.64s CPU      2.68s WALL (     327 calls)
 
     Parallel routines

     PAW routines
     PAW_pot      :     56.32s CPU     57.22s WALL (     352 calls)
 
     PWSCF        :      9h17m CPU      9h24m WALL

 
   This run was terminated on:   6: 4:48  21Mar2024            

=------------------------------------------------------------------------------=
   JOB DONE.
=------------------------------------------------------------------------------=
