
     Program PWSCF v.7.1 starts on  5Mar2024 at 21: 8: 6 

     This program is part of the open-source Quantum ESPRESSO suite
     for quantum simulation of materials; please cite
         "P. Giannozzi et al., J. Phys.:Condens. Matter 21 395502 (2009);
         "P. Giannozzi et al., J. Phys.:Condens. Matter 29 465901 (2017);
         "P. Giannozzi et al., J. Chem. Phys. 152 154105 (2020);
          URL http://www.quantum-espresso.org", 
     in publications or presentations arising from this work. More details at
     http://www.quantum-espresso.org/quote

     Parallel version (MPI & OpenMP), running on     256 processor cores
     Number of MPI processes:               256
     Threads/MPI process:                     1

     MPI processes distributed on     2 nodes
     1835363 MiB available memory on the printing compute node when the environment starts
 
     Reading input from espresso.pwi
Warning: card &CELL ignored
Warning: card    CELL_DYNAMICS    = 'BFGS' ignored
Warning: card / ignored

     Current dimensions of program PWSCF are:
     Max number of different atomic species (ntypx) = 10
     Max number of k-points (npk) =  40000
     Max angular momentum in pseudopotentials (lmaxx) =  4
     file Ga.pbe-dn-kjpaw_psl.1.0.0.UPF: wavefunction(s)  4S renormalized
     file N.pbe-n-kjpaw_psl.1.0.0.UPF: wavefunction(s)  2S renormalized

     **************************************************************************
     Initializing libbeef V0.1.2 with the BEEF-vdW functional.
     Citation: Wellendorff et al., PRB 85, 235149 (2012).
     **************************************************************************


     IMPORTANT: XC functional enforced from input :
     Exchange-correlation= BEEF-VDW
                           (   1   4  43  14   2   0   0)
     Any further DFT definition will be discarded
     Please, verify this is what you really want

 
     K-points division:     npool     =       4
     R & G space division:  proc/nbgrp/npool/nimage =      64
     Subspace diagonalization in iterative solution of the eigenvalue problem:
     a serial algorithm will be used

 
     Parallelization info
     --------------------
     sticks:   dense  smooth     PW     G-vecs:    dense   smooth      PW
     Min         354     283     73                42160    30167    3987
     Max         356     285     74                42163    30170    3996
     Sum       22693   18145   4705              2698283  1930731  255309
 
     Using Slab Decomposition
 


     bravais-lattice index     =            4
     lattice parameter (alat)  =      30.6565  a.u.
     unit-cell volume          =   24400.9461 (a.u.)^3
     number of atoms/cell      =          300
     number of atomic types    =            2
     number of electrons       =      2705.00
     number of Kohn-Sham states=         1624
     kinetic-energy cutoff     =      70.0000  Ry
     charge density cutoff     =     350.0000  Ry
     scf convergence threshold =      1.0E-07
     mixing beta               =       0.7000
     number of iterations used =            8  plain     mixing
     energy convergence thresh.=      1.0E-04
     force convergence thresh. =      1.0E-03
     Exchange-correlation= BEEF-VDW
                           (   1   4  43  14   2   0   0)
     nstep                     =           50


     celldm(1)=  30.656540  celldm(2)=   0.000000  celldm(3)=   0.977927
     celldm(4)=   0.000000  celldm(5)=   0.000000  celldm(6)=   0.000000

     crystal axes: (cart. coord. in units of alat)
               a(1) = (   1.000000   0.000000   0.000000 )  
               a(2) = (  -0.500000   0.866025   0.000000 )  
               a(3) = (   0.000000   0.000000   0.977927 )  

     reciprocal axes: (cart. coord. in units 2 pi/alat)
               b(1) = (  1.000000  0.577350 -0.000000 )  
               b(2) = (  0.000000  1.154701  0.000000 )  
               b(3) = (  0.000000 -0.000000  1.022571 )  


     PseudoPot. # 1 for Ga read from file:
     /trace/group/acmegroup/atimmins/packages/espresso/pseudo/psl_1.0.0/pslibrary.1.0.0/pbe/PSEUDOPOTENTIALS/Ga.pbe-dn-kjpaw_psl.1.0.0.UPF
     MD5 check sum: cd2a01e492f15b435d17032472d8505c
     Pseudo is Projector augmented-wave + core cor, Zval = 13.0
     Generated using 'atomic' code by A. Dal Corso  v.7.1
     Shape of augmentation charge: PSQ
     Using radial grid of 1205 points,  6 beta functions with: 
                l(1) =   0
                l(2) =   0
                l(3) =   1
                l(4) =   1
                l(5) =   2
                l(6) =   2
     Q(r) pseudized with 0 coefficients 


     PseudoPot. # 2 for N  read from file:
     /trace/group/acmegroup/atimmins/packages/espresso/pseudo/psl_1.0.0/pslibrary.1.0.0/pbe/PSEUDOPOTENTIALS/N.pbe-n-kjpaw_psl.1.0.0.UPF
     MD5 check sum: f77f775694dac7e2c3fe1c82443d1a16
     Pseudo is Projector augmented-wave + core cor, Zval =  5.0
     Generated using 'atomic' code by A. Dal Corso  v.7.1
     Shape of augmentation charge: PSQ
     Using radial grid of 1085 points,  4 beta functions with: 
                l(1) =   0
                l(2) =   0
                l(3) =   1
                l(4) =   1
     Q(r) pseudized with 0 coefficients 


     atomic species   valence    mass     pseudopotential
        Ga            13.00    69.72300     Ga( 1.00)
        N              5.00    14.00700     N ( 1.00)

      2 Sym. Ops. (no inversion) found


                                    s                        frac. trans.

      isym =  1     identity                                     

 cryst.   s( 1) = (     1          0          0      )
                  (     0          1          0      )
                  (     0          0          1      )

 cart.    s( 1) = (  1.0000000  0.0000000  0.0000000 )
                  (  0.0000000  1.0000000  0.0000000 )
                  (  0.0000000  0.0000000  1.0000000 )


      isym =  2     inv. 180 deg rotation - cryst. axis [0,1,0]  

 cryst.   s( 2) = (     1          1          0      )
                  (     0         -1          0      )
                  (     0          0          1      )

 cart.    s( 2) = (  0.5000000  0.8660254  0.0000000 )
                  (  0.8660254 -0.5000000  0.0000000 )
                  (  0.0000000  0.0000000  1.0000000 )


     point group C_s (m)    
     there are  2 classes
     the character table:

       E     s    
A'     1.00  1.00
A''    1.00 -1.00

     the symmetry operations in each class and the name of the first element:

     E        1
          identity                                               
     s        2
          inv. 180 deg rotation - cryst. axis [0,1,0]            

   Cartesian axes

     site n.     atom                  positions (alat units)
         1           Ga  tau(   1) = (   0.1000001   0.0577350   0.1627148  )
         2           Ga  tau(   2) = (   0.1000001   0.0577350   0.4886906  )
         3           Ga  tau(   3) = (   0.1000001   0.0577350   0.8146665  )
         4           Ga  tau(   4) = (   0.0000001   0.2309401   0.1627148  )
         5           Ga  tau(   5) = (   0.0000001   0.2309401   0.4886906  )
         6           Ga  tau(   6) = (   0.0000001   0.2309401   0.8146665  )
         7           Ga  tau(   7) = (  -0.0999999   0.4041451   0.1627148  )
         8           Ga  tau(   8) = (  -0.0999999   0.4041451   0.4886906  )
         9           Ga  tau(   9) = (  -0.0999999   0.4041451   0.8146665  )
        10           Ga  tau(  10) = (  -0.1999999   0.5773502   0.1627148  )
        11           Ga  tau(  11) = (  -0.1999999   0.5773502   0.4886906  )
        12           Ga  tau(  12) = (  -0.1999999   0.5773502   0.8146665  )
        13           Ga  tau(  13) = (  -0.2999999   0.7505553   0.1627148  )
        14           Ga  tau(  14) = (  -0.2999999   0.7505553   0.4886906  )
        15           Ga  tau(  15) = (  -0.2999999   0.7505553   0.8146665  )
        16           Ga  tau(  16) = (   0.3000001   0.0577350   0.1627148  )
        17           Ga  tau(  17) = (   0.3000001   0.0577350   0.4886906  )
        18           Ga  tau(  18) = (   0.3000001   0.0577350   0.8146665  )
        19           Ga  tau(  19) = (   0.2000001   0.2309401   0.1627148  )
        20           Ga  tau(  20) = (   0.2000001   0.2309401   0.4886906  )
        21           Ga  tau(  21) = (   0.2000001   0.2309401   0.8146665  )
        22           Ga  tau(  22) = (   0.1000001   0.4041451   0.1627148  )
        23           Ga  tau(  23) = (   0.1000001   0.4041451   0.4886906  )
        24           Ga  tau(  24) = (   0.1000001   0.4041451   0.8146665  )
        25           Ga  tau(  25) = (   0.0000001   0.5773502   0.1627148  )
        26           Ga  tau(  26) = (   0.0000001   0.5773502   0.4886906  )
        27           Ga  tau(  27) = (   0.0000001   0.5773502   0.8146665  )
        28           Ga  tau(  28) = (  -0.0999999   0.7505553   0.1627148  )
        29           Ga  tau(  29) = (  -0.0999999   0.7505553   0.4886906  )
        30           Ga  tau(  30) = (  -0.0999999   0.7505553   0.8146665  )
        31           Ga  tau(  31) = (   0.5000001   0.0577350   0.1627148  )
        32           Ga  tau(  32) = (   0.5000001   0.0577350   0.4886906  )
        33           Ga  tau(  33) = (   0.5000001   0.0577350   0.8146665  )
        34           Ga  tau(  34) = (   0.4000001   0.2309401   0.1627148  )
        35           Ga  tau(  35) = (   0.4000001   0.2309401   0.4886906  )
        36           Ga  tau(  36) = (   0.4000001   0.2309401   0.8146665  )
        37           Ga  tau(  37) = (   0.3000001   0.4041451   0.1627148  )
        38           Ga  tau(  38) = (   0.3000001   0.4041451   0.4886906  )
        39           Ga  tau(  39) = (   0.3000001   0.4041451   0.8146665  )
        40           Ga  tau(  40) = (   0.2000001   0.5773502   0.1627148  )
        41           Ga  tau(  41) = (   0.2000001   0.5773502   0.4886906  )
        42           Ga  tau(  42) = (   0.2000001   0.5773502   0.8146665  )
        43           Ga  tau(  43) = (   0.1000001   0.7505553   0.1627148  )
        44           Ga  tau(  44) = (   0.1000001   0.7505553   0.4886906  )
        45           Ga  tau(  45) = (   0.1000001   0.7505553   0.8146665  )
        46           Ga  tau(  46) = (   0.7000001   0.0577350   0.1627148  )
        47           Ga  tau(  47) = (   0.7000001   0.0577350   0.4886906  )
        48           Ga  tau(  48) = (   0.7000001   0.0577350   0.8146665  )
        49           Ga  tau(  49) = (   0.6000001   0.2309401   0.1627148  )
        50           Ga  tau(  50) = (   0.6000001   0.2309401   0.4886906  )
        51           Ga  tau(  51) = (   0.6000001   0.2309401   0.8146665  )
        52           Ga  tau(  52) = (   0.5000001   0.4041451   0.1627148  )
        53           Ga  tau(  53) = (   0.5000001   0.4041451   0.4886906  )
        54           Ga  tau(  54) = (   0.5000001   0.4041451   0.8146665  )
        55           Ga  tau(  55) = (   0.4000001   0.5773502   0.1627148  )
        56           Ga  tau(  56) = (   0.4000001   0.5773502   0.4886906  )
        57           Ga  tau(  57) = (   0.4000001   0.5773502   0.8146665  )
        58           Ga  tau(  58) = (   0.3000001   0.7505553   0.1627148  )
        59           Ga  tau(  59) = (   0.3000001   0.7505553   0.4886906  )
        60           Ga  tau(  60) = (   0.3000001   0.7505553   0.8146665  )
        61           Ga  tau(  61) = (   0.9000001   0.0577350   0.1627148  )
        62           Ga  tau(  62) = (   0.9000001   0.0577350   0.4886906  )
        63           Ga  tau(  63) = (   0.9000001   0.0577350   0.8146665  )
        64           Ga  tau(  64) = (   0.8000001   0.2309401   0.1627148  )
        65           Ga  tau(  65) = (   0.8000001   0.2309401   0.4886906  )
        66           Ga  tau(  66) = (   0.8000001   0.2309401   0.8146665  )
        67           Ga  tau(  67) = (   0.7000001   0.4041451   0.1627148  )
        68           Ga  tau(  68) = (   0.7000001   0.4041451   0.4886906  )
        69           Ga  tau(  69) = (   0.7000001   0.4041451   0.8146665  )
        70           Ga  tau(  70) = (   0.6000001   0.5773502   0.1627148  )
        71           Ga  tau(  71) = (   0.6000001   0.5773502   0.4886906  )
        72           Ga  tau(  72) = (   0.6000001   0.5773502   0.8146665  )
        73           Ga  tau(  73) = (   0.5000001   0.7505553   0.1627148  )
        74           Ga  tau(  74) = (   0.5000001   0.7505553   0.4886906  )
        75           Ga  tau(  75) = (   0.5000001   0.7505553   0.8146665  )
        76           Ga  tau(  76) = (  -0.0000001   0.1154701   0.3257027  )
        77           Ga  tau(  77) = (  -0.0000001   0.1154701   0.6516786  )
        78           Ga  tau(  78) = (  -0.0000001   0.1154701   0.9776544  )
        79           Ga  tau(  79) = (  -0.1000001   0.2886752   0.3257027  )
        80           Ga  tau(  80) = (  -0.1000001   0.2886752   0.6516786  )
        81           Ga  tau(  81) = (  -0.1000001   0.2886752   0.9776544  )
        82           Ga  tau(  82) = (  -0.2000001   0.4618803   0.3257027  )
        83           Ga  tau(  83) = (  -0.2000001   0.4618803   0.6516786  )
        84           Ga  tau(  84) = (  -0.2000001   0.4618803   0.9776544  )
        85           Ga  tau(  85) = (  -0.3000001   0.6350854   0.3257027  )
        86           Ga  tau(  86) = (  -0.3000001   0.6350854   0.6516786  )
        87           Ga  tau(  87) = (  -0.3000001   0.6350854   0.9776544  )
        88           Ga  tau(  88) = (  -0.4000001   0.8082905   0.3257027  )
        89           Ga  tau(  89) = (  -0.4000001   0.8082905   0.6516786  )
        90           Ga  tau(  90) = (  -0.4000001   0.8082905   0.9776544  )
        91           Ga  tau(  91) = (   0.1999999   0.1154701   0.3257027  )
        92           Ga  tau(  92) = (   0.1999999   0.1154701   0.6516786  )
        93           Ga  tau(  93) = (   0.1999999   0.1154701   0.9776544  )
        94           Ga  tau(  94) = (   0.0999999   0.2886752   0.3257027  )
        95           Ga  tau(  95) = (   0.0999999   0.2886752   0.6516786  )
        96           Ga  tau(  96) = (   0.0999999   0.2886752   0.9776544  )
        97           Ga  tau(  97) = (  -0.0000001   0.4618803   0.3257027  )
        98           Ga  tau(  98) = (  -0.0000001   0.4618803   0.6516786  )
        99           Ga  tau(  99) = (  -0.0000001   0.4618803   0.9776544  )
       100           Ga  tau( 100) = (  -0.1000001   0.6350854   0.3257027  )
       101           Ga  tau( 101) = (  -0.1000001   0.6350854   0.6516786  )
       102           Ga  tau( 102) = (  -0.1000001   0.6350854   0.9776544  )
       103           Ga  tau( 103) = (  -0.2000001   0.8082905   0.3257027  )
       104           Ga  tau( 104) = (  -0.2000001   0.8082905   0.6516786  )
       105           Ga  tau( 105) = (  -0.2000001   0.8082905   0.9776544  )
       106           Ga  tau( 106) = (   0.3999999   0.1154701   0.3257027  )
       107           Ga  tau( 107) = (   0.3999999   0.1154701   0.6516786  )
       108           Ga  tau( 108) = (   0.3999999   0.1154701   0.9776544  )
       109           Ga  tau( 109) = (   0.2999999   0.2886752   0.3257027  )
       110           Ga  tau( 110) = (   0.2999999   0.2886752   0.6516786  )
       111           Ga  tau( 111) = (   0.2999999   0.2886752   0.9776544  )
       112           Ga  tau( 112) = (   0.1999999   0.4618803   0.3257027  )
       113           Ga  tau( 113) = (   0.1999999   0.4618803   0.6516786  )
       114           Ga  tau( 114) = (   0.1999999   0.4618803   0.9776544  )
       115           Ga  tau( 115) = (   0.0999999   0.6350854   0.3257027  )
       116           Ga  tau( 116) = (   0.0999999   0.6350854   0.6516786  )
       117           Ga  tau( 117) = (   0.0999999   0.6350854   0.9776544  )
       118           Ga  tau( 118) = (  -0.0000001   0.8082905   0.3257027  )
       119           Ga  tau( 119) = (  -0.0000001   0.8082905   0.6516786  )
       120           Ga  tau( 120) = (  -0.0000001   0.8082905   0.9776544  )
       121           Ga  tau( 121) = (   0.5999999   0.1154701   0.3257027  )
       122           Ga  tau( 122) = (   0.5999999   0.1154701   0.6516786  )
       123           Ga  tau( 123) = (   0.5999999   0.1154701   0.9776544  )
       124           Ga  tau( 124) = (   0.4999999   0.2886752   0.3257027  )
       125           Ga  tau( 125) = (   0.4999999   0.2886752   0.6516786  )
       126           Ga  tau( 126) = (   0.4999999   0.2886752   0.9776544  )
       127           Ga  tau( 127) = (   0.3999999   0.4618803   0.3257027  )
       128           Ga  tau( 128) = (   0.3999999   0.4618803   0.6516786  )
       129           Ga  tau( 129) = (   0.3999999   0.4618803   0.9776544  )
       130           Ga  tau( 130) = (   0.2999999   0.6350854   0.3257027  )
       131           Ga  tau( 131) = (   0.2999999   0.6350854   0.6516786  )
       132           Ga  tau( 132) = (   0.2999999   0.6350854   0.9776544  )
       133           Ga  tau( 133) = (   0.1999999   0.8082905   0.3257027  )
       134           Ga  tau( 134) = (   0.1999999   0.8082905   0.6516786  )
       135           Ga  tau( 135) = (   0.1999999   0.8082905   0.9776544  )
       136           Ga  tau( 136) = (   0.7999999   0.1154701   0.3257027  )
       137           Ga  tau( 137) = (   0.7999999   0.1154701   0.6516786  )
       138           Ga  tau( 138) = (   0.7999999   0.1154701   0.9776544  )
       139           Ga  tau( 139) = (   0.6999999   0.2886752   0.3257027  )
       140           Ga  tau( 140) = (   0.6999999   0.2886752   0.6516786  )
       141           Ga  tau( 141) = (   0.6999999   0.2886752   0.9776544  )
       142           Ga  tau( 142) = (   0.5999999   0.4618803   0.3257027  )
       143           Ga  tau( 143) = (   0.5999999   0.4618803   0.6516786  )
       144           Ga  tau( 144) = (   0.5999999   0.4618803   0.9776544  )
       145           Ga  tau( 145) = (   0.4999999   0.6350854   0.3257027  )
       146           Ga  tau( 146) = (   0.4999999   0.6350854   0.6516786  )
       147           Ga  tau( 147) = (   0.4999999   0.6350854   0.9776544  )
       148           Ga  tau( 148) = (   0.3999999   0.8082905   0.3257027  )
       149           Ga  tau( 149) = (   0.3999999   0.8082905   0.6516786  )
       150           Ga  tau( 150) = (   0.3999999   0.8082905   0.9776544  )
       151           N   tau( 151) = (   0.1000001   0.0577350   0.6114777  )
       152           N   tau( 152) = (   0.1000001   0.0577350   0.9374535  )
       153           N   tau( 153) = (   0.0000001   0.2309401   0.2855019  )
       154           N   tau( 154) = (   0.0000001   0.2309401   0.6114777  )
       155           N   tau( 155) = (   0.0000001   0.2309401   0.9374535  )
       156           N   tau( 156) = (  -0.0999999   0.4041451   0.2855019  )
       157           N   tau( 157) = (  -0.0999999   0.4041451   0.6114777  )
       158           N   tau( 158) = (  -0.0999999   0.4041451   0.9374535  )
       159           N   tau( 159) = (  -0.1999999   0.5773502   0.2855019  )
       160           N   tau( 160) = (  -0.1999999   0.5773502   0.6114777  )
       161           N   tau( 161) = (  -0.1999999   0.5773502   0.9374535  )
       162           N   tau( 162) = (  -0.2999999   0.7505553   0.2855019  )
       163           N   tau( 163) = (  -0.2999999   0.7505553   0.6114777  )
       164           N   tau( 164) = (  -0.2999999   0.7505553   0.9374535  )
       165           N   tau( 165) = (   0.3000001   0.0577350   0.2855019  )
       166           N   tau( 166) = (   0.3000001   0.0577350   0.6114777  )
       167           N   tau( 167) = (   0.3000001   0.0577350   0.9374535  )
       168           N   tau( 168) = (   0.2000001   0.2309401   0.2855019  )
       169           N   tau( 169) = (   0.2000001   0.2309401   0.6114777  )
       170           N   tau( 170) = (   0.2000001   0.2309401   0.9374535  )
       171           N   tau( 171) = (   0.1000001   0.4041451   0.2855019  )
       172           N   tau( 172) = (   0.1000001   0.4041451   0.6114777  )
       173           N   tau( 173) = (   0.1000001   0.4041451   0.9374535  )
       174           N   tau( 174) = (   0.0000001   0.5773502   0.2855019  )
       175           N   tau( 175) = (   0.0000001   0.5773502   0.6114777  )
       176           N   tau( 176) = (   0.0000001   0.5773502   0.9374535  )
       177           N   tau( 177) = (  -0.0999999   0.7505553   0.2855019  )
       178           N   tau( 178) = (  -0.0999999   0.7505553   0.6114777  )
       179           N   tau( 179) = (  -0.0999999   0.7505553   0.9374535  )
       180           N   tau( 180) = (   0.5000001   0.0577350   0.2855019  )
       181           N   tau( 181) = (   0.5000001   0.0577350   0.6114777  )
       182           N   tau( 182) = (   0.5000001   0.0577350   0.9374535  )
       183           N   tau( 183) = (   0.4000001   0.2309401   0.2855019  )
       184           N   tau( 184) = (   0.4000001   0.2309401   0.6114777  )
       185           N   tau( 185) = (   0.4000001   0.2309401   0.9374535  )
       186           N   tau( 186) = (   0.3000001   0.4041451   0.2855019  )
       187           N   tau( 187) = (   0.3000001   0.4041451   0.6114777  )
       188           N   tau( 188) = (   0.3000001   0.4041451   0.9374535  )
       189           N   tau( 189) = (   0.2000001   0.5773502   0.2855019  )
       190           N   tau( 190) = (   0.2000001   0.5773502   0.6114777  )
       191           N   tau( 191) = (   0.2000001   0.5773502   0.9374535  )
       192           N   tau( 192) = (   0.1000001   0.7505553   0.2855019  )
       193           N   tau( 193) = (   0.1000001   0.7505553   0.6114777  )
       194           N   tau( 194) = (   0.1000001   0.7505553   0.9374535  )
       195           N   tau( 195) = (   0.7000001   0.0577350   0.2855019  )
       196           N   tau( 196) = (   0.7000001   0.0577350   0.6114777  )
       197           N   tau( 197) = (   0.7000001   0.0577350   0.9374535  )
       198           N   tau( 198) = (   0.6000001   0.2309401   0.2855019  )
       199           N   tau( 199) = (   0.6000001   0.2309401   0.6114777  )
       200           N   tau( 200) = (   0.6000001   0.2309401   0.9374535  )
       201           N   tau( 201) = (   0.5000001   0.4041451   0.2855019  )
       202           N   tau( 202) = (   0.5000001   0.4041451   0.6114777  )
       203           N   tau( 203) = (   0.5000001   0.4041451   0.9374535  )
       204           N   tau( 204) = (   0.4000001   0.5773502   0.2855019  )
       205           N   tau( 205) = (   0.4000001   0.5773502   0.6114777  )
       206           N   tau( 206) = (   0.4000001   0.5773502   0.9374535  )
       207           N   tau( 207) = (   0.3000001   0.7505553   0.2855019  )
       208           N   tau( 208) = (   0.3000001   0.7505553   0.6114777  )
       209           N   tau( 209) = (   0.3000001   0.7505553   0.9374535  )
       210           N   tau( 210) = (   0.9000001   0.0577350   0.2855019  )
       211           N   tau( 211) = (   0.9000001   0.0577350   0.6114777  )
       212           N   tau( 212) = (   0.9000001   0.0577350   0.9374535  )
       213           N   tau( 213) = (   0.8000001   0.2309401   0.2855019  )
       214           N   tau( 214) = (   0.8000001   0.2309401   0.6114777  )
       215           N   tau( 215) = (   0.8000001   0.2309401   0.9374535  )
       216           N   tau( 216) = (   0.7000001   0.4041451   0.2855019  )
       217           N   tau( 217) = (   0.7000001   0.4041451   0.6114777  )
       218           N   tau( 218) = (   0.7000001   0.4041451   0.9374535  )
       219           N   tau( 219) = (   0.6000001   0.5773502   0.2855019  )
       220           N   tau( 220) = (   0.6000001   0.5773502   0.6114777  )
       221           N   tau( 221) = (   0.6000001   0.5773502   0.9374535  )
       222           N   tau( 222) = (   0.5000001   0.7505553   0.2855019  )
       223           N   tau( 223) = (   0.5000001   0.7505553   0.6114777  )
       224           N   tau( 224) = (   0.5000001   0.7505553   0.9374535  )
       225           N   tau( 225) = (  -0.0000001   0.1154701   0.1225140  )
       226           N   tau( 226) = (  -0.0000001   0.1154701   0.4484898  )
       227           N   tau( 227) = (  -0.0000001   0.1154701   0.7744656  )
       228           N   tau( 228) = (  -0.1000001   0.2886752   0.1225140  )
       229           N   tau( 229) = (  -0.1000001   0.2886752   0.4484898  )
       230           N   tau( 230) = (  -0.1000001   0.2886752   0.7744656  )
       231           N   tau( 231) = (  -0.2000001   0.4618803   0.1225140  )
       232           N   tau( 232) = (  -0.2000001   0.4618803   0.4484898  )
       233           N   tau( 233) = (  -0.2000001   0.4618803   0.7744656  )
       234           N   tau( 234) = (  -0.3000001   0.6350854   0.1225140  )
       235           N   tau( 235) = (  -0.3000001   0.6350854   0.4484898  )
       236           N   tau( 236) = (  -0.3000001   0.6350854   0.7744656  )
       237           N   tau( 237) = (  -0.4000001   0.8082905   0.1225140  )
       238           N   tau( 238) = (  -0.4000001   0.8082905   0.4484898  )
       239           N   tau( 239) = (  -0.4000001   0.8082905   0.7744656  )
       240           N   tau( 240) = (   0.1999999   0.1154701   0.1225140  )
       241           N   tau( 241) = (   0.1999999   0.1154701   0.4484898  )
       242           N   tau( 242) = (   0.1999999   0.1154701   0.7744656  )
       243           N   tau( 243) = (   0.0999999   0.2886752   0.1225140  )
       244           N   tau( 244) = (   0.0999999   0.2886752   0.4484898  )
       245           N   tau( 245) = (   0.0999999   0.2886752   0.7744656  )
       246           N   tau( 246) = (  -0.0000001   0.4618803   0.1225140  )
       247           N   tau( 247) = (  -0.0000001   0.4618803   0.4484898  )
       248           N   tau( 248) = (  -0.0000001   0.4618803   0.7744656  )
       249           N   tau( 249) = (  -0.1000001   0.6350854   0.1225140  )
       250           N   tau( 250) = (  -0.1000001   0.6350854   0.4484898  )
       251           N   tau( 251) = (  -0.1000001   0.6350854   0.7744656  )
       252           N   tau( 252) = (  -0.2000001   0.8082905   0.1225140  )
       253           N   tau( 253) = (  -0.2000001   0.8082905   0.4484898  )
       254           N   tau( 254) = (  -0.2000001   0.8082905   0.7744656  )
       255           N   tau( 255) = (   0.3999999   0.1154701   0.1225140  )
       256           N   tau( 256) = (   0.3999999   0.1154701   0.4484898  )
       257           N   tau( 257) = (   0.3999999   0.1154701   0.7744656  )
       258           N   tau( 258) = (   0.2999999   0.2886752   0.1225140  )
       259           N   tau( 259) = (   0.2999999   0.2886752   0.4484898  )
       260           N   tau( 260) = (   0.2999999   0.2886752   0.7744656  )
       261           N   tau( 261) = (   0.1999999   0.4618803   0.1225140  )
       262           N   tau( 262) = (   0.1999999   0.4618803   0.4484898  )
       263           N   tau( 263) = (   0.1999999   0.4618803   0.7744656  )
       264           N   tau( 264) = (   0.0999999   0.6350854   0.1225140  )
       265           N   tau( 265) = (   0.0999999   0.6350854   0.4484898  )
       266           N   tau( 266) = (   0.0999999   0.6350854   0.7744656  )
       267           N   tau( 267) = (  -0.0000001   0.8082905   0.1225140  )
       268           N   tau( 268) = (  -0.0000001   0.8082905   0.4484898  )
       269           N   tau( 269) = (  -0.0000001   0.8082905   0.7744656  )
       270           N   tau( 270) = (   0.5999999   0.1154701   0.1225140  )
       271           N   tau( 271) = (   0.5999999   0.1154701   0.4484898  )
       272           N   tau( 272) = (   0.5999999   0.1154701   0.7744656  )
       273           N   tau( 273) = (   0.4999999   0.2886752   0.1225140  )
       274           N   tau( 274) = (   0.4999999   0.2886752   0.4484898  )
       275           N   tau( 275) = (   0.4999999   0.2886752   0.7744656  )
       276           N   tau( 276) = (   0.3999999   0.4618803   0.1225140  )
       277           N   tau( 277) = (   0.3999999   0.4618803   0.4484898  )
       278           N   tau( 278) = (   0.3999999   0.4618803   0.7744656  )
       279           N   tau( 279) = (   0.2999999   0.6350854   0.1225140  )
       280           N   tau( 280) = (   0.2999999   0.6350854   0.4484898  )
       281           N   tau( 281) = (   0.2999999   0.6350854   0.7744656  )
       282           N   tau( 282) = (   0.1999999   0.8082905   0.1225140  )
       283           N   tau( 283) = (   0.1999999   0.8082905   0.4484898  )
       284           N   tau( 284) = (   0.1999999   0.8082905   0.7744656  )
       285           N   tau( 285) = (   0.7999999   0.1154701   0.1225140  )
       286           N   tau( 286) = (   0.7999999   0.1154701   0.4484898  )
       287           N   tau( 287) = (   0.7999999   0.1154701   0.7744656  )
       288           N   tau( 288) = (   0.6999999   0.2886752   0.1225140  )
       289           N   tau( 289) = (   0.6999999   0.2886752   0.4484898  )
       290           N   tau( 290) = (   0.6999999   0.2886752   0.7744656  )
       291           N   tau( 291) = (   0.5999999   0.4618803   0.1225140  )
       292           N   tau( 292) = (   0.5999999   0.4618803   0.4484898  )
       293           N   tau( 293) = (   0.5999999   0.4618803   0.7744656  )
       294           N   tau( 294) = (   0.4999999   0.6350854   0.1225140  )
       295           N   tau( 295) = (   0.4999999   0.6350854   0.4484898  )
       296           N   tau( 296) = (   0.4999999   0.6350854   0.7744656  )
       297           N   tau( 297) = (   0.3999999   0.8082905   0.1225140  )
       298           N   tau( 298) = (   0.3999999   0.8082905   0.4484898  )
       299           N   tau( 299) = (   0.3999999   0.8082905   0.7744656  )
       300           Ga  tau( 300) = (   0.1000001   0.0577350   0.2855019  )

   Crystallographic axes

     site n.     atom                  positions (cryst. coord.)
         1           Ga  tau(   1) = (  0.1333334  0.0666666  0.1663874  )
         2           Ga  tau(   2) = (  0.1333334  0.0666666  0.4997208  )
         3           Ga  tau(   3) = (  0.1333334  0.0666666  0.8330541  )
         4           Ga  tau(   4) = (  0.1333334  0.2666666  0.1663874  )
         5           Ga  tau(   5) = (  0.1333334  0.2666666  0.4997208  )
         6           Ga  tau(   6) = (  0.1333334  0.2666666  0.8330541  )
         7           Ga  tau(   7) = (  0.1333334  0.4666666  0.1663874  )
         8           Ga  tau(   8) = (  0.1333334  0.4666666  0.4997208  )
         9           Ga  tau(   9) = (  0.1333334  0.4666666  0.8330541  )
        10           Ga  tau(  10) = (  0.1333334  0.6666666  0.1663874  )
        11           Ga  tau(  11) = (  0.1333334  0.6666666  0.4997208  )
        12           Ga  tau(  12) = (  0.1333334  0.6666666  0.8330541  )
        13           Ga  tau(  13) = (  0.1333334  0.8666666  0.1663874  )
        14           Ga  tau(  14) = (  0.1333334  0.8666666  0.4997208  )
        15           Ga  tau(  15) = (  0.1333334  0.8666666  0.8330541  )
        16           Ga  tau(  16) = (  0.3333334  0.0666666  0.1663874  )
        17           Ga  tau(  17) = (  0.3333334  0.0666666  0.4997208  )
        18           Ga  tau(  18) = (  0.3333334  0.0666666  0.8330541  )
        19           Ga  tau(  19) = (  0.3333334  0.2666666  0.1663874  )
        20           Ga  tau(  20) = (  0.3333334  0.2666666  0.4997208  )
        21           Ga  tau(  21) = (  0.3333334  0.2666666  0.8330541  )
        22           Ga  tau(  22) = (  0.3333334  0.4666666  0.1663874  )
        23           Ga  tau(  23) = (  0.3333334  0.4666666  0.4997208  )
        24           Ga  tau(  24) = (  0.3333334  0.4666666  0.8330541  )
        25           Ga  tau(  25) = (  0.3333334  0.6666666  0.1663874  )
        26           Ga  tau(  26) = (  0.3333334  0.6666666  0.4997208  )
        27           Ga  tau(  27) = (  0.3333334  0.6666666  0.8330541  )
        28           Ga  tau(  28) = (  0.3333334  0.8666666  0.1663874  )
        29           Ga  tau(  29) = (  0.3333334  0.8666666  0.4997208  )
        30           Ga  tau(  30) = (  0.3333334  0.8666666  0.8330541  )
        31           Ga  tau(  31) = (  0.5333334  0.0666666  0.1663874  )
        32           Ga  tau(  32) = (  0.5333334  0.0666666  0.4997208  )
        33           Ga  tau(  33) = (  0.5333334  0.0666666  0.8330541  )
        34           Ga  tau(  34) = (  0.5333334  0.2666666  0.1663874  )
        35           Ga  tau(  35) = (  0.5333334  0.2666666  0.4997208  )
        36           Ga  tau(  36) = (  0.5333334  0.2666666  0.8330541  )
        37           Ga  tau(  37) = (  0.5333334  0.4666666  0.1663874  )
        38           Ga  tau(  38) = (  0.5333334  0.4666666  0.4997208  )
        39           Ga  tau(  39) = (  0.5333334  0.4666666  0.8330541  )
        40           Ga  tau(  40) = (  0.5333334  0.6666666  0.1663874  )
        41           Ga  tau(  41) = (  0.5333334  0.6666666  0.4997208  )
        42           Ga  tau(  42) = (  0.5333334  0.6666666  0.8330541  )
        43           Ga  tau(  43) = (  0.5333334  0.8666666  0.1663874  )
        44           Ga  tau(  44) = (  0.5333334  0.8666666  0.4997208  )
        45           Ga  tau(  45) = (  0.5333334  0.8666666  0.8330541  )
        46           Ga  tau(  46) = (  0.7333334  0.0666666  0.1663874  )
        47           Ga  tau(  47) = (  0.7333334  0.0666666  0.4997208  )
        48           Ga  tau(  48) = (  0.7333334  0.0666666  0.8330541  )
        49           Ga  tau(  49) = (  0.7333334  0.2666666  0.1663874  )
        50           Ga  tau(  50) = (  0.7333334  0.2666666  0.4997208  )
        51           Ga  tau(  51) = (  0.7333334  0.2666666  0.8330541  )
        52           Ga  tau(  52) = (  0.7333334  0.4666666  0.1663874  )
        53           Ga  tau(  53) = (  0.7333334  0.4666666  0.4997208  )
        54           Ga  tau(  54) = (  0.7333334  0.4666666  0.8330541  )
        55           Ga  tau(  55) = (  0.7333334  0.6666666  0.1663874  )
        56           Ga  tau(  56) = (  0.7333334  0.6666666  0.4997208  )
        57           Ga  tau(  57) = (  0.7333334  0.6666666  0.8330541  )
        58           Ga  tau(  58) = (  0.7333334  0.8666666  0.1663874  )
        59           Ga  tau(  59) = (  0.7333334  0.8666666  0.4997208  )
        60           Ga  tau(  60) = (  0.7333334  0.8666666  0.8330541  )
        61           Ga  tau(  61) = (  0.9333334  0.0666666  0.1663874  )
        62           Ga  tau(  62) = (  0.9333334  0.0666666  0.4997208  )
        63           Ga  tau(  63) = (  0.9333334  0.0666666  0.8330541  )
        64           Ga  tau(  64) = (  0.9333334  0.2666666  0.1663874  )
        65           Ga  tau(  65) = (  0.9333334  0.2666666  0.4997208  )
        66           Ga  tau(  66) = (  0.9333334  0.2666666  0.8330541  )
        67           Ga  tau(  67) = (  0.9333334  0.4666666  0.1663874  )
        68           Ga  tau(  68) = (  0.9333334  0.4666666  0.4997208  )
        69           Ga  tau(  69) = (  0.9333334  0.4666666  0.8330541  )
        70           Ga  tau(  70) = (  0.9333334  0.6666666  0.1663874  )
        71           Ga  tau(  71) = (  0.9333334  0.6666666  0.4997208  )
        72           Ga  tau(  72) = (  0.9333334  0.6666666  0.8330541  )
        73           Ga  tau(  73) = (  0.9333334  0.8666666  0.1663874  )
        74           Ga  tau(  74) = (  0.9333334  0.8666666  0.4997208  )
        75           Ga  tau(  75) = (  0.9333334  0.8666666  0.8330541  )
        76           Ga  tau(  76) = (  0.0666666  0.1333334  0.3330541  )
        77           Ga  tau(  77) = (  0.0666666  0.1333334  0.6663874  )
        78           Ga  tau(  78) = (  0.0666666  0.1333334  0.9997208  )
        79           Ga  tau(  79) = (  0.0666666  0.3333334  0.3330541  )
        80           Ga  tau(  80) = (  0.0666666  0.3333334  0.6663874  )
        81           Ga  tau(  81) = (  0.0666666  0.3333334  0.9997208  )
        82           Ga  tau(  82) = (  0.0666666  0.5333334  0.3330541  )
        83           Ga  tau(  83) = (  0.0666666  0.5333334  0.6663874  )
        84           Ga  tau(  84) = (  0.0666666  0.5333334  0.9997208  )
        85           Ga  tau(  85) = (  0.0666666  0.7333334  0.3330541  )
        86           Ga  tau(  86) = (  0.0666666  0.7333334  0.6663874  )
        87           Ga  tau(  87) = (  0.0666666  0.7333334  0.9997208  )
        88           Ga  tau(  88) = (  0.0666666  0.9333334  0.3330541  )
        89           Ga  tau(  89) = (  0.0666666  0.9333334  0.6663874  )
        90           Ga  tau(  90) = (  0.0666666  0.9333334  0.9997208  )
        91           Ga  tau(  91) = (  0.2666666  0.1333334  0.3330541  )
        92           Ga  tau(  92) = (  0.2666666  0.1333334  0.6663874  )
        93           Ga  tau(  93) = (  0.2666666  0.1333334  0.9997208  )
        94           Ga  tau(  94) = (  0.2666666  0.3333334  0.3330541  )
        95           Ga  tau(  95) = (  0.2666666  0.3333334  0.6663874  )
        96           Ga  tau(  96) = (  0.2666666  0.3333334  0.9997208  )
        97           Ga  tau(  97) = (  0.2666666  0.5333334  0.3330541  )
        98           Ga  tau(  98) = (  0.2666666  0.5333334  0.6663874  )
        99           Ga  tau(  99) = (  0.2666666  0.5333334  0.9997208  )
       100           Ga  tau( 100) = (  0.2666666  0.7333334  0.3330541  )
       101           Ga  tau( 101) = (  0.2666666  0.7333334  0.6663874  )
       102           Ga  tau( 102) = (  0.2666666  0.7333334  0.9997208  )
       103           Ga  tau( 103) = (  0.2666666  0.9333334  0.3330541  )
       104           Ga  tau( 104) = (  0.2666666  0.9333334  0.6663874  )
       105           Ga  tau( 105) = (  0.2666666  0.9333334  0.9997208  )
       106           Ga  tau( 106) = (  0.4666666  0.1333334  0.3330541  )
       107           Ga  tau( 107) = (  0.4666666  0.1333334  0.6663874  )
       108           Ga  tau( 108) = (  0.4666666  0.1333334  0.9997208  )
       109           Ga  tau( 109) = (  0.4666666  0.3333334  0.3330541  )
       110           Ga  tau( 110) = (  0.4666666  0.3333334  0.6663874  )
       111           Ga  tau( 111) = (  0.4666666  0.3333334  0.9997208  )
       112           Ga  tau( 112) = (  0.4666666  0.5333334  0.3330541  )
       113           Ga  tau( 113) = (  0.4666666  0.5333334  0.6663874  )
       114           Ga  tau( 114) = (  0.4666666  0.5333334  0.9997208  )
       115           Ga  tau( 115) = (  0.4666666  0.7333334  0.3330541  )
       116           Ga  tau( 116) = (  0.4666666  0.7333334  0.6663874  )
       117           Ga  tau( 117) = (  0.4666666  0.7333334  0.9997208  )
       118           Ga  tau( 118) = (  0.4666666  0.9333334  0.3330541  )
       119           Ga  tau( 119) = (  0.4666666  0.9333334  0.6663874  )
       120           Ga  tau( 120) = (  0.4666666  0.9333334  0.9997208  )
       121           Ga  tau( 121) = (  0.6666666  0.1333334  0.3330541  )
       122           Ga  tau( 122) = (  0.6666666  0.1333334  0.6663874  )
       123           Ga  tau( 123) = (  0.6666666  0.1333334  0.9997208  )
       124           Ga  tau( 124) = (  0.6666666  0.3333334  0.3330541  )
       125           Ga  tau( 125) = (  0.6666666  0.3333334  0.6663874  )
       126           Ga  tau( 126) = (  0.6666666  0.3333334  0.9997208  )
       127           Ga  tau( 127) = (  0.6666666  0.5333334  0.3330541  )
       128           Ga  tau( 128) = (  0.6666666  0.5333334  0.6663874  )
       129           Ga  tau( 129) = (  0.6666666  0.5333334  0.9997208  )
       130           Ga  tau( 130) = (  0.6666666  0.7333334  0.3330541  )
       131           Ga  tau( 131) = (  0.6666666  0.7333334  0.6663874  )
       132           Ga  tau( 132) = (  0.6666666  0.7333334  0.9997208  )
       133           Ga  tau( 133) = (  0.6666666  0.9333334  0.3330541  )
       134           Ga  tau( 134) = (  0.6666666  0.9333334  0.6663874  )
       135           Ga  tau( 135) = (  0.6666666  0.9333334  0.9997208  )
       136           Ga  tau( 136) = (  0.8666666  0.1333334  0.3330541  )
       137           Ga  tau( 137) = (  0.8666666  0.1333334  0.6663874  )
       138           Ga  tau( 138) = (  0.8666666  0.1333334  0.9997208  )
       139           Ga  tau( 139) = (  0.8666666  0.3333334  0.3330541  )
       140           Ga  tau( 140) = (  0.8666666  0.3333334  0.6663874  )
       141           Ga  tau( 141) = (  0.8666666  0.3333334  0.9997208  )
       142           Ga  tau( 142) = (  0.8666666  0.5333334  0.3330541  )
       143           Ga  tau( 143) = (  0.8666666  0.5333334  0.6663874  )
       144           Ga  tau( 144) = (  0.8666666  0.5333334  0.9997208  )
       145           Ga  tau( 145) = (  0.8666666  0.7333334  0.3330541  )
       146           Ga  tau( 146) = (  0.8666666  0.7333334  0.6663874  )
       147           Ga  tau( 147) = (  0.8666666  0.7333334  0.9997208  )
       148           Ga  tau( 148) = (  0.8666666  0.9333334  0.3330541  )
       149           Ga  tau( 149) = (  0.8666666  0.9333334  0.6663874  )
       150           Ga  tau( 150) = (  0.8666666  0.9333334  0.9997208  )
       151           N   tau( 151) = (  0.1333334  0.0666666  0.6252792  )
       152           N   tau( 152) = (  0.1333334  0.0666666  0.9586126  )
       153           N   tau( 153) = (  0.1333334  0.2666666  0.2919459  )
       154           N   tau( 154) = (  0.1333334  0.2666666  0.6252792  )
       155           N   tau( 155) = (  0.1333334  0.2666666  0.9586126  )
       156           N   tau( 156) = (  0.1333334  0.4666666  0.2919459  )
       157           N   tau( 157) = (  0.1333334  0.4666666  0.6252792  )
       158           N   tau( 158) = (  0.1333334  0.4666666  0.9586126  )
       159           N   tau( 159) = (  0.1333334  0.6666666  0.2919459  )
       160           N   tau( 160) = (  0.1333334  0.6666666  0.6252792  )
       161           N   tau( 161) = (  0.1333334  0.6666666  0.9586126  )
       162           N   tau( 162) = (  0.1333334  0.8666666  0.2919459  )
       163           N   tau( 163) = (  0.1333334  0.8666666  0.6252792  )
       164           N   tau( 164) = (  0.1333334  0.8666666  0.9586126  )
       165           N   tau( 165) = (  0.3333334  0.0666666  0.2919459  )
       166           N   tau( 166) = (  0.3333334  0.0666666  0.6252792  )
       167           N   tau( 167) = (  0.3333334  0.0666666  0.9586126  )
       168           N   tau( 168) = (  0.3333334  0.2666666  0.2919459  )
       169           N   tau( 169) = (  0.3333334  0.2666666  0.6252792  )
       170           N   tau( 170) = (  0.3333334  0.2666666  0.9586126  )
       171           N   tau( 171) = (  0.3333334  0.4666666  0.2919459  )
       172           N   tau( 172) = (  0.3333334  0.4666666  0.6252792  )
       173           N   tau( 173) = (  0.3333334  0.4666666  0.9586126  )
       174           N   tau( 174) = (  0.3333334  0.6666666  0.2919459  )
       175           N   tau( 175) = (  0.3333334  0.6666666  0.6252792  )
       176           N   tau( 176) = (  0.3333334  0.6666666  0.9586126  )
       177           N   tau( 177) = (  0.3333334  0.8666666  0.2919459  )
       178           N   tau( 178) = (  0.3333334  0.8666666  0.6252792  )
       179           N   tau( 179) = (  0.3333334  0.8666666  0.9586126  )
       180           N   tau( 180) = (  0.5333334  0.0666666  0.2919459  )
       181           N   tau( 181) = (  0.5333334  0.0666666  0.6252792  )
       182           N   tau( 182) = (  0.5333334  0.0666666  0.9586126  )
       183           N   tau( 183) = (  0.5333334  0.2666666  0.2919459  )
       184           N   tau( 184) = (  0.5333334  0.2666666  0.6252792  )
       185           N   tau( 185) = (  0.5333334  0.2666666  0.9586126  )
       186           N   tau( 186) = (  0.5333334  0.4666666  0.2919459  )
       187           N   tau( 187) = (  0.5333334  0.4666666  0.6252792  )
       188           N   tau( 188) = (  0.5333334  0.4666666  0.9586126  )
       189           N   tau( 189) = (  0.5333334  0.6666666  0.2919459  )
       190           N   tau( 190) = (  0.5333334  0.6666666  0.6252792  )
       191           N   tau( 191) = (  0.5333334  0.6666666  0.9586126  )
       192           N   tau( 192) = (  0.5333334  0.8666666  0.2919459  )
       193           N   tau( 193) = (  0.5333334  0.8666666  0.6252792  )
       194           N   tau( 194) = (  0.5333334  0.8666666  0.9586126  )
       195           N   tau( 195) = (  0.7333334  0.0666666  0.2919459  )
       196           N   tau( 196) = (  0.7333334  0.0666666  0.6252792  )
       197           N   tau( 197) = (  0.7333334  0.0666666  0.9586126  )
       198           N   tau( 198) = (  0.7333334  0.2666666  0.2919459  )
       199           N   tau( 199) = (  0.7333334  0.2666666  0.6252792  )
       200           N   tau( 200) = (  0.7333334  0.2666666  0.9586126  )
       201           N   tau( 201) = (  0.7333334  0.4666666  0.2919459  )
       202           N   tau( 202) = (  0.7333334  0.4666666  0.6252792  )
       203           N   tau( 203) = (  0.7333334  0.4666666  0.9586126  )
       204           N   tau( 204) = (  0.7333334  0.6666666  0.2919459  )
       205           N   tau( 205) = (  0.7333334  0.6666666  0.6252792  )
       206           N   tau( 206) = (  0.7333334  0.6666666  0.9586126  )
       207           N   tau( 207) = (  0.7333334  0.8666666  0.2919459  )
       208           N   tau( 208) = (  0.7333334  0.8666666  0.6252792  )
       209           N   tau( 209) = (  0.7333334  0.8666666  0.9586126  )
       210           N   tau( 210) = (  0.9333334  0.0666666  0.2919459  )
       211           N   tau( 211) = (  0.9333334  0.0666666  0.6252792  )
       212           N   tau( 212) = (  0.9333334  0.0666666  0.9586126  )
       213           N   tau( 213) = (  0.9333334  0.2666666  0.2919459  )
       214           N   tau( 214) = (  0.9333334  0.2666666  0.6252792  )
       215           N   tau( 215) = (  0.9333334  0.2666666  0.9586126  )
       216           N   tau( 216) = (  0.9333334  0.4666666  0.2919459  )
       217           N   tau( 217) = (  0.9333334  0.4666666  0.6252792  )
       218           N   tau( 218) = (  0.9333334  0.4666666  0.9586126  )
       219           N   tau( 219) = (  0.9333334  0.6666666  0.2919459  )
       220           N   tau( 220) = (  0.9333334  0.6666666  0.6252792  )
       221           N   tau( 221) = (  0.9333334  0.6666666  0.9586126  )
       222           N   tau( 222) = (  0.9333334  0.8666666  0.2919459  )
       223           N   tau( 223) = (  0.9333334  0.8666666  0.6252792  )
       224           N   tau( 224) = (  0.9333334  0.8666666  0.9586126  )
       225           N   tau( 225) = (  0.0666666  0.1333334  0.1252792  )
       226           N   tau( 226) = (  0.0666666  0.1333334  0.4586126  )
       227           N   tau( 227) = (  0.0666666  0.1333334  0.7919459  )
       228           N   tau( 228) = (  0.0666666  0.3333334  0.1252792  )
       229           N   tau( 229) = (  0.0666666  0.3333334  0.4586126  )
       230           N   tau( 230) = (  0.0666666  0.3333334  0.7919459  )
       231           N   tau( 231) = (  0.0666666  0.5333334  0.1252792  )
       232           N   tau( 232) = (  0.0666666  0.5333334  0.4586126  )
       233           N   tau( 233) = (  0.0666666  0.5333334  0.7919459  )
       234           N   tau( 234) = (  0.0666666  0.7333334  0.1252792  )
       235           N   tau( 235) = (  0.0666666  0.7333334  0.4586126  )
       236           N   tau( 236) = (  0.0666666  0.7333334  0.7919459  )
       237           N   tau( 237) = (  0.0666666  0.9333334  0.1252792  )
       238           N   tau( 238) = (  0.0666666  0.9333334  0.4586126  )
       239           N   tau( 239) = (  0.0666666  0.9333334  0.7919459  )
       240           N   tau( 240) = (  0.2666666  0.1333334  0.1252792  )
       241           N   tau( 241) = (  0.2666666  0.1333334  0.4586126  )
       242           N   tau( 242) = (  0.2666666  0.1333334  0.7919459  )
       243           N   tau( 243) = (  0.2666666  0.3333334  0.1252792  )
       244           N   tau( 244) = (  0.2666666  0.3333334  0.4586126  )
       245           N   tau( 245) = (  0.2666666  0.3333334  0.7919459  )
       246           N   tau( 246) = (  0.2666666  0.5333334  0.1252792  )
       247           N   tau( 247) = (  0.2666666  0.5333334  0.4586126  )
       248           N   tau( 248) = (  0.2666666  0.5333334  0.7919459  )
       249           N   tau( 249) = (  0.2666666  0.7333334  0.1252792  )
       250           N   tau( 250) = (  0.2666666  0.7333334  0.4586126  )
       251           N   tau( 251) = (  0.2666666  0.7333334  0.7919459  )
       252           N   tau( 252) = (  0.2666666  0.9333334  0.1252792  )
       253           N   tau( 253) = (  0.2666666  0.9333334  0.4586126  )
       254           N   tau( 254) = (  0.2666666  0.9333334  0.7919459  )
       255           N   tau( 255) = (  0.4666666  0.1333334  0.1252792  )
       256           N   tau( 256) = (  0.4666666  0.1333334  0.4586126  )
       257           N   tau( 257) = (  0.4666666  0.1333334  0.7919459  )
       258           N   tau( 258) = (  0.4666666  0.3333334  0.1252792  )
       259           N   tau( 259) = (  0.4666666  0.3333334  0.4586126  )
       260           N   tau( 260) = (  0.4666666  0.3333334  0.7919459  )
       261           N   tau( 261) = (  0.4666666  0.5333334  0.1252792  )
       262           N   tau( 262) = (  0.4666666  0.5333334  0.4586126  )
       263           N   tau( 263) = (  0.4666666  0.5333334  0.7919459  )
       264           N   tau( 264) = (  0.4666666  0.7333334  0.1252792  )
       265           N   tau( 265) = (  0.4666666  0.7333334  0.4586126  )
       266           N   tau( 266) = (  0.4666666  0.7333334  0.7919459  )
       267           N   tau( 267) = (  0.4666666  0.9333334  0.1252792  )
       268           N   tau( 268) = (  0.4666666  0.9333334  0.4586126  )
       269           N   tau( 269) = (  0.4666666  0.9333334  0.7919459  )
       270           N   tau( 270) = (  0.6666666  0.1333334  0.1252792  )
       271           N   tau( 271) = (  0.6666666  0.1333334  0.4586126  )
       272           N   tau( 272) = (  0.6666666  0.1333334  0.7919459  )
       273           N   tau( 273) = (  0.6666666  0.3333334  0.1252792  )
       274           N   tau( 274) = (  0.6666666  0.3333334  0.4586126  )
       275           N   tau( 275) = (  0.6666666  0.3333334  0.7919459  )
       276           N   tau( 276) = (  0.6666666  0.5333334  0.1252792  )
       277           N   tau( 277) = (  0.6666666  0.5333334  0.4586126  )
       278           N   tau( 278) = (  0.6666666  0.5333334  0.7919459  )
       279           N   tau( 279) = (  0.6666666  0.7333334  0.1252792  )
       280           N   tau( 280) = (  0.6666666  0.7333334  0.4586126  )
       281           N   tau( 281) = (  0.6666666  0.7333334  0.7919459  )
       282           N   tau( 282) = (  0.6666666  0.9333334  0.1252792  )
       283           N   tau( 283) = (  0.6666666  0.9333334  0.4586126  )
       284           N   tau( 284) = (  0.6666666  0.9333334  0.7919459  )
       285           N   tau( 285) = (  0.8666666  0.1333334  0.1252792  )
       286           N   tau( 286) = (  0.8666666  0.1333334  0.4586126  )
       287           N   tau( 287) = (  0.8666666  0.1333334  0.7919459  )
       288           N   tau( 288) = (  0.8666666  0.3333334  0.1252792  )
       289           N   tau( 289) = (  0.8666666  0.3333334  0.4586126  )
       290           N   tau( 290) = (  0.8666666  0.3333334  0.7919459  )
       291           N   tau( 291) = (  0.8666666  0.5333334  0.1252792  )
       292           N   tau( 292) = (  0.8666666  0.5333334  0.4586126  )
       293           N   tau( 293) = (  0.8666666  0.5333334  0.7919459  )
       294           N   tau( 294) = (  0.8666666  0.7333334  0.1252792  )
       295           N   tau( 295) = (  0.8666666  0.7333334  0.4586126  )
       296           N   tau( 296) = (  0.8666666  0.7333334  0.7919459  )
       297           N   tau( 297) = (  0.8666666  0.9333334  0.1252792  )
       298           N   tau( 298) = (  0.8666666  0.9333334  0.4586126  )
       299           N   tau( 299) = (  0.8666666  0.9333334  0.7919459  )
       300           Ga  tau( 300) = (  0.1333334  0.0666666  0.2919459  )

     number of k points=     6  Gaussian smearing, width (Ry)=  0.0100
                       cart. coord. in units 2pi/alat
        k(    1) = (   0.0000000   0.0000000   0.0000000), wk =   0.2500000
        k(    2) = (   0.0000000   0.0000000  -0.5112854), wk =   0.2500000
        k(    3) = (   0.0000000  -0.5773503   0.0000000), wk =   0.5000000
        k(    4) = (   0.0000000  -0.5773503  -0.5112854), wk =   0.5000000
        k(    5) = (  -0.5000000  -0.2886751   0.0000000), wk =   0.2500000
        k(    6) = (  -0.5000000  -0.2886751  -0.5112854), wk =   0.2500000

                       cryst. coord.
        k(    1) = (   0.0000000   0.0000000   0.0000000), wk =   0.2500000
        k(    2) = (   0.0000000   0.0000000  -0.5000000), wk =   0.2500000
        k(    3) = (   0.0000000  -0.5000000   0.0000000), wk =   0.5000000
        k(    4) = (   0.0000000  -0.5000000  -0.5000000), wk =   0.5000000
        k(    5) = (  -0.5000000  -0.0000000   0.0000000), wk =   0.2500000
        k(    6) = (  -0.5000000  -0.0000000  -0.5000000), wk =   0.2500000

     Dense  grid:  2698283 G-vectors     FFT dimensions: ( 192, 192, 180)

     Smooth grid:  1930731 G-vectors     FFT dimensions: ( 180, 180, 160)

     Dynamical RAM for                 wfc:      93.42 MB

     Dynamical RAM for     wfc (w. buffer):     280.26 MB

     Dynamical RAM for           str. fact:       1.29 MB

     Dynamical RAM for           local pot:       0.00 MB

     Dynamical RAM for          nlocal pot:     224.93 MB

     Dynamical RAM for                qrad:       3.00 MB

     Dynamical RAM for          rho,v,vnew:       4.46 MB

     Dynamical RAM for               rhoin:       1.49 MB

     Dynamical RAM for            rho*nmix:      10.29 MB

     Dynamical RAM for           G-vectors:       2.64 MB

     Dynamical RAM for          h,s,v(r/c):    1931.67 MB

     Dynamical RAM for          <psi|beta>:      96.89 MB

     Dynamical RAM for                 psi:     373.69 MB

     Dynamical RAM for                hpsi:     373.69 MB

     Dynamical RAM for                spsi:     373.69 MB

     Dynamical RAM for      wfcinit/wfcrot:     247.22 MB

     Dynamical RAM for           addusdens:      54.68 MB

     Dynamical RAM for          addusforce:     103.36 MB

     Dynamical RAM for         addusstress:      32.57 MB

     Estimated static dynamical RAM per process >     524.22 MB

     Estimated max dynamical RAM per process >       3.60 GB

     Estimated total dynamical RAM >     919.10 GB

     Atomic positions and unit cell read from directory:
     ./GaN.save/
     Atomic positions from file used, from input discarded
 

     Check: negative core charge=   -0.000003

     The initial density is read from file :
     ./GaN.save/charge-density



     %%%%%%%%%%%%%%%%%%%%%%%%%%%%%%%%%%%%%%%%%%%%%%%%%%%%%%%%%%%%%%%%%%%%%%%%
     %                                                                      %
     % You are using vdW-DF, which was implemented by the Thonhauser group. %
     % Please cite the following two papers that made this development      %
     % possible and the two reviews that describe the various versions:     %
     %                                                                      %
     %   T. Thonhauser et al., PRL 115, 136402 (2015).                      %
     %   T. Thonhauser et al., PRB 76, 125112 (2007).                       %
     %   K. Berland et al., Rep. Prog. Phys. 78, 066501 (2015).             %
     %   D.C. Langreth et al., J. Phys.: Condens. Matter 21, 084203 (2009). %
     %                                                                      %
     % If you are calculating stress with vdW-DF, please also cite:         %
     %                                                                      %
     %   R. Sabatini et al., J. Phys.: Condens. Matter 24, 424209 (2012).   %
     %                                                                      %
     %%%%%%%%%%%%%%%%%%%%%%%%%%%%%%%%%%%%%%%%%%%%%%%%%%%%%%%%%%%%%%%%%%%%%%%%

     %%%%%%%%%%%%%%%%%%%%%%%%%%%%%%%%%%%%%%%%%%%%%%%%%%%%%%%%%%%%%%%%%%%%%%%%
     %                                                                      %
     %  vdW-DF NEWS:                                                        %
     %                                                                      %
     %  * vdW-DF3 is now available. DOI: 10.1021/acs.jctc.0c00471           %
     %    use with input_dft = 'vdW-DF3-opt1' or 'vdW-DF3-opt2'             %
     %                                                                      %
     %  * Unscreened and range-separated vdW-DF hybrid functionals          %
     %    DOI: 10.1063/1.4986522 and 10.1088/1361-648X/ac2ad2               %
     %    use with input_dft = 'vdW-DF-cx0' (etc) and 'vdW-DF-ahcx'         %
     %                                                                      %
     %%%%%%%%%%%%%%%%%%%%%%%%%%%%%%%%%%%%%%%%%%%%%%%%%%%%%%%%%%%%%%%%%%%%%%%%


     Carrying out vdW-DF run using the following parameters:
     Nqs    =  20  Npoints =  1024  r_max =  100.000
     q_mesh =  0.00001000  0.04494208  0.09755937  0.15916263
               0.23128650  0.31572767  0.41458969  0.53033537
               0.66584808  0.82450364  1.01025438  1.22772762
               1.48234092  1.78043706  2.12944203  2.53805004
               3.01644009  3.57652955  4.23227104  5.00000000


     -----------------------------------------------
     Non-local corr. energy    =      82.13474018 Ry
     -----------------------------------------------

     Starting wfcs from file
     Checking if some PAW data can be deallocated... 
       PAW data deallocated on  149 nodes for type:  1
       PAW data deallocated on  107 nodes for type:  2
     Calculation restarted from scf iteration #     5

     total cpu time spent up to now is        9.7 secs

     Self-consistent Calculation

     iteration #  5     ecut=    70.00 Ry     beta= 0.70
     Davidson diagonalization with overlap

---- Real-time Memory Report at c_bands before calling an iterative solver
           307 MiB given to the printing process from OS
             0 MiB allocation reported by mallinfo(arena+hblkhd)
       1795615 MiB available memory on the node where the printing process lives
------------------
     ethr =  1.24E-08,  avg # of iterations =  3.0


     -----------------------------------------------
     Non-local corr. energy    =      82.13477720 Ry
     -----------------------------------------------


     total cpu time spent up to now is      461.2 secs

     total energy              =  -47099.67603527 Ry
     estimated scf accuracy    <       0.00021104 Ry

     iteration #  6     ecut=    70.00 Ry     beta= 0.70
     Davidson diagonalization with overlap

---- Real-time Memory Report at c_bands before calling an iterative solver
          2351 MiB given to the printing process from OS
             0 MiB allocation reported by mallinfo(arena+hblkhd)
       1728678 MiB available memory on the node where the printing process lives
------------------
     ethr =  7.80E-09,  avg # of iterations =  2.2


     -----------------------------------------------
     Non-local corr. energy    =      82.13481608 Ry
     -----------------------------------------------


     total cpu time spent up to now is      813.3 secs

     total energy              =  -47099.67606190 Ry
     estimated scf accuracy    <       0.00009864 Ry

     iteration #  7     ecut=    70.00 Ry     beta= 0.70
     Davidson diagonalization with overlap

---- Real-time Memory Report at c_bands before calling an iterative solver
          2383 MiB given to the printing process from OS
             0 MiB allocation reported by mallinfo(arena+hblkhd)
       1708016 MiB available memory on the node where the printing process lives
------------------
     ethr =  3.65E-09,  avg # of iterations =  5.0


     -----------------------------------------------
     Non-local corr. energy    =      82.13482305 Ry
     -----------------------------------------------


     total cpu time spent up to now is     1322.9 secs

     total energy              =  -47099.67606721 Ry
     estimated scf accuracy    <       0.00001424 Ry

     iteration #  8     ecut=    70.00 Ry     beta= 0.70
     Davidson diagonalization with overlap

---- Real-time Memory Report at c_bands before calling an iterative solver
          2385 MiB given to the printing process from OS
             0 MiB allocation reported by mallinfo(arena+hblkhd)
       1707977 MiB available memory on the node where the printing process lives
------------------
     c_bands:  2 eigenvalues not converged
     ethr =  5.27E-10,  avg # of iterations = 15.3


     -----------------------------------------------
     Non-local corr. energy    =      82.13482687 Ry
     -----------------------------------------------


     total cpu time spent up to now is     3483.6 secs

     total energy              =  -47099.67606915 Ry
     estimated scf accuracy    <       0.00000231 Ry

     iteration #  9     ecut=    70.00 Ry     beta= 0.70
     Davidson diagonalization with overlap

---- Real-time Memory Report at c_bands before calling an iterative solver
          2694 MiB given to the printing process from OS
             0 MiB allocation reported by mallinfo(arena+hblkhd)
       1707393 MiB available memory on the node where the printing process lives
------------------
     c_bands:  1 eigenvalues not converged
     ethr =  8.52E-11,  avg # of iterations = 14.5


     -----------------------------------------------
     Non-local corr. energy    =      82.13485720 Ry
     -----------------------------------------------


     total cpu time spent up to now is     6464.1 secs

     End of self-consistent calculation

          k = 0.0000 0.0000 0.0000 (241213 PWs)   bands (ev):

    -7.0873  -7.0145  -7.0122  -6.9061  -6.9050  -6.9042  -6.8421  -6.8419
    -6.8308  -6.8298  -6.8220  -6.8124  -6.7808  -6.7709  -6.7707  -6.7215
    -6.6442  -6.6423  -6.6021  -6.5682  -6.5682  -6.5647  -6.5604  -6.5600
    -6.5278  -6.4812  -6.4810  -6.4810  -6.4658  -6.4579  -6.4577  -6.4476
    -6.4474  -6.4381  -6.4265  -6.4262  -6.4239  -6.4239  -6.4180  -6.4156
    -6.4083  -6.4041  -6.4023  -6.3893  -6.3882  -6.3829  -6.3818  -6.3784
    -6.3752  -6.3748  -6.3682  -6.3633  -6.3632  -6.3625  -6.3565  -6.3565
    -6.3549  -6.3482  -6.3449  -6.3442  -6.3422  -6.3408  -6.3399  -6.3365
    -6.3315  -6.3256  -6.3249  -6.3235  -6.3184  -6.3170  -6.3167  -6.3054
    -6.3040  -6.3035  -6.2993  -6.2989  -6.2892  -6.2887  -6.2841  -6.2785
    -6.2780  -6.2694  -6.2686  -6.2685  -6.2650  -6.2632  -6.2630  -6.2588
    -6.2587  -6.2575  -6.2562  -6.2511  -6.2507  -6.2485  -6.2422  -6.2421
    -6.2385  -6.2370  -6.2365  -6.2356  -6.2350  -6.2342  -6.2338  -6.2336
    -6.2333  -6.2302  -6.2286  -6.2280  -6.2277  -6.2203  -6.2190  -6.2185
    -6.2164  -6.2164  -6.2126  -6.2121  -6.2120  -6.2115  -6.2066  -6.2061
    -6.2023  -6.2016  -6.2016  -6.1963  -6.1962  -6.1956  -6.1951  -6.1876
    -6.1874  -6.1869  -6.1864  -6.1864  -6.1831  -6.1817  -6.1799  -6.1777
    -6.1775  -6.1680  -6.1656  -6.1646  -6.1624  -6.1582  -6.1572  -6.1534
    -6.1525  -6.1474  -6.1469  -6.1465  -6.1449  -6.1441  -6.1421  -6.1381
    -6.1376  -6.1266  -6.1111  -6.1103  -6.1053  -6.0872  -6.0846  -6.0804
    -6.0159  -5.9550  -5.9528  -5.7546  -5.7531  -5.7270  -5.7065  -5.7000
    -5.6987  -5.6960  -5.6955  -5.6495  -5.5141  -5.5139  -5.4711  -5.4710
    -5.4166  -5.4162  -5.3935  -5.3732  -5.3731  -5.3712  -5.3565  -5.3564
    -5.3491  -5.3414  -5.3410  -5.3338  -5.3305  -5.3304  -5.3289  -5.3202
    -5.3199  -5.3197  -5.3178  -5.3178  -5.3146  -5.3126  -5.3119  -5.3116
    -5.3096  -5.3040  -5.3010  -5.3008  -5.2943  -5.2939  -5.2890  -5.2885
    -5.2840  -5.2828  -5.2770  -5.2767  -5.2747  -5.2741  -5.2736  -5.2700
    -5.2698  -5.2688  -5.2680  -5.2650  -5.2614  -5.2603  -5.2589  -5.2561
    -5.2548  -5.2547  -5.2520  -5.2517  -5.2432  -5.2428  -5.2421  -5.2368
    -5.2368  -5.2351  -5.2350  -5.2263  -5.2258  -5.2253  -5.2249  -5.2243
    -5.2238  -5.2214  -5.2213  -5.2202  -5.2132  -5.2111  -5.2104  -5.2102
    -5.2089  -5.2088  -5.2055  -5.1994  -5.1994  -5.1929  -5.1929  -5.1900
    -5.1899  -5.1897  -5.1869  -5.1855  -5.1853  -5.1841  -5.1798  -5.1795
    -5.1778  -5.1767  -5.1767  -5.1750  -5.1736  -5.1727  -5.1722  -5.1668
    -5.1599  -5.1598  -5.1569  -5.1569  -5.1539  -5.1533  -5.1532  -5.1452
    -5.1452  -5.1448  -5.1351  -5.1349  -5.1342  -5.1339  -5.1331  -5.1331
    -5.1305  -5.1301  -5.1292  -5.1292  -5.1252  -5.1251  -5.1207  -5.1197
    -5.1196  -5.1150  -5.1126  -5.1125  -5.1122  -5.1107  -5.1078  -5.1077
    -5.1063  -5.1062  -5.1052  -5.1035  -5.1035  -5.1014  -5.1013  -5.1004
    -5.0996  -5.0995  -5.0990  -5.0984  -5.0982  -5.0960  -5.0960  -5.0954
    -5.0920  -5.0919  -5.0913  -5.0897  -5.0896  -5.0892  -5.0891  -5.0891
    -5.0839  -5.0832  -5.0831  -5.0814  -5.0811  -5.0810  -5.0802  -5.0800
    -5.0799  -5.0792  -5.0776  -5.0776  -5.0761  -5.0738  -5.0738  -5.0725
    -5.0724  -5.0721  -5.0720  -5.0712  -5.0711  -5.0705  -5.0692  -5.0692
    -5.0689  -5.0681  -5.0667  -5.0666  -5.0661  -5.0654  -5.0653  -5.0640
    -5.0638  -5.0638  -5.0636  -5.0619  -5.0619  -5.0603  -5.0603  -5.0601
    -5.0576  -5.0575  -5.0565  -5.0561  -5.0559  -5.0559  -5.0539  -5.0538
    -5.0528  -5.0522  -5.0522  -5.0514  -5.0503  -5.0502  -5.0501  -5.0476
    -5.0476  -5.0462  -5.0461  -5.0448  -5.0446  -5.0444  -5.0443  -5.0441
    -5.0431  -5.0417  -5.0417  -5.0414  -5.0414  -5.0396  -5.0388  -5.0388
    -5.0387  -5.0381  -5.0381  -5.0369  -5.0356  -5.0356  -5.0354  -5.0353
    -5.0346  -5.0335  -5.0318  -5.0318  -5.0300  -5.0299  -5.0296  -5.0288
    -5.0288  -5.0287  -5.0280  -5.0255  -5.0255  -5.0252  -5.0252  -5.0249
    -5.0242  -5.0237  -5.0231  -5.0231  -5.0219  -5.0219  -5.0211  -5.0199
    -5.0199  -5.0194  -5.0193  -5.0193  -5.0184  -5.0171  -5.0166  -5.0166
    -5.0156  -5.0150  -5.0150  -5.0141  -5.0139  -5.0138  -5.0117  -5.0111
    -5.0108  -5.0108  -5.0093  -5.0084  -5.0084  -5.0066  -5.0066  -5.0065
    -5.0060  -5.0051  -5.0051  -5.0027  -5.0026  -5.0025  -5.0020  -5.0018
    -5.0010  -4.9998  -4.9998  -4.9995  -4.9973  -4.9968  -4.9968  -4.9953
    -4.9953  -4.9940  -4.9939  -4.9939  -4.9917  -4.9917  -4.9913  -4.9913
    -4.9912  -4.9896  -4.9884  -4.9884  -4.9878  -4.9877  -4.9873  -4.9873
    -4.9850  -4.9849  -4.9848  -4.9838  -4.9834  -4.9834  -4.9826  -4.9813
    -4.9812  -4.9805  -4.9796  -4.9796  -4.9788  -4.9788  -4.9784  -4.9758
    -4.9756  -4.9756  -4.9741  -4.9741  -4.9727  -4.9726  -4.9719  -4.9715
    -4.9714  -4.9714  -4.9700  -4.9686  -4.9686  -4.9675  -4.9667  -4.9666
    -4.9666  -4.9664  -4.9659  -4.9658  -4.9651  -4.9650  -4.9633  -4.9626
    -4.9626  -4.9621  -4.9621  -4.9618  -4.9617  -4.9609  -4.9608  -4.9608
    -4.9563  -4.9552  -4.9551  -4.9547  -4.9544  -4.9543  -4.9531  -4.9530
    -4.9523  -4.9523  -4.9504  -4.9504  -4.9503  -4.9497  -4.9496  -4.9495
    -4.9485  -4.9469  -4.9465  -4.9463  -4.9436  -4.9430  -4.9421  -4.9421
    -4.9417  -4.9416  -4.9414  -4.9402  -4.9392  -4.9391  -4.9381  -4.9378
    -4.9378  -4.9377  -4.9366  -4.9365  -4.9355  -4.9353  -4.9351  -4.9346
    -4.9346  -4.9335  -4.9334  -4.9332  -4.9329  -4.9328  -4.9318  -4.9317
    -4.9304  -4.9297  -4.9297  -4.9297  -4.9286  -4.9286  -4.9268  -4.9268
    -4.9234  -4.9233  -4.9233  -4.9223  -4.9220  -4.9220  -4.9209  -4.9206
    -4.9205  -4.9204  -4.9196  -4.9196  -4.9190  -4.9171  -4.9171  -4.9170
    -4.9164  -4.9164  -4.9163  -4.9154  -4.9154  -4.9135  -4.9132  -4.9132
    -4.9127  -4.9117  -4.9110  -4.9101  -4.9100  -4.9087  -4.9085  -4.9085
    -4.9070  -4.9069  -4.9064  -4.9037  -4.9037  -4.9037  -4.9018  -4.9018
    -4.9005  -4.9005  -4.8990  -4.8963  -4.8960  -4.8959  -4.8955  -4.8952
    -4.8952  -4.8940  -4.8936  -4.8936  -4.8935  -4.8924  -4.8924  -4.8917
    -4.8916  -4.8916  -4.8900  -4.8899  -4.8898  -4.8884  -4.8884  -4.8884
    -4.8854  -4.8853  -4.8847  -4.8838  -4.8837  -4.8815  -4.8814  -4.8811
    -4.8808  -4.8808  -4.8798  -4.8776  -4.8776  -4.8770  -4.8753  -4.8753
    -4.8738  -4.8737  -4.8727  -4.8726  -4.8723  -4.8689  -4.8689  -4.8678
    -4.8677  -4.8667  -4.8652  -4.8640  -4.8640  -4.8637  -4.8637  -4.8628
    -4.8626  -4.8616  -4.8604  -4.8603  -4.8599  -4.8587  -4.8585  -4.8578
    -4.8577  -4.8553  -4.8552  -4.8544  -4.8535  -4.8529  -4.8529  -4.8529
    -4.8515  -4.8514  -4.8504  -4.8504  -4.8488  -4.8487  -4.8473  -4.8454
    -4.8432  -4.8432  -4.8414  -4.8398  -4.8397  -4.8375  -4.8375  -4.8368
    -4.8368  -4.8357  -4.8327  -4.8324  -4.8310  -4.8309  -4.8298  -4.8297
    -4.8294  -4.8272  -4.8253  -4.8253  -4.8229  -4.8228  -4.8208  -4.8205
    -4.8200  -4.8192  -4.8191  -4.8180  -4.8179  -4.8169  -4.8169  -4.8118
    -4.8115  -4.8115  -4.8110  -4.8092  -4.8087  -4.8075  -4.8075  -4.8030
    -4.8030  -4.8021  -4.8016  -4.8016  -4.7962  -4.7962  -4.7867  -4.7867
    -4.7854  -4.7792  -4.7790  -4.7790  -4.7515  -4.7242  -4.7240  -4.7198
    -4.7197  -4.6896  -4.6607  -4.6607  -4.6536  -4.6535  -4.6284  -4.6262
    -4.3354  -4.3277  -4.3273  -4.3034  -4.2942  -4.2942  -4.2215  -4.1936
    -4.0841  -4.0836  -4.0581  -4.0580  -4.0432  -4.0431  -4.0355  -4.0258
    -4.0016  -4.0006  -3.9983  -3.9981  -3.9947  -3.9943  -3.9650  -3.9579
    -3.9577  -3.9403  -3.9256  -3.9254  -3.9046  -3.9024  -3.9024  -3.8588
    -3.8587  -3.8304  -3.8303  -3.8195  -3.8078  -3.7970  -3.7659  -3.7655
    -3.7601  -3.7596  -3.7532  -3.7012  -3.6985  -3.6981  -3.6979  -3.6972
    -3.6970  -3.6486  -3.5531  -3.4978  -3.4970  -3.4641  -3.3948  -3.3947
    -3.3865  -3.3863  -3.3537  -3.3537  -3.3534  -3.3349  -3.3309  -3.3137
    -3.3135  -3.3088  -3.2772  -3.2771  -3.2371  -3.2370  -3.2363  -3.2361
    -3.2355  -3.2263  -3.2204  -3.2047  -3.2039  -3.2038  -3.1946  -3.1941
    -3.1939  -3.1917  -3.1810  -3.1810  -3.1767  -3.1707  -3.1621  -3.1621
    -3.1537  -3.1534  -3.1474  -3.1473  -3.1323  -3.1290  -3.1288  -3.1284
    -3.1284  -3.0969  -3.0354  -3.0351  -3.0225  -3.0115  -2.9661  -2.9660
    -2.9647  -2.9586  -2.9586  -2.9563  -2.9243  -2.9243  -2.9175  -2.9005
    -2.9002  -2.8685  -2.8446  -2.8443  -2.8239  -2.8237  -2.8177  -2.7885
    -2.7853  -2.7851  -2.7823  -2.7788  -2.7787  -2.7557  -2.7545  -2.7544
     1.1997   2.0555   2.2956   2.4081   2.4097   2.4263   2.5660   2.5660
     2.5893   2.5896   2.5943   2.6153   2.6160   2.6357   2.6697   2.6713
     2.6713   2.6936   2.7031   2.7032   2.7116   2.7162   2.7165   2.7309
     2.7311   2.7334   2.7348   2.7519   2.7554   2.7559   2.7641   2.7645
     2.8347   2.8351   2.8411   2.9093   2.9102   2.9105   2.9806   2.9806
     2.9827   3.0007   3.0164   3.0241   3.0246   3.0340   3.0347   3.0493
     3.0588   3.0591   3.0631   3.0631   3.0967   3.0968   3.1144   3.1144
     3.1555   3.1556   3.1767   3.1909   3.1912   3.2450   3.2993   3.3011
     3.3012   3.3113   3.3114   3.3145   3.3241   3.3242   3.3288   3.3360
     3.3362   3.3399   3.3399   3.3479   3.3480   3.3566   3.3568   3.3702
     3.3921   3.3927   3.4023   3.4026   3.4030   3.4560   3.6167   3.6208
     3.7069   3.7071   3.7476   3.7478   3.7505   3.7540   3.7691   3.7692
     3.7833   3.8024   3.8026   3.8141   3.8142   3.8189   3.8189   3.8430
     3.8537   3.8935   3.9854   3.9855   4.0124   4.0227   4.0230   4.0304
     4.0393   4.0400   4.0512   4.0554   4.0555   4.0631   4.0696   4.0699
     4.0726   4.0810   4.0811   4.4092   4.5379   4.5382   4.5785   4.5789
     4.6010   4.6163   4.6168   4.6360   4.6373   4.6614   4.6652   4.6748
     4.6756   4.7080   4.7236   4.7239   4.7253   4.7522   4.7696   4.7792
     4.7793   4.8038   4.8040   4.8475   4.9587   4.9593   5.0492   5.0492
     5.0548   5.1009   5.1030   5.1069   5.1069   5.1111   5.1111   5.1298
     5.4377   5.4461   5.4590   5.4593   5.5050   5.5051   5.5294   5.5295
     5.5686   5.5686   5.5716   5.5717   5.5761   5.5848   5.5848   5.5965
     5.6154   5.6556   5.6797   5.6805   5.7506   5.7509   5.7661   5.8212
     5.8242   5.8252   5.8313   5.8667   5.8668   5.8794   5.9141   5.9142
     5.9404   5.9408   5.9649   5.9651   5.9755   5.9756   5.9841   5.9981
     5.9981   6.0121   6.0198   6.0337   6.0347   6.0449   6.0451   6.0471
     6.0621   6.0624   6.0624   6.0706   6.0757   6.0759   6.0819   6.0820
     6.0923   6.0927   6.0946   6.0948   6.0967   6.1033   6.1034   6.1075
     6.1103   6.1105   6.1161   6.1183   6.1391   6.1395   6.1398   6.1431
     6.1629   6.1630   6.1719   6.2042   6.2045   6.2209   6.3234   6.3237
     6.3463   6.3872   6.3873   6.3915   6.3935   6.4042   6.4048   6.4124
     6.4241   6.4243   6.4410   6.4410   6.4449   6.4627   6.4628   6.4704
     6.4823   6.5155   6.5156   6.5246   6.5422   6.5675   6.5677   6.6048
     6.6050   6.6175   6.6197   6.6490   6.6491   6.6561   6.6588   6.6589
     6.6805   6.6834   6.6839   6.7141   6.7318   6.7319   6.7362   6.7449
     6.7450   6.7459   6.7538   6.7565   6.7565   6.7622   6.7628   6.7728
     6.7729   6.7746   6.7779   6.7785   6.8122   6.8181   6.8349   6.8351
     6.8452   6.8586   6.8587   6.8855   6.9049   6.9251   6.9251   6.9271
     6.9305   6.9305   6.9560   6.9562   6.9682   7.0116   7.0117   7.0355
     7.1051   7.1191   7.1192   7.1726   7.1730   7.1960   7.2043   7.2046
     7.2308   7.2467   7.2784   7.2785   7.3045   7.3106   7.3208   7.3211
     7.3410   7.3418   7.3642   7.3876   7.3880   7.3997   7.3999   7.4179
     7.4266   7.4405   7.4406   7.4473   7.4474   7.4535   7.4712   7.4760
     7.4761   7.4774   7.4775   7.4778   7.4836   7.4837   7.4877   7.4885
     7.4887   7.4972   7.4983   7.4984   7.5031   7.5079   7.5081   7.5100
     7.5120   7.5121   7.5132   7.5272   7.5278   7.5349   7.5381   7.5388
     7.5395   7.5476   7.5485   7.5572   7.5601   7.5659   7.5674   7.5676
     7.5936   7.5937   7.6028   7.6119   7.6120   7.6600   7.6676   7.6677
     7.7102   7.7104   7.7171   7.7239   7.7338   7.7339   7.7499   7.7500
     7.7553   7.7730   7.7733   7.7878   7.7966   7.7980   7.7981   7.8220
     7.8220   7.8296   7.8297   7.8314   7.8315   7.8535   7.8593   7.9027
     7.9037   7.9537   8.0051   8.0112   8.0117   8.0138   8.0140   8.0698
     8.0876   8.0877   8.1077   8.1078   8.1316   8.1465   8.1469   8.1599
     8.1599   8.1839   8.1950   8.1951   8.2105   8.2153   8.3775   8.3777
     8.4405   8.4407   8.4432   8.4433   8.4781   8.4871   8.5419   8.5421
     8.5631   8.5668   8.5670   8.6035   8.6036   8.7999   8.8593   8.8594
     9.6462   9.9220   9.9230  10.3654  11.9875  12.0932  12.1813  12.1999
    12.2017  12.3162  12.3162  12.3530  12.5519  12.7036  12.7057  12.7124
    12.8497  12.9086  12.9152  12.9161  12.9700  12.9753  12.9758  12.9877
    12.9881  13.0048  13.0280  13.0284  13.0291  13.0654  13.0657  13.0771
    13.1057  13.1058  13.1117  13.1119  13.1310  13.1399  13.2613  13.5207
    13.5225  13.5647  13.7125  13.7142  13.7323  13.7775  13.7778  13.7996
    13.8059  13.8622  13.8628  13.8741  13.8748  13.8857  13.9109  13.9151
    13.9156  13.9180  13.9530  13.9533  13.9691  13.9693  13.9793  13.9800
    13.9886  13.9990  14.0106  14.0113  14.0328  14.0483  14.0616  14.0740
    14.0742  14.0831  14.0874  14.0876  14.1112  14.1112  14.1225  14.1231
    14.1273  14.1368  14.1369  14.1429  14.1434  14.1481  14.1484  14.1613
    14.2012  14.2015  14.2026  14.2027  14.2183  14.2256  14.2508  14.2510
    14.2724  14.2725  14.2756  14.2802  14.2804  14.3028  14.3187  14.3188
    14.3265  14.3265  14.3544  14.3779  14.3780  14.3999  14.5201  14.5203
    14.5800  14.5852  14.5980  14.5983  14.8216  14.8216  14.8327  14.9464
    14.9509  14.9511  14.9607  14.9874  14.9876  14.9913  15.0131  15.0137
    15.0756  15.0943  15.1059  15.1063  15.1103  15.1439  15.1449  15.1556
    15.1626  15.1631  15.1699  15.1708  15.1709  15.2071  15.2071  15.2229
    15.2238  15.2260  15.2643  15.2994  15.2996  15.3009  15.3012  15.3253
    15.4131  15.4464  15.4469  15.4802  15.4898  15.4902  15.5446  15.6108
    15.7456  15.7460  15.7511  15.7519  15.7830  15.7838  15.8507  15.8509
    15.8912  15.8925  15.8931  15.9113  15.9259  15.9680  15.9681  15.9980
    15.9983  16.0215  16.0218  16.0552  16.0552  16.0629  16.0766  16.1048
    16.1050  16.1131  16.1541  16.1578  16.1582  16.1767  16.1767  16.1772
    16.1823  16.2044  16.2063  16.2063  16.2105  16.2115  16.2121  16.2186
    16.2187  16.2229  16.2310  16.2315  16.2364  16.2369  16.2438  16.2586
    16.2589  16.2629  16.2718  16.2721  16.2749  16.2751  16.2799  16.2819
    16.3016  16.3019  16.3243  16.3245  16.3329  16.3373  16.3578  16.3923
    16.3924  16.4109  16.4299  16.4303  16.4340  16.4438  16.4439  16.4586
    16.4620  16.4621  16.4731  16.4732  16.4812  16.4816  16.4835  16.4836
    16.4940  16.4944  16.4974  16.5021  16.5034  16.5035  16.5172  16.5175
    16.5196  16.5196  16.5226  16.5226  16.5409  16.5623  16.5623  16.5659
    16.5661  16.5698  16.5705  16.5781  16.5924  16.6051  16.6056  16.6333
    16.6835  16.6915  16.6919  16.7430  16.7434  16.7494  16.7558  16.7560

     occupation numbers 
     1.0000   1.0000   1.0000   1.0000   1.0000   1.0000   1.0000   1.0000
     1.0000   1.0000   1.0000   1.0000   1.0000   1.0000   1.0000   1.0000
     1.0000   1.0000   1.0000   1.0000   1.0000   1.0000   1.0000   1.0000
     1.0000   1.0000   1.0000   1.0000   1.0000   1.0000   1.0000   1.0000
     1.0000   1.0000   1.0000   1.0000   1.0000   1.0000   1.0000   1.0000
     1.0000   1.0000   1.0000   1.0000   1.0000   1.0000   1.0000   1.0000
     1.0000   1.0000   1.0000   1.0000   1.0000   1.0000   1.0000   1.0000
     1.0000   1.0000   1.0000   1.0000   1.0000   1.0000   1.0000   1.0000
     1.0000   1.0000   1.0000   1.0000   1.0000   1.0000   1.0000   1.0000
     1.0000   1.0000   1.0000   1.0000   1.0000   1.0000   1.0000   1.0000
     1.0000   1.0000   1.0000   1.0000   1.0000   1.0000   1.0000   1.0000
     1.0000   1.0000   1.0000   1.0000   1.0000   1.0000   1.0000   1.0000
     1.0000   1.0000   1.0000   1.0000   1.0000   1.0000   1.0000   1.0000
     1.0000   1.0000   1.0000   1.0000   1.0000   1.0000   1.0000   1.0000
     1.0000   1.0000   1.0000   1.0000   1.0000   1.0000   1.0000   1.0000
     1.0000   1.0000   1.0000   1.0000   1.0000   1.0000   1.0000   1.0000
     1.0000   1.0000   1.0000   1.0000   1.0000   1.0000   1.0000   1.0000
     1.0000   1.0000   1.0000   1.0000   1.0000   1.0000   1.0000   1.0000
     1.0000   1.0000   1.0000   1.0000   1.0000   1.0000   1.0000   1.0000
     1.0000   1.0000   1.0000   1.0000   1.0000   1.0000   1.0000   1.0000
     1.0000   1.0000   1.0000   1.0000   1.0000   1.0000   1.0000   1.0000
     1.0000   1.0000   1.0000   1.0000   1.0000   1.0000   1.0000   1.0000
     1.0000   1.0000   1.0000   1.0000   1.0000   1.0000   1.0000   1.0000
     1.0000   1.0000   1.0000   1.0000   1.0000   1.0000   1.0000   1.0000
     1.0000   1.0000   1.0000   1.0000   1.0000   1.0000   1.0000   1.0000
     1.0000   1.0000   1.0000   1.0000   1.0000   1.0000   1.0000   1.0000
     1.0000   1.0000   1.0000   1.0000   1.0000   1.0000   1.0000   1.0000
     1.0000   1.0000   1.0000   1.0000   1.0000   1.0000   1.0000   1.0000
[...]
Ga           14.5843420448        0.9363852036        2.6032177549
Ga           14.5482528863        0.9108546118        7.9957343642
Ga           14.5814486136        0.9309671251       13.1939100085
Ga           12.9711472739        3.7511484126        2.6261934794
Ga           12.9683524083        3.7528873520        7.9435458687
Ga           12.9706268007        3.7515109054       13.2184149901
Ga           11.3556931824        6.5562110449        2.6308093118
Ga           11.3549929668        6.5558067753        7.9342484583
Ga           11.3554439549        6.5560671534       13.2150227816
Ga            9.7341647295        9.3577666430        2.6261934794
Ga            9.7342732623        9.3544767487        7.9435458687
Ga            9.7342184209        9.3571346536       13.2184149901
Ga            8.1031056702       12.1622159004        2.6032177549
Ga            8.0629509500       12.1437270682        7.9957343642
Ga            8.0969667610       12.1624191547       13.1939100085
Ga           -0.3731820061        2.0886114258        5.4966268232
Ga           -0.0046470630        1.8752192221       10.5855082111
Ga           -0.0534082503        1.9050294379       15.7444618405
Ga           -1.6745659188        4.7437976176        5.2952234853
Ga           -1.6379530260        4.6951601011       10.5888095974
Ga           -1.6337123889        4.6963962521       15.8477590748
Ga           -3.2478132870        7.4910813136        5.2852735236
Ga           -3.2465119886        7.4918326185       10.5787085506
Ga           -3.2467117204        7.4917173033       15.8524208795
Ga           -4.8404070749       10.2271953487        5.2952234853
Ga           -4.8642219534       10.2832218022       10.5888095974
Ga           -4.8610310966       10.2862762263       15.8477590748
Ga           -6.4891738123       12.6818199732        5.4966268232
Ga           -6.4897094101       13.1076766980       10.5855082111
Ga           -6.4882735996       13.0505431631       15.7444618405
Ga            3.6142847587        2.0867109572        5.4962104550
Ga            3.2489029542        1.8757576740       10.5860715850
Ga            3.2983469314        1.9043041676       15.7452389350
Ga            1.6226310752        4.7077456596        5.3181075544
Ga            1.6226234092        4.7051680771       10.5971139237
Ga            1.6229056628        4.6945639963       15.8424987130
Ga            0.0043623849        7.5041230139        5.2869719703
Ga           -0.0014492889        7.4994481942       10.5807105113
Ga           -0.0001083598        7.4988304319       15.8563682522
Ga           -1.6104310072       10.3010272128        5.2869719703
Ga           -1.6173853566       10.2983315655       10.5807105113
Ga           -1.6172498900       10.2998017253       15.8563682522
Ga           -3.2230304894       13.1006776860        5.3181075544
Ga           -3.2252665744       13.1019598383       10.5971139237
Ga           -3.2343088509       13.1075063175       15.8424987130
Ga            6.5665691527        1.8875401169        5.2955337211
Ga            6.5072258243        1.8804209986       10.5893099319
Ga            6.5056627362        1.8760931131       15.8481362089
Ga            4.9179399482        4.7430496619        5.2955337211
Ga            4.8821029468        4.6952163912       10.5893099319
Ga            4.8775733440        4.6960266600       15.8481362089
Ga            3.2401650675        7.5035217751        5.2866381725
Ga            3.2462216277        7.4987179242       10.5806250130
Ga            3.2450329293        7.4981674836       15.8563716507
Ga            1.6215815817       10.3024277518        5.2848266053
Ga            1.6218818954       10.3026011380       10.5766051325
Ga            1.6219947426       10.3026662903       15.8564145249
Ga            0.0069496460       13.1036151571        5.2866381725
Ga            0.0058176692       13.1112622175       10.5806250130
Ga            0.0047466245       13.1105079948       15.8563716507
Ga            9.7334700827        1.8769383624        5.2856925742
Ga            9.7339564229        1.8754056757       10.5790910032
Ga            9.7338873558        1.8757172023       15.8528241638
Ga            8.1252155237        4.6910980488        5.2854585674
Ga            8.1170824047        4.6864023904       10.5771062158
Ga            8.1162915434        4.6859457864       15.8541164228
Ga            6.4922090245        7.4909671959        5.2856925742
Ga            6.4911248490        7.4921547222       10.5790910032
Ga            6.4913601054        7.4919391451       15.8528241638
Ga            4.8544232926       10.3004351295        5.2868192364
Ga            4.8623272567       10.2977763909       10.5805857596
Ga            4.8624935456       10.2994271412       15.8562176078
Ga            3.2362767756       13.1031471111        5.2868192364
Ga            3.2379262226       13.1113215141       10.5805857596
Ga            3.2394389587       13.1106401493       15.8562176078
Ga           12.8985241951        1.8871263904        5.2954684505
Ga           12.9604702348        1.8807655855       10.5892730227
Ga           12.9619222156        1.8765943506       15.8480896435
Ga           11.3440535188        4.6909066574        5.2853297504
Ga           11.3516314342        4.6862676845       10.5769676381
Ga           11.3521925547        4.6859160390       15.8540798211
Ga            9.7344687714        7.4787892191        5.2853297504
Ga            9.7342402607        7.4876713728       10.5769676381
Ga            9.7342162870        7.4883331402       15.8540798211
Ga            8.0835591718       10.2268904476        5.2954684505
Ga            8.1090235731       10.2837176941       10.5892730227
Ga            8.1061371681       10.2870607638       15.8480896435
Ga            6.4681255036       13.1005811899        5.3181769462
Ga            6.4702837263       13.1018272403       10.5969353579
Ga            6.4805422135       13.1077499807       15.8424798898
N             1.6220768552        0.9365050381        9.9185987247
N             1.6223078124        0.9366383813       15.2242449392
N            -0.0019641003        3.7626010557        4.6250815385
N            -0.0012562920        3.7570538546        9.9552489080
N            -0.0040091382        3.7741053534       15.1833175692
N            -1.6194278581        6.5729947551        4.6202655654
N            -1.6222617172        6.5592638502        9.9222200021
N            -1.6223491766        6.5623198098       15.2079160321
N            -3.2287032611        9.3603415167        4.6202655654
N            -3.2420115031        9.3647527751        9.9222200021
N            -3.2394086942        9.3631490532       15.2079160321
N            -4.8538437205       12.1663030703        4.6250815385
N            -4.8582938334       12.1696896508        9.9552489080
N            -4.8449032253       12.1587798666       15.1833175692
N             4.8812433700        0.9303626982        4.6252236957
N             4.8766931390        0.9326054160        9.9553756722
N             4.8922342175        0.9268617214       15.1835810546
N             3.2463406902        3.7620972050        4.6252236957
N             3.2460078253        3.7570352305        9.9553756722
N             3.2488041791        3.7733660466       15.1835810546
N             1.6222461878        6.5501768760        4.6314505388
N             1.6223869676        6.5633399659        9.9240880091
N             1.6224913570        6.5618901126       15.2107094149
N             0.0024709510        9.3676296434        4.6268863219
N             0.0007190389        9.3666181765        9.9198990934
N             0.0014822868        9.3670588379       15.2072905667
N            -1.6276271012       12.1791225308        4.6314505388
N            -1.6161571410       12.1726629048        9.9240880091
N            -1.6173605562       12.1734782353       15.2107094149
N             8.1239568093        0.9259857860        4.6205024934
N             8.1138989909        0.9353803267        9.9223370461
N             8.1164297944        0.9340714326       15.2081730314
N             6.4915236535        3.7478814580        4.6296974864
N             6.4908239919        3.7474775081        9.9237986797
N             6.4912827680        3.7477423827       15.2091895102
N             4.8639068928        6.5725578770        4.6205024934
N             4.8670138945        6.5591502803        9.9223370461
N             4.8671457607        6.5619964675       15.2081730314
N             3.2414481844        9.3674753354        4.6269670256
N             3.2437753126        9.3663857760        9.9200849126
N             3.2432488850        9.3668727798       15.2075358506
N             1.6218259330       12.1727433641        4.6269670256
N             1.6220459110       12.1753034959        9.9200849126
N             1.6222044549       12.1746040943       15.2075358506
N            11.3422270456        0.9253785114        4.6202043963
N            11.3535701411        0.9353959543        9.9223772333
N            11.3510023129        0.9341583376       15.2081179428
N             9.7342800759        3.7444589659        4.6266824420
N             9.7341190200        3.7460700997        9.9198049691
N             9.7340441760        3.7468993894       15.2061329967
N             8.1099378996        6.5579021442        4.6266824420
N             8.1112526545        6.5569570988        9.9198049691
N             8.1119334184        6.5564776371       15.2061329967
N             6.4725160957        9.3599652951        4.6202043963
N             6.4868630035        9.3647799825        9.9223772333
N             6.4845072818        9.3631749864       15.2081179428
N             4.8719940808       12.1790501334        4.6317831930
N             4.8607028697       12.1725311496        9.9242206516
N             4.8625106747       12.1735748863       15.2110483285
N            14.5854094202        0.9302905966        4.6250072113
N            14.5904641479        0.9324031094        9.9549713479
N            14.5753154110        0.9270472844       15.1833433810
N            12.9762039199        3.7472986875        4.6291914238
N            12.9769568664        3.7473328059        9.9231734642
N            12.9763410914        3.7477990098       15.2086173854
N            11.3581291511        6.5576174521        4.6262505703
N            11.3566237163        6.5567482890        9.9194035714
N            11.3559341685        6.5563501783       15.2057524688
N             9.7333590927        9.3640706895        4.6291914238
N             9.7337651134        9.3647057011        9.9231734642
N             9.7338609703        9.3639393224       15.2086173854
N             8.0983612734       12.1661875781        4.6250072113
N             8.1027181271       12.1695088443        9.9549713479
N             8.0905054781       12.1590675658       15.1833433810
N            -0.0562545079        1.9056681361        1.8943519561
N            -0.0358400170        1.8941366991        7.3660621898
N            -0.0030079872        1.8744342444       12.5722456032
N            -1.6261493444        4.6874691819        1.9837695855
N            -1.6237557068        4.6868614343        7.2780047999
N            -1.6315665579        4.6893201287       12.5675003347
N            -3.2462209690        7.4920006388        1.9816771212
N            -3.2460777007        7.4920833548        7.2718645067
N            -3.2453626147        7.4924962099       12.5646782193
N            -4.8649806440       10.2972895500        1.9837695855
N            -4.8643101500       10.2996663748        7.2780047999
N            -4.8660862838       10.2916726320       12.5675003347
N            -6.4891435996       13.0477588826        1.8943519561
N            -6.4889228714       13.0712040689        7.3660621898
N            -6.4895696828       13.1094886681       12.5722456032
N             3.2995079182        1.9049744636        1.8955502917
N             3.2795760693        1.8934668053        7.3664908870
N             3.2467754022        1.8745293313       12.5727429761
N             1.6223657094        4.6783299324        1.9858788464
N             1.6227060559        4.6871957615        7.2954866086
N             1.6223438664        4.6945379137       12.5700183661
N             0.0019721185        7.4931139299        1.9858748763
N            -0.0010559303        7.4940994372        7.2746045523
N            -0.0006514070        7.4944260034       12.5668255975
N            -1.6211602868       10.3044617234        1.9858748763
N            -1.6218208368       10.3013466025        7.2746045523
N            -1.6213357606       10.3015336469       12.5668255975
N            -3.2486379393       13.1151557360        1.9858788464
N            -3.2407897329       13.1110175703        7.2954866086
N            -3.2346123373       13.1070328288       12.5700183661
N             6.4945444824        1.8745948870        1.9840935900
N             6.4927823159        1.8728625460        7.2783774435
N             6.4990965899        1.8783376943       12.5679903545
N             4.8707167151        4.6871470827        1.9840935900
N             4.8683353807        4.6864871723        7.2783774435
N             4.8762341351        4.6892179198       12.5679903545
N             3.2429346024        7.4931606696        1.9858349313
N             3.2461954325        7.4944731356        7.2742937253
N             3.2456754031        7.4944855429       12.5667153495
N             1.6225922985       10.3030112894        1.9841315816
N             1.6226677132       10.3030548301        7.2739662179
N             1.6225643778       10.3029951694       12.5643352078
N            -0.0006385671       13.1111941973        1.9858349313
N             0.0021284768       13.1133619261        7.2742937253
N             0.0018792072       13.1129053637       12.5667153495
N             9.7332253099        1.8754029297        1.9820643690
N             9.7331848854        1.8751481840        7.2722762907
N             9.7332923963        1.8744650857       12.5650793954
N             8.1126108746        4.6838207513        1.9841817463
N             8.1116382618        4.6832592130        7.2732601151
N             8.1133133187        4.6842263076       12.5637779018
N             6.4907569144        7.4915229328        1.9820643690
N             6.4905160859        7.4916152971        7.2722762907
N             6.4899782609        7.4920499534       12.5650793954
N             4.8658254463       10.3044158951        1.9857455073
N             4.8667099922       10.3014551222        7.2744240945
N             4.8659500376       10.3012641141       12.5667210749
N             3.2454252967       13.1110312831        1.9857455073
N             3.2433034651       13.1132777087        7.2744240945
N             3.2427580698       13.1127150728       12.5667210749
N            12.9722182533        1.8745713631        1.9841312627
N            12.9736373236        1.8729818794        7.2782215992
N            12.9678047696        1.8783109655       12.5679309873
N            11.3546525446        4.6840054049        1.9840990646
N            11.3555721672        4.6834758720        7.2731151701
N            11.3539122729        4.6844337727       12.5636170806
N             9.7337916244        7.4914188709        1.9840990646
N             9.7337928468        7.4924800540        7.2731151701
N             9.7337924659        7.4905635930       12.5636170806
N             8.1095332284       10.2969888878        1.9841312627
N             8.1088662302       10.2990125805        7.2782215992
N             8.1105650772       10.2912968976       12.5679309873
N             6.4932512519       13.1150875474        1.9859078742
N             6.4863634806       13.1111108908        7.2954646995
N             6.4787521338       13.1067164777       12.5697986840
Ga            1.6192964902        0.9348997936        4.4501064022
End final coordinates



     Writing all to output data dir ./GaN.save/
 
     init_run     :      7.26s CPU      7.88s WALL (       1 calls)
     electrons    :  77524.63s CPU  78256.90s WALL (       4 calls)
     update_pot   :      7.57s CPU      7.74s WALL (       3 calls)
     forces       :    265.80s CPU    269.98s WALL (       4 calls)
     stress       :   5119.57s CPU   5172.12s WALL (       4 calls)

     Called by init_run:
     wfcinit      :      0.78s CPU      0.86s WALL (       1 calls)
     potinit      :      1.71s CPU      1.99s WALL (       1 calls)
     hinit0       :      1.52s CPU      1.65s WALL (       1 calls)

     Called by electrons:
     c_bands      :  76457.07s CPU  77171.04s WALL (      45 calls)
     sum_band     :    968.54s CPU    980.82s WALL (      45 calls)
     v_of_rho     :     46.65s CPU     48.60s WALL (      47 calls)
     v_h          :      0.42s CPU      0.43s WALL (      47 calls)
     v_xc         :     53.37s CPU     55.65s WALL (      55 calls)
     newd         :      9.23s CPU      9.43s WALL (      47 calls)
     PAW_pot      :     27.99s CPU     28.22s WALL (      50 calls)
     mix_rho      :      2.28s CPU      2.47s WALL (      45 calls)
     vdW_kernel   :      0.16s CPU      0.17s WALL (       1 calls)

     Called by c_bands:
     init_us_2    :     46.31s CPU     46.97s WALL (     202 calls)
     init_us_2:cp :     46.31s CPU     46.97s WALL (     202 calls)
     cegterg      :  66800.64s CPU  67436.41s WALL (      90 calls)

     Called by sum_band:
     sum_band:wei :      0.19s CPU      0.19s WALL (      45 calls)
     sum_band:loo :    951.87s CPU    959.93s WALL (      45 calls)
     sum_band:buf :     11.18s CPU     11.31s WALL (      90 calls)
     sum_band:ini :     23.42s CPU     23.73s WALL (      90 calls)
     sum_band:cal :    695.88s CPU    700.83s WALL (      96 calls)
     sum_band:bec :      5.88s CPU      5.94s WALL (      96 calls)
     addusdens    :      9.26s CPU      9.42s WALL (      45 calls)
     addusd:skk   :      1.66s CPU      1.70s WALL (      90 calls)
     addusd:dgemm :      4.52s CPU      4.62s WALL (      90 calls)
     addusd:qvan2 :      1.09s CPU      1.10s WALL (      90 calls)

     Called by *egterg:
     cdiaghg      :  55638.58s CPU  55965.13s WALL (    1097 calls)
     cegterg:over :   2166.40s CPU   2222.05s WALL (    1017 calls)
     cegterg:upda :   1332.63s CPU   1354.36s WALL (    1017 calls)
     cegterg:last :    657.19s CPU    661.95s WALL (      90 calls)
     h_psi        :   4665.85s CPU   4736.29s WALL (    1107 calls)
     s_psi        :   1657.95s CPU   1682.29s WALL (    1107 calls)
     g_psi        :      4.25s CPU      4.29s WALL (    1017 calls)

     Called by h_psi:
     h_psi:calbec :   1753.80s CPU   1768.55s WALL (    1107 calls)
     vloc_psi     :   1232.86s CPU   1244.92s WALL (    1107 calls)
     add_vuspsi   :   1660.21s CPU   1688.27s WALL (    1107 calls)

     General routines
     calbec       :   2909.63s CPU   2933.18s WALL (    1243 calls)
     fft          :     25.62s CPU     25.92s WALL (    3634 calls)
     ffts         :      0.63s CPU      0.63s WALL (      92 calls)
     fftw         :   1371.39s CPU   1385.08s WALL (  896862 calls)
     interpolate  :      0.78s CPU      0.79s WALL (      47 calls)
     davcio       :      0.00s CPU      1.74s WALL (      10 calls)
 
     Parallel routines

     PAW routines
     PAW_pot      :     27.99s CPU     28.22s WALL (      50 calls)
     PAW_symme    :      0.33s CPU      0.33s WALL (      94 calls)
 
     PWSCF        :     23h 3m CPU     23h16m WALL

 
   This run was terminated on:  20:24:49   6Mar2024            

=------------------------------------------------------------------------------=
   JOB DONE.
=------------------------------------------------------------------------------=
