
     Program PWSCF v.7.1 starts on  7Mar2024 at 11:28:15 

     This program is part of the open-source Quantum ESPRESSO suite
     for quantum simulation of materials; please cite
         "P. Giannozzi et al., J. Phys.:Condens. Matter 21 395502 (2009);
         "P. Giannozzi et al., J. Phys.:Condens. Matter 29 465901 (2017);
         "P. Giannozzi et al., J. Chem. Phys. 152 154105 (2020);
          URL http://www.quantum-espresso.org", 
     in publications or presentations arising from this work. More details at
     http://www.quantum-espresso.org/quote

     Parallel version (MPI & OpenMP), running on     256 processor cores
     Number of MPI processes:               256
     Threads/MPI process:                     1

     MPI processes distributed on     2 nodes
     1725252 MiB available memory on the printing compute node when the environment starts
 
     Reading input from espresso.pwi
Warning: card &CELL ignored
Warning: card    CELL_DYNAMICS    = 'BFGS' ignored
Warning: card / ignored

     Current dimensions of program PWSCF are:
     Max number of different atomic species (ntypx) = 10
     Max number of k-points (npk) =  40000
     Max angular momentum in pseudopotentials (lmaxx) =  4
     file Ga.pbe-dn-kjpaw_psl.1.0.0.UPF: wavefunction(s)  4S renormalized
     file N.pbe-n-kjpaw_psl.1.0.0.UPF: wavefunction(s)  2S renormalized

     **************************************************************************
     Initializing libbeef V0.1.2 with the BEEF-vdW functional.
     Citation: Wellendorff et al., PRB 85, 235149 (2012).
     **************************************************************************


     IMPORTANT: XC functional enforced from input :
     Exchange-correlation= BEEF-VDW
                           (   1   4  43  14   2   0   0)
     Any further DFT definition will be discarded
     Please, verify this is what you really want

 
     K-points division:     npool     =       4
     R & G space division:  proc/nbgrp/npool/nimage =      64
     Subspace diagonalization in iterative solution of the eigenvalue problem:
     a serial algorithm will be used

 
     Parallelization info
     --------------------
     sticks:   dense  smooth     PW     G-vecs:    dense   smooth      PW
     Min         354     283     73                42160    30167    3987
     Max         356     285     74                42163    30170    3996
     Sum       22693   18145   4705              2698283  1930731  255309
 
     Using Slab Decomposition
 


     bravais-lattice index     =            4
     lattice parameter (alat)  =      30.6565  a.u.
     unit-cell volume          =   24400.9461 (a.u.)^3
     number of atoms/cell      =          300
     number of atomic types    =            2
     number of electrons       =      2705.00
     number of Kohn-Sham states=         1624
     kinetic-energy cutoff     =      70.0000  Ry
     charge density cutoff     =     350.0000  Ry
     scf convergence threshold =      1.0E-07
     mixing beta               =       0.7000
     number of iterations used =            8  plain     mixing
     Exchange-correlation= BEEF-VDW
                           (   1   4  43  14   2   0   0)

     celldm(1)=  30.656540  celldm(2)=   0.000000  celldm(3)=   0.977927
     celldm(4)=   0.000000  celldm(5)=   0.000000  celldm(6)=   0.000000

     crystal axes: (cart. coord. in units of alat)
               a(1) = (   1.000000   0.000000   0.000000 )  
               a(2) = (  -0.500000   0.866025   0.000000 )  
               a(3) = (   0.000000   0.000000   0.977927 )  

     reciprocal axes: (cart. coord. in units 2 pi/alat)
               b(1) = (  1.000000  0.577350 -0.000000 )  
               b(2) = (  0.000000  1.154701  0.000000 )  
               b(3) = (  0.000000 -0.000000  1.022571 )  


     PseudoPot. # 1 for Ga read from file:
     /trace/group/acmegroup/atimmins/packages/espresso/pseudo/psl_1.0.0/pslibrary.1.0.0/pbe/PSEUDOPOTENTIALS/Ga.pbe-dn-kjpaw_psl.1.0.0.UPF
     MD5 check sum: cd2a01e492f15b435d17032472d8505c
     Pseudo is Projector augmented-wave + core cor, Zval = 13.0
     Generated using 'atomic' code by A. Dal Corso  v.7.1
     Shape of augmentation charge: PSQ
     Using radial grid of 1205 points,  6 beta functions with: 
                l(1) =   0
                l(2) =   0
                l(3) =   1
                l(4) =   1
                l(5) =   2
                l(6) =   2
     Q(r) pseudized with 0 coefficients 


     PseudoPot. # 2 for N  read from file:
     /trace/group/acmegroup/atimmins/packages/espresso/pseudo/psl_1.0.0/pslibrary.1.0.0/pbe/PSEUDOPOTENTIALS/N.pbe-n-kjpaw_psl.1.0.0.UPF
     MD5 check sum: f77f775694dac7e2c3fe1c82443d1a16
     Pseudo is Projector augmented-wave + core cor, Zval =  5.0
     Generated using 'atomic' code by A. Dal Corso  v.7.1
     Shape of augmentation charge: PSQ
     Using radial grid of 1085 points,  4 beta functions with: 
                l(1) =   0
                l(2) =   0
                l(3) =   1
                l(4) =   1
     Q(r) pseudized with 0 coefficients 


     atomic species   valence    mass     pseudopotential
        Ga            13.00    69.72300     Ga( 1.00)
        N              5.00    14.00700     N ( 1.00)

      2 Sym. Ops. (no inversion) found


                                    s                        frac. trans.

      isym =  1     identity                                     

 cryst.   s( 1) = (     1          0          0      )
                  (     0          1          0      )
                  (     0          0          1      )

 cart.    s( 1) = (  1.0000000  0.0000000  0.0000000 )
                  (  0.0000000  1.0000000  0.0000000 )
                  (  0.0000000  0.0000000  1.0000000 )


      isym =  2     inv. 180 deg rotation - cryst. axis [0,1,0]  

 cryst.   s( 2) = (     1          1          0      )
                  (     0         -1          0      )
                  (     0          0          1      )

 cart.    s( 2) = (  0.5000000  0.8660254  0.0000000 )
                  (  0.8660254 -0.5000000  0.0000000 )
                  (  0.0000000  0.0000000  1.0000000 )


     point group C_s (m)    
     there are  2 classes
     the character table:

       E     s    
A'     1.00  1.00
A''    1.00 -1.00

     the symmetry operations in each class and the name of the first element:

     E        1
          identity                                               
     s        2
          inv. 180 deg rotation - cryst. axis [0,1,0]            

   Cartesian axes

     site n.     atom                  positions (alat units)
         1           Ga  tau(   1) = (   0.1000001   0.0577350   0.1627148  )
         2           Ga  tau(   2) = (   0.1000001   0.0577350   0.4886906  )
         3           Ga  tau(   3) = (   0.1000001   0.0577350   0.8146665  )
         4           Ga  tau(   4) = (   0.0000001   0.2309401   0.1627148  )
         5           Ga  tau(   5) = (   0.0000001   0.2309401   0.4886906  )
         6           Ga  tau(   6) = (   0.0000001   0.2309401   0.8146665  )
         7           Ga  tau(   7) = (  -0.0999999   0.4041451   0.1627148  )
         8           Ga  tau(   8) = (  -0.0999999   0.4041451   0.4886906  )
         9           Ga  tau(   9) = (  -0.0999999   0.4041451   0.8146665  )
        10           Ga  tau(  10) = (  -0.1999999   0.5773502   0.1627148  )
        11           Ga  tau(  11) = (  -0.1999999   0.5773502   0.4886906  )
        12           Ga  tau(  12) = (  -0.1999999   0.5773502   0.8146665  )
        13           Ga  tau(  13) = (  -0.2999999   0.7505553   0.1627148  )
        14           Ga  tau(  14) = (  -0.2999999   0.7505553   0.4886906  )
        15           Ga  tau(  15) = (  -0.2999999   0.7505553   0.8146665  )
        16           Ga  tau(  16) = (   0.3000001   0.0577350   0.1627148  )
        17           Ga  tau(  17) = (   0.3000001   0.0577350   0.4886906  )
        18           Ga  tau(  18) = (   0.3000001   0.0577350   0.8146665  )
        19           Ga  tau(  19) = (   0.2000001   0.2309401   0.1627148  )
        20           Ga  tau(  20) = (   0.2000001   0.2309401   0.4886906  )
        21           Ga  tau(  21) = (   0.2000001   0.2309401   0.8146665  )
        22           Ga  tau(  22) = (   0.1000001   0.4041451   0.1627148  )
        23           Ga  tau(  23) = (   0.1000001   0.4041451   0.4886906  )
        24           Ga  tau(  24) = (   0.1000001   0.4041451   0.8146665  )
        25           Ga  tau(  25) = (   0.0000001   0.5773502   0.1627148  )
        26           Ga  tau(  26) = (   0.0000001   0.5773502   0.4886906  )
        27           Ga  tau(  27) = (   0.0000001   0.5773502   0.8146665  )
        28           Ga  tau(  28) = (  -0.0999999   0.7505553   0.1627148  )
        29           Ga  tau(  29) = (  -0.0999999   0.7505553   0.4886906  )
        30           Ga  tau(  30) = (  -0.0999999   0.7505553   0.8146665  )
        31           Ga  tau(  31) = (   0.5000001   0.0577350   0.1627148  )
        32           Ga  tau(  32) = (   0.5000001   0.0577350   0.4886906  )
        33           Ga  tau(  33) = (   0.5000001   0.0577350   0.8146665  )
        34           Ga  tau(  34) = (   0.4000001   0.2309401   0.1627148  )
        35           Ga  tau(  35) = (   0.4000001   0.2309401   0.4886906  )
        36           Ga  tau(  36) = (   0.4000001   0.2309401   0.8146665  )
        37           Ga  tau(  37) = (   0.3000001   0.4041451   0.1627148  )
        38           Ga  tau(  38) = (   0.3000001   0.4041451   0.4886906  )
        39           Ga  tau(  39) = (   0.3000001   0.4041451   0.8146665  )
        40           Ga  tau(  40) = (   0.2000001   0.5773502   0.1627148  )
        41           Ga  tau(  41) = (   0.2000001   0.5773502   0.4886906  )
        42           Ga  tau(  42) = (   0.2000001   0.5773502   0.8146665  )
        43           Ga  tau(  43) = (   0.1000001   0.7505553   0.1627148  )
        44           Ga  tau(  44) = (   0.1000001   0.7505553   0.4886906  )
        45           Ga  tau(  45) = (   0.1000001   0.7505553   0.8146665  )
        46           Ga  tau(  46) = (   0.7000001   0.0577350   0.1627148  )
        47           Ga  tau(  47) = (   0.7000001   0.0577350   0.4886906  )
        48           Ga  tau(  48) = (   0.7000001   0.0577350   0.8146665  )
        49           Ga  tau(  49) = (   0.6000001   0.2309401   0.1627148  )
        50           Ga  tau(  50) = (   0.6000001   0.2309401   0.4886906  )
        51           Ga  tau(  51) = (   0.6000001   0.2309401   0.8146665  )
        52           Ga  tau(  52) = (   0.5000001   0.4041451   0.1627148  )
        53           Ga  tau(  53) = (   0.5000001   0.4041451   0.4886906  )
        54           Ga  tau(  54) = (   0.5000001   0.4041451   0.8146665  )
        55           Ga  tau(  55) = (   0.4000001   0.5773502   0.1627148  )
        56           Ga  tau(  56) = (   0.4000001   0.5773502   0.4886906  )
        57           Ga  tau(  57) = (   0.4000001   0.5773502   0.8146665  )
        58           Ga  tau(  58) = (   0.3000001   0.7505553   0.1627148  )
        59           Ga  tau(  59) = (   0.3000001   0.7505553   0.4886906  )
        60           Ga  tau(  60) = (   0.3000001   0.7505553   0.8146665  )
        61           Ga  tau(  61) = (   0.9000001   0.0577350   0.1627148  )
        62           Ga  tau(  62) = (   0.9000001   0.0577350   0.4886906  )
        63           Ga  tau(  63) = (   0.9000001   0.0577350   0.8146665  )
        64           Ga  tau(  64) = (   0.8000001   0.2309401   0.1627148  )
        65           Ga  tau(  65) = (   0.8000001   0.2309401   0.4886906  )
        66           Ga  tau(  66) = (   0.8000001   0.2309401   0.8146665  )
        67           Ga  tau(  67) = (   0.7000001   0.4041451   0.1627148  )
        68           Ga  tau(  68) = (   0.7000001   0.4041451   0.4886906  )
        69           Ga  tau(  69) = (   0.7000001   0.4041451   0.8146665  )
        70           Ga  tau(  70) = (   0.6000001   0.5773502   0.1627148  )
        71           Ga  tau(  71) = (   0.6000001   0.5773502   0.4886906  )
        72           Ga  tau(  72) = (   0.6000001   0.5773502   0.8146665  )
        73           Ga  tau(  73) = (   0.5000001   0.7505553   0.1627148  )
        74           Ga  tau(  74) = (   0.5000001   0.7505553   0.4886906  )
        75           Ga  tau(  75) = (   0.5000001   0.7505553   0.8146665  )
        76           Ga  tau(  76) = (  -0.0000001   0.1154701   0.3257027  )
        77           Ga  tau(  77) = (  -0.0000001   0.1154701   0.6516786  )
        78           Ga  tau(  78) = (  -0.0000001   0.1154701   0.9776544  )
        79           Ga  tau(  79) = (  -0.1000001   0.2886752   0.3257027  )
        80           Ga  tau(  80) = (  -0.1000001   0.2886752   0.6516786  )
        81           Ga  tau(  81) = (  -0.1000001   0.2886752   0.9776544  )
        82           Ga  tau(  82) = (  -0.2000001   0.4618803   0.3257027  )
        83           Ga  tau(  83) = (  -0.2000001   0.4618803   0.6516786  )
        84           Ga  tau(  84) = (  -0.2000001   0.4618803   0.9776544  )
        85           Ga  tau(  85) = (  -0.3000001   0.6350854   0.3257027  )
        86           Ga  tau(  86) = (  -0.3000001   0.6350854   0.6516786  )
        87           Ga  tau(  87) = (  -0.3000001   0.6350854   0.9776544  )
        88           Ga  tau(  88) = (  -0.4000001   0.8082905   0.3257027  )
        89           Ga  tau(  89) = (  -0.4000001   0.8082905   0.6516786  )
        90           Ga  tau(  90) = (  -0.4000001   0.8082905   0.9776544  )
        91           Ga  tau(  91) = (   0.1999999   0.1154701   0.3257027  )
        92           Ga  tau(  92) = (   0.1999999   0.1154701   0.6516786  )
        93           Ga  tau(  93) = (   0.1999999   0.1154701   0.9776544  )
        94           Ga  tau(  94) = (   0.0999999   0.2886752   0.3257027  )
        95           Ga  tau(  95) = (   0.0999999   0.2886752   0.6516786  )
        96           Ga  tau(  96) = (   0.0999999   0.2886752   0.9776544  )
        97           Ga  tau(  97) = (  -0.0000001   0.4618803   0.3257027  )
        98           Ga  tau(  98) = (  -0.0000001   0.4618803   0.6516786  )
        99           Ga  tau(  99) = (  -0.0000001   0.4618803   0.9776544  )
       100           Ga  tau( 100) = (  -0.1000001   0.6350854   0.3257027  )
       101           Ga  tau( 101) = (  -0.1000001   0.6350854   0.6516786  )
       102           Ga  tau( 102) = (  -0.1000001   0.6350854   0.9776544  )
       103           Ga  tau( 103) = (  -0.2000001   0.8082905   0.3257027  )
       104           Ga  tau( 104) = (  -0.2000001   0.8082905   0.6516786  )
       105           Ga  tau( 105) = (  -0.2000001   0.8082905   0.9776544  )
       106           Ga  tau( 106) = (   0.3999999   0.1154701   0.3257027  )
       107           Ga  tau( 107) = (   0.3999999   0.1154701   0.6516786  )
       108           Ga  tau( 108) = (   0.3999999   0.1154701   0.9776544  )
       109           Ga  tau( 109) = (   0.2999999   0.2886752   0.3257027  )
       110           Ga  tau( 110) = (   0.2999999   0.2886752   0.6516786  )
       111           Ga  tau( 111) = (   0.2999999   0.2886752   0.9776544  )
       112           Ga  tau( 112) = (   0.1999999   0.4618803   0.3257027  )
       113           Ga  tau( 113) = (   0.1999999   0.4618803   0.6516786  )
       114           Ga  tau( 114) = (   0.1999999   0.4618803   0.9776544  )
       115           Ga  tau( 115) = (   0.0999999   0.6350854   0.3257027  )
       116           Ga  tau( 116) = (   0.0999999   0.6350854   0.6516786  )
       117           Ga  tau( 117) = (   0.0999999   0.6350854   0.9776544  )
       118           Ga  tau( 118) = (  -0.0000001   0.8082905   0.3257027  )
       119           Ga  tau( 119) = (  -0.0000001   0.8082905   0.6516786  )
       120           Ga  tau( 120) = (  -0.0000001   0.8082905   0.9776544  )
       121           Ga  tau( 121) = (   0.5999999   0.1154701   0.3257027  )
       122           Ga  tau( 122) = (   0.5999999   0.1154701   0.6516786  )
       123           Ga  tau( 123) = (   0.5999999   0.1154701   0.9776544  )
       124           Ga  tau( 124) = (   0.4999999   0.2886752   0.3257027  )
       125           Ga  tau( 125) = (   0.4999999   0.2886752   0.6516786  )
       126           Ga  tau( 126) = (   0.4999999   0.2886752   0.9776544  )
       127           Ga  tau( 127) = (   0.3999999   0.4618803   0.3257027  )
       128           Ga  tau( 128) = (   0.3999999   0.4618803   0.6516786  )
       129           Ga  tau( 129) = (   0.3999999   0.4618803   0.9776544  )
       130           Ga  tau( 130) = (   0.2999999   0.6350854   0.3257027  )
       131           Ga  tau( 131) = (   0.2999999   0.6350854   0.6516786  )
       132           Ga  tau( 132) = (   0.2999999   0.6350854   0.9776544  )
       133           Ga  tau( 133) = (   0.1999999   0.8082905   0.3257027  )
       134           Ga  tau( 134) = (   0.1999999   0.8082905   0.6516786  )
       135           Ga  tau( 135) = (   0.1999999   0.8082905   0.9776544  )
       136           Ga  tau( 136) = (   0.7999999   0.1154701   0.3257027  )
       137           Ga  tau( 137) = (   0.7999999   0.1154701   0.6516786  )
       138           Ga  tau( 138) = (   0.7999999   0.1154701   0.9776544  )
       139           Ga  tau( 139) = (   0.6999999   0.2886752   0.3257027  )
       140           Ga  tau( 140) = (   0.6999999   0.2886752   0.6516786  )
       141           Ga  tau( 141) = (   0.6999999   0.2886752   0.9776544  )
       142           Ga  tau( 142) = (   0.5999999   0.4618803   0.3257027  )
       143           Ga  tau( 143) = (   0.5999999   0.4618803   0.6516786  )
       144           Ga  tau( 144) = (   0.5999999   0.4618803   0.9776544  )
       145           Ga  tau( 145) = (   0.4999999   0.6350854   0.3257027  )
       146           Ga  tau( 146) = (   0.4999999   0.6350854   0.6516786  )
       147           Ga  tau( 147) = (   0.4999999   0.6350854   0.9776544  )
       148           Ga  tau( 148) = (   0.3999999   0.8082905   0.3257027  )
       149           Ga  tau( 149) = (   0.3999999   0.8082905   0.6516786  )
       150           Ga  tau( 150) = (   0.3999999   0.8082905   0.9776544  )
       151           N   tau( 151) = (   0.1000001   0.0577350   0.6114777  )
       152           N   tau( 152) = (   0.1000001   0.0577350   0.9374535  )
       153           N   tau( 153) = (   0.0000001   0.2309401   0.2855019  )
       154           N   tau( 154) = (   0.0000001   0.2309401   0.6114777  )
       155           N   tau( 155) = (   0.0000001   0.2309401   0.9374535  )
       156           N   tau( 156) = (  -0.0999999   0.4041451   0.2855019  )
       157           N   tau( 157) = (  -0.0999999   0.4041451   0.6114777  )
       158           N   tau( 158) = (  -0.0999999   0.4041451   0.9374535  )
       159           N   tau( 159) = (  -0.1999999   0.5773502   0.2855019  )
       160           N   tau( 160) = (  -0.1999999   0.5773502   0.6114777  )
       161           N   tau( 161) = (  -0.1999999   0.5773502   0.9374535  )
       162           N   tau( 162) = (  -0.2999999   0.7505553   0.2855019  )
       163           N   tau( 163) = (  -0.2999999   0.7505553   0.6114777  )
       164           N   tau( 164) = (  -0.2999999   0.7505553   0.9374535  )
       165           N   tau( 165) = (   0.3000001   0.0577350   0.2855019  )
       166           N   tau( 166) = (   0.3000001   0.0577350   0.6114777  )
       167           N   tau( 167) = (   0.3000001   0.0577350   0.9374535  )
       168           N   tau( 168) = (   0.2000001   0.2309401   0.2855019  )
       169           N   tau( 169) = (   0.2000001   0.2309401   0.6114777  )
       170           N   tau( 170) = (   0.2000001   0.2309401   0.9374535  )
       171           N   tau( 171) = (   0.1000001   0.4041451   0.2855019  )
       172           N   tau( 172) = (   0.1000001   0.4041451   0.6114777  )
       173           N   tau( 173) = (   0.1000001   0.4041451   0.9374535  )
       174           N   tau( 174) = (   0.0000001   0.5773502   0.2855019  )
       175           N   tau( 175) = (   0.0000001   0.5773502   0.6114777  )
       176           N   tau( 176) = (   0.0000001   0.5773502   0.9374535  )
       177           N   tau( 177) = (  -0.0999999   0.7505553   0.2855019  )
       178           N   tau( 178) = (  -0.0999999   0.7505553   0.6114777  )
       179           N   tau( 179) = (  -0.0999999   0.7505553   0.9374535  )
       180           N   tau( 180) = (   0.5000001   0.0577350   0.2855019  )
       181           N   tau( 181) = (   0.5000001   0.0577350   0.6114777  )
       182           N   tau( 182) = (   0.5000001   0.0577350   0.9374535  )
       183           N   tau( 183) = (   0.4000001   0.2309401   0.2855019  )
       184           N   tau( 184) = (   0.4000001   0.2309401   0.6114777  )
       185           N   tau( 185) = (   0.4000001   0.2309401   0.9374535  )
       186           N   tau( 186) = (   0.3000001   0.4041451   0.2855019  )
       187           N   tau( 187) = (   0.3000001   0.4041451   0.6114777  )
       188           N   tau( 188) = (   0.3000001   0.4041451   0.9374535  )
       189           N   tau( 189) = (   0.2000001   0.5773502   0.2855019  )
       190           N   tau( 190) = (   0.2000001   0.5773502   0.6114777  )
       191           N   tau( 191) = (   0.2000001   0.5773502   0.9374535  )
       192           N   tau( 192) = (   0.1000001   0.7505553   0.2855019  )
       193           N   tau( 193) = (   0.1000001   0.7505553   0.6114777  )
       194           N   tau( 194) = (   0.1000001   0.7505553   0.9374535  )
       195           N   tau( 195) = (   0.7000001   0.0577350   0.2855019  )
       196           N   tau( 196) = (   0.7000001   0.0577350   0.6114777  )
       197           N   tau( 197) = (   0.7000001   0.0577350   0.9374535  )
       198           N   tau( 198) = (   0.6000001   0.2309401   0.2855019  )
       199           N   tau( 199) = (   0.6000001   0.2309401   0.6114777  )
       200           N   tau( 200) = (   0.6000001   0.2309401   0.9374535  )
       201           N   tau( 201) = (   0.5000001   0.4041451   0.2855019  )
       202           N   tau( 202) = (   0.5000001   0.4041451   0.6114777  )
       203           N   tau( 203) = (   0.5000001   0.4041451   0.9374535  )
       204           N   tau( 204) = (   0.4000001   0.5773502   0.2855019  )
       205           N   tau( 205) = (   0.4000001   0.5773502   0.6114777  )
       206           N   tau( 206) = (   0.4000001   0.5773502   0.9374535  )
       207           N   tau( 207) = (   0.3000001   0.7505553   0.2855019  )
       208           N   tau( 208) = (   0.3000001   0.7505553   0.6114777  )
       209           N   tau( 209) = (   0.3000001   0.7505553   0.9374535  )
       210           N   tau( 210) = (   0.9000001   0.0577350   0.2855019  )
       211           N   tau( 211) = (   0.9000001   0.0577350   0.6114777  )
       212           N   tau( 212) = (   0.9000001   0.0577350   0.9374535  )
       213           N   tau( 213) = (   0.8000001   0.2309401   0.2855019  )
       214           N   tau( 214) = (   0.8000001   0.2309401   0.6114777  )
       215           N   tau( 215) = (   0.8000001   0.2309401   0.9374535  )
       216           N   tau( 216) = (   0.7000001   0.4041451   0.2855019  )
       217           N   tau( 217) = (   0.7000001   0.4041451   0.6114777  )
       218           N   tau( 218) = (   0.7000001   0.4041451   0.9374535  )
       219           N   tau( 219) = (   0.6000001   0.5773502   0.2855019  )
       220           N   tau( 220) = (   0.6000001   0.5773502   0.6114777  )
       221           N   tau( 221) = (   0.6000001   0.5773502   0.9374535  )
       222           N   tau( 222) = (   0.5000001   0.7505553   0.2855019  )
       223           N   tau( 223) = (   0.5000001   0.7505553   0.6114777  )
       224           N   tau( 224) = (   0.5000001   0.7505553   0.9374535  )
       225           N   tau( 225) = (  -0.0000001   0.1154701   0.1225140  )
       226           N   tau( 226) = (  -0.0000001   0.1154701   0.4484898  )
       227           N   tau( 227) = (  -0.0000001   0.1154701   0.7744656  )
       228           N   tau( 228) = (  -0.1000001   0.2886752   0.1225140  )
       229           N   tau( 229) = (  -0.1000001   0.2886752   0.4484898  )
       230           N   tau( 230) = (  -0.1000001   0.2886752   0.7744656  )
       231           N   tau( 231) = (  -0.2000001   0.4618803   0.1225140  )
       232           N   tau( 232) = (  -0.2000001   0.4618803   0.4484898  )
       233           N   tau( 233) = (  -0.2000001   0.4618803   0.7744656  )
       234           N   tau( 234) = (  -0.3000001   0.6350854   0.1225140  )
       235           N   tau( 235) = (  -0.3000001   0.6350854   0.4484898  )
       236           N   tau( 236) = (  -0.3000001   0.6350854   0.7744656  )
       237           N   tau( 237) = (  -0.4000001   0.8082905   0.1225140  )
       238           N   tau( 238) = (  -0.4000001   0.8082905   0.4484898  )
       239           N   tau( 239) = (  -0.4000001   0.8082905   0.7744656  )
       240           N   tau( 240) = (   0.1999999   0.1154701   0.1225140  )
       241           N   tau( 241) = (   0.1999999   0.1154701   0.4484898  )
       242           N   tau( 242) = (   0.1999999   0.1154701   0.7744656  )
       243           N   tau( 243) = (   0.0999999   0.2886752   0.1225140  )
       244           N   tau( 244) = (   0.0999999   0.2886752   0.4484898  )
       245           N   tau( 245) = (   0.0999999   0.2886752   0.7744656  )
       246           N   tau( 246) = (  -0.0000001   0.4618803   0.1225140  )
       247           N   tau( 247) = (  -0.0000001   0.4618803   0.4484898  )
       248           N   tau( 248) = (  -0.0000001   0.4618803   0.7744656  )
       249           N   tau( 249) = (  -0.1000001   0.6350854   0.1225140  )
       250           N   tau( 250) = (  -0.1000001   0.6350854   0.4484898  )
       251           N   tau( 251) = (  -0.1000001   0.6350854   0.7744656  )
       252           N   tau( 252) = (  -0.2000001   0.8082905   0.1225140  )
       253           N   tau( 253) = (  -0.2000001   0.8082905   0.4484898  )
       254           N   tau( 254) = (  -0.2000001   0.8082905   0.7744656  )
       255           N   tau( 255) = (   0.3999999   0.1154701   0.1225140  )
       256           N   tau( 256) = (   0.3999999   0.1154701   0.4484898  )
       257           N   tau( 257) = (   0.3999999   0.1154701   0.7744656  )
       258           N   tau( 258) = (   0.2999999   0.2886752   0.1225140  )
       259           N   tau( 259) = (   0.2999999   0.2886752   0.4484898  )
       260           N   tau( 260) = (   0.2999999   0.2886752   0.7744656  )
       261           N   tau( 261) = (   0.1999999   0.4618803   0.1225140  )
       262           N   tau( 262) = (   0.1999999   0.4618803   0.4484898  )
       263           N   tau( 263) = (   0.1999999   0.4618803   0.7744656  )
       264           N   tau( 264) = (   0.0999999   0.6350854   0.1225140  )
       265           N   tau( 265) = (   0.0999999   0.6350854   0.4484898  )
       266           N   tau( 266) = (   0.0999999   0.6350854   0.7744656  )
       267           N   tau( 267) = (  -0.0000001   0.8082905   0.1225140  )
       268           N   tau( 268) = (  -0.0000001   0.8082905   0.4484898  )
       269           N   tau( 269) = (  -0.0000001   0.8082905   0.7744656  )
       270           N   tau( 270) = (   0.5999999   0.1154701   0.1225140  )
       271           N   tau( 271) = (   0.5999999   0.1154701   0.4484898  )
       272           N   tau( 272) = (   0.5999999   0.1154701   0.7744656  )
       273           N   tau( 273) = (   0.4999999   0.2886752   0.1225140  )
       274           N   tau( 274) = (   0.4999999   0.2886752   0.4484898  )
       275           N   tau( 275) = (   0.4999999   0.2886752   0.7744656  )
       276           N   tau( 276) = (   0.3999999   0.4618803   0.1225140  )
       277           N   tau( 277) = (   0.3999999   0.4618803   0.4484898  )
       278           N   tau( 278) = (   0.3999999   0.4618803   0.7744656  )
       279           N   tau( 279) = (   0.2999999   0.6350854   0.1225140  )
       280           N   tau( 280) = (   0.2999999   0.6350854   0.4484898  )
       281           N   tau( 281) = (   0.2999999   0.6350854   0.7744656  )
       282           N   tau( 282) = (   0.1999999   0.8082905   0.1225140  )
       283           N   tau( 283) = (   0.1999999   0.8082905   0.4484898  )
       284           N   tau( 284) = (   0.1999999   0.8082905   0.7744656  )
       285           N   tau( 285) = (   0.7999999   0.1154701   0.1225140  )
       286           N   tau( 286) = (   0.7999999   0.1154701   0.4484898  )
       287           N   tau( 287) = (   0.7999999   0.1154701   0.7744656  )
       288           N   tau( 288) = (   0.6999999   0.2886752   0.1225140  )
       289           N   tau( 289) = (   0.6999999   0.2886752   0.4484898  )
       290           N   tau( 290) = (   0.6999999   0.2886752   0.7744656  )
       291           N   tau( 291) = (   0.5999999   0.4618803   0.1225140  )
       292           N   tau( 292) = (   0.5999999   0.4618803   0.4484898  )
       293           N   tau( 293) = (   0.5999999   0.4618803   0.7744656  )
       294           N   tau( 294) = (   0.4999999   0.6350854   0.1225140  )
       295           N   tau( 295) = (   0.4999999   0.6350854   0.4484898  )
       296           N   tau( 296) = (   0.4999999   0.6350854   0.7744656  )
       297           N   tau( 297) = (   0.3999999   0.8082905   0.1225140  )
       298           N   tau( 298) = (   0.3999999   0.8082905   0.4484898  )
       299           N   tau( 299) = (   0.3999999   0.8082905   0.7744656  )
       300           Ga  tau( 300) = (   0.1000001   0.0577350   0.2855019  )

   Crystallographic axes

     site n.     atom                  positions (cryst. coord.)
         1           Ga  tau(   1) = (  0.1333334  0.0666666  0.1663874  )
         2           Ga  tau(   2) = (  0.1333334  0.0666666  0.4997208  )
         3           Ga  tau(   3) = (  0.1333334  0.0666666  0.8330541  )
         4           Ga  tau(   4) = (  0.1333334  0.2666666  0.1663874  )
         5           Ga  tau(   5) = (  0.1333334  0.2666666  0.4997208  )
         6           Ga  tau(   6) = (  0.1333334  0.2666666  0.8330541  )
         7           Ga  tau(   7) = (  0.1333334  0.4666666  0.1663874  )
         8           Ga  tau(   8) = (  0.1333334  0.4666666  0.4997208  )
         9           Ga  tau(   9) = (  0.1333334  0.4666666  0.8330541  )
        10           Ga  tau(  10) = (  0.1333334  0.6666666  0.1663874  )
        11           Ga  tau(  11) = (  0.1333334  0.6666666  0.4997208  )
        12           Ga  tau(  12) = (  0.1333334  0.6666666  0.8330541  )
        13           Ga  tau(  13) = (  0.1333334  0.8666666  0.1663874  )
        14           Ga  tau(  14) = (  0.1333334  0.8666666  0.4997208  )
        15           Ga  tau(  15) = (  0.1333334  0.8666666  0.8330541  )
        16           Ga  tau(  16) = (  0.3333334  0.0666666  0.1663874  )
        17           Ga  tau(  17) = (  0.3333334  0.0666666  0.4997208  )
        18           Ga  tau(  18) = (  0.3333334  0.0666666  0.8330541  )
        19           Ga  tau(  19) = (  0.3333334  0.2666666  0.1663874  )
        20           Ga  tau(  20) = (  0.3333334  0.2666666  0.4997208  )
        21           Ga  tau(  21) = (  0.3333334  0.2666666  0.8330541  )
        22           Ga  tau(  22) = (  0.3333334  0.4666666  0.1663874  )
        23           Ga  tau(  23) = (  0.3333334  0.4666666  0.4997208  )
        24           Ga  tau(  24) = (  0.3333334  0.4666666  0.8330541  )
        25           Ga  tau(  25) = (  0.3333334  0.6666666  0.1663874  )
        26           Ga  tau(  26) = (  0.3333334  0.6666666  0.4997208  )
        27           Ga  tau(  27) = (  0.3333334  0.6666666  0.8330541  )
        28           Ga  tau(  28) = (  0.3333334  0.8666666  0.1663874  )
        29           Ga  tau(  29) = (  0.3333334  0.8666666  0.4997208  )
        30           Ga  tau(  30) = (  0.3333334  0.8666666  0.8330541  )
        31           Ga  tau(  31) = (  0.5333334  0.0666666  0.1663874  )
        32           Ga  tau(  32) = (  0.5333334  0.0666666  0.4997208  )
        33           Ga  tau(  33) = (  0.5333334  0.0666666  0.8330541  )
        34           Ga  tau(  34) = (  0.5333334  0.2666666  0.1663874  )
        35           Ga  tau(  35) = (  0.5333334  0.2666666  0.4997208  )
        36           Ga  tau(  36) = (  0.5333334  0.2666666  0.8330541  )
        37           Ga  tau(  37) = (  0.5333334  0.4666666  0.1663874  )
        38           Ga  tau(  38) = (  0.5333334  0.4666666  0.4997208  )
        39           Ga  tau(  39) = (  0.5333334  0.4666666  0.8330541  )
        40           Ga  tau(  40) = (  0.5333334  0.6666666  0.1663874  )
        41           Ga  tau(  41) = (  0.5333334  0.6666666  0.4997208  )
        42           Ga  tau(  42) = (  0.5333334  0.6666666  0.8330541  )
        43           Ga  tau(  43) = (  0.5333334  0.8666666  0.1663874  )
        44           Ga  tau(  44) = (  0.5333334  0.8666666  0.4997208  )
        45           Ga  tau(  45) = (  0.5333334  0.8666666  0.8330541  )
        46           Ga  tau(  46) = (  0.7333334  0.0666666  0.1663874  )
        47           Ga  tau(  47) = (  0.7333334  0.0666666  0.4997208  )
        48           Ga  tau(  48) = (  0.7333334  0.0666666  0.8330541  )
        49           Ga  tau(  49) = (  0.7333334  0.2666666  0.1663874  )
        50           Ga  tau(  50) = (  0.7333334  0.2666666  0.4997208  )
        51           Ga  tau(  51) = (  0.7333334  0.2666666  0.8330541  )
        52           Ga  tau(  52) = (  0.7333334  0.4666666  0.1663874  )
        53           Ga  tau(  53) = (  0.7333334  0.4666666  0.4997208  )
        54           Ga  tau(  54) = (  0.7333334  0.4666666  0.8330541  )
        55           Ga  tau(  55) = (  0.7333334  0.6666666  0.1663874  )
        56           Ga  tau(  56) = (  0.7333334  0.6666666  0.4997208  )
        57           Ga  tau(  57) = (  0.7333334  0.6666666  0.8330541  )
        58           Ga  tau(  58) = (  0.7333334  0.8666666  0.1663874  )
        59           Ga  tau(  59) = (  0.7333334  0.8666666  0.4997208  )
        60           Ga  tau(  60) = (  0.7333334  0.8666666  0.8330541  )
        61           Ga  tau(  61) = (  0.9333334  0.0666666  0.1663874  )
        62           Ga  tau(  62) = (  0.9333334  0.0666666  0.4997208  )
        63           Ga  tau(  63) = (  0.9333334  0.0666666  0.8330541  )
        64           Ga  tau(  64) = (  0.9333334  0.2666666  0.1663874  )
        65           Ga  tau(  65) = (  0.9333334  0.2666666  0.4997208  )
        66           Ga  tau(  66) = (  0.9333334  0.2666666  0.8330541  )
        67           Ga  tau(  67) = (  0.9333334  0.4666666  0.1663874  )
        68           Ga  tau(  68) = (  0.9333334  0.4666666  0.4997208  )
        69           Ga  tau(  69) = (  0.9333334  0.4666666  0.8330541  )
        70           Ga  tau(  70) = (  0.9333334  0.6666666  0.1663874  )
        71           Ga  tau(  71) = (  0.9333334  0.6666666  0.4997208  )
        72           Ga  tau(  72) = (  0.9333334  0.6666666  0.8330541  )
        73           Ga  tau(  73) = (  0.9333334  0.8666666  0.1663874  )
        74           Ga  tau(  74) = (  0.9333334  0.8666666  0.4997208  )
        75           Ga  tau(  75) = (  0.9333334  0.8666666  0.8330541  )
        76           Ga  tau(  76) = (  0.0666666  0.1333334  0.3330541  )
        77           Ga  tau(  77) = (  0.0666666  0.1333334  0.6663874  )
        78           Ga  tau(  78) = (  0.0666666  0.1333334  0.9997208  )
        79           Ga  tau(  79) = (  0.0666666  0.3333334  0.3330541  )
        80           Ga  tau(  80) = (  0.0666666  0.3333334  0.6663874  )
        81           Ga  tau(  81) = (  0.0666666  0.3333334  0.9997208  )
        82           Ga  tau(  82) = (  0.0666666  0.5333334  0.3330541  )
        83           Ga  tau(  83) = (  0.0666666  0.5333334  0.6663874  )
        84           Ga  tau(  84) = (  0.0666666  0.5333334  0.9997208  )
        85           Ga  tau(  85) = (  0.0666666  0.7333334  0.3330541  )
        86           Ga  tau(  86) = (  0.0666666  0.7333334  0.6663874  )
        87           Ga  tau(  87) = (  0.0666666  0.7333334  0.9997208  )
        88           Ga  tau(  88) = (  0.0666666  0.9333334  0.3330541  )
        89           Ga  tau(  89) = (  0.0666666  0.9333334  0.6663874  )
        90           Ga  tau(  90) = (  0.0666666  0.9333334  0.9997208  )
        91           Ga  tau(  91) = (  0.2666666  0.1333334  0.3330541  )
        92           Ga  tau(  92) = (  0.2666666  0.1333334  0.6663874  )
        93           Ga  tau(  93) = (  0.2666666  0.1333334  0.9997208  )
        94           Ga  tau(  94) = (  0.2666666  0.3333334  0.3330541  )
        95           Ga  tau(  95) = (  0.2666666  0.3333334  0.6663874  )
        96           Ga  tau(  96) = (  0.2666666  0.3333334  0.9997208  )
        97           Ga  tau(  97) = (  0.2666666  0.5333334  0.3330541  )
        98           Ga  tau(  98) = (  0.2666666  0.5333334  0.6663874  )
        99           Ga  tau(  99) = (  0.2666666  0.5333334  0.9997208  )
       100           Ga  tau( 100) = (  0.2666666  0.7333334  0.3330541  )
       101           Ga  tau( 101) = (  0.2666666  0.7333334  0.6663874  )
       102           Ga  tau( 102) = (  0.2666666  0.7333334  0.9997208  )
       103           Ga  tau( 103) = (  0.2666666  0.9333334  0.3330541  )
       104           Ga  tau( 104) = (  0.2666666  0.9333334  0.6663874  )
       105           Ga  tau( 105) = (  0.2666666  0.9333334  0.9997208  )
       106           Ga  tau( 106) = (  0.4666666  0.1333334  0.3330541  )
       107           Ga  tau( 107) = (  0.4666666  0.1333334  0.6663874  )
       108           Ga  tau( 108) = (  0.4666666  0.1333334  0.9997208  )
       109           Ga  tau( 109) = (  0.4666666  0.3333334  0.3330541  )
       110           Ga  tau( 110) = (  0.4666666  0.3333334  0.6663874  )
       111           Ga  tau( 111) = (  0.4666666  0.3333334  0.9997208  )
       112           Ga  tau( 112) = (  0.4666666  0.5333334  0.3330541  )
       113           Ga  tau( 113) = (  0.4666666  0.5333334  0.6663874  )
       114           Ga  tau( 114) = (  0.4666666  0.5333334  0.9997208  )
       115           Ga  tau( 115) = (  0.4666666  0.7333334  0.3330541  )
       116           Ga  tau( 116) = (  0.4666666  0.7333334  0.6663874  )
       117           Ga  tau( 117) = (  0.4666666  0.7333334  0.9997208  )
       118           Ga  tau( 118) = (  0.4666666  0.9333334  0.3330541  )
       119           Ga  tau( 119) = (  0.4666666  0.9333334  0.6663874  )
       120           Ga  tau( 120) = (  0.4666666  0.9333334  0.9997208  )
       121           Ga  tau( 121) = (  0.6666666  0.1333334  0.3330541  )
       122           Ga  tau( 122) = (  0.6666666  0.1333334  0.6663874  )
       123           Ga  tau( 123) = (  0.6666666  0.1333334  0.9997208  )
       124           Ga  tau( 124) = (  0.6666666  0.3333334  0.3330541  )
       125           Ga  tau( 125) = (  0.6666666  0.3333334  0.6663874  )
       126           Ga  tau( 126) = (  0.6666666  0.3333334  0.9997208  )
       127           Ga  tau( 127) = (  0.6666666  0.5333334  0.3330541  )
       128           Ga  tau( 128) = (  0.6666666  0.5333334  0.6663874  )
       129           Ga  tau( 129) = (  0.6666666  0.5333334  0.9997208  )
       130           Ga  tau( 130) = (  0.6666666  0.7333334  0.3330541  )
       131           Ga  tau( 131) = (  0.6666666  0.7333334  0.6663874  )
       132           Ga  tau( 132) = (  0.6666666  0.7333334  0.9997208  )
       133           Ga  tau( 133) = (  0.6666666  0.9333334  0.3330541  )
       134           Ga  tau( 134) = (  0.6666666  0.9333334  0.6663874  )
       135           Ga  tau( 135) = (  0.6666666  0.9333334  0.9997208  )
       136           Ga  tau( 136) = (  0.8666666  0.1333334  0.3330541  )
       137           Ga  tau( 137) = (  0.8666666  0.1333334  0.6663874  )
       138           Ga  tau( 138) = (  0.8666666  0.1333334  0.9997208  )
       139           Ga  tau( 139) = (  0.8666666  0.3333334  0.3330541  )
       140           Ga  tau( 140) = (  0.8666666  0.3333334  0.6663874  )
       141           Ga  tau( 141) = (  0.8666666  0.3333334  0.9997208  )
       142           Ga  tau( 142) = (  0.8666666  0.5333334  0.3330541  )
       143           Ga  tau( 143) = (  0.8666666  0.5333334  0.6663874  )
       144           Ga  tau( 144) = (  0.8666666  0.5333334  0.9997208  )
       145           Ga  tau( 145) = (  0.8666666  0.7333334  0.3330541  )
       146           Ga  tau( 146) = (  0.8666666  0.7333334  0.6663874  )
       147           Ga  tau( 147) = (  0.8666666  0.7333334  0.9997208  )
       148           Ga  tau( 148) = (  0.8666666  0.9333334  0.3330541  )
       149           Ga  tau( 149) = (  0.8666666  0.9333334  0.6663874  )
       150           Ga  tau( 150) = (  0.8666666  0.9333334  0.9997208  )
       151           N   tau( 151) = (  0.1333334  0.0666666  0.6252792  )
       152           N   tau( 152) = (  0.1333334  0.0666666  0.9586126  )
       153           N   tau( 153) = (  0.1333334  0.2666666  0.2919459  )
       154           N   tau( 154) = (  0.1333334  0.2666666  0.6252792  )
       155           N   tau( 155) = (  0.1333334  0.2666666  0.9586126  )
       156           N   tau( 156) = (  0.1333334  0.4666666  0.2919459  )
       157           N   tau( 157) = (  0.1333334  0.4666666  0.6252792  )
       158           N   tau( 158) = (  0.1333334  0.4666666  0.9586126  )
       159           N   tau( 159) = (  0.1333334  0.6666666  0.2919459  )
       160           N   tau( 160) = (  0.1333334  0.6666666  0.6252792  )
       161           N   tau( 161) = (  0.1333334  0.6666666  0.9586126  )
       162           N   tau( 162) = (  0.1333334  0.8666666  0.2919459  )
       163           N   tau( 163) = (  0.1333334  0.8666666  0.6252792  )
       164           N   tau( 164) = (  0.1333334  0.8666666  0.9586126  )
       165           N   tau( 165) = (  0.3333334  0.0666666  0.2919459  )
       166           N   tau( 166) = (  0.3333334  0.0666666  0.6252792  )
       167           N   tau( 167) = (  0.3333334  0.0666666  0.9586126  )
       168           N   tau( 168) = (  0.3333334  0.2666666  0.2919459  )
       169           N   tau( 169) = (  0.3333334  0.2666666  0.6252792  )
       170           N   tau( 170) = (  0.3333334  0.2666666  0.9586126  )
       171           N   tau( 171) = (  0.3333334  0.4666666  0.2919459  )
       172           N   tau( 172) = (  0.3333334  0.4666666  0.6252792  )
       173           N   tau( 173) = (  0.3333334  0.4666666  0.9586126  )
       174           N   tau( 174) = (  0.3333334  0.6666666  0.2919459  )
       175           N   tau( 175) = (  0.3333334  0.6666666  0.6252792  )
       176           N   tau( 176) = (  0.3333334  0.6666666  0.9586126  )
       177           N   tau( 177) = (  0.3333334  0.8666666  0.2919459  )
       178           N   tau( 178) = (  0.3333334  0.8666666  0.6252792  )
       179           N   tau( 179) = (  0.3333334  0.8666666  0.9586126  )
       180           N   tau( 180) = (  0.5333334  0.0666666  0.2919459  )
       181           N   tau( 181) = (  0.5333334  0.0666666  0.6252792  )
       182           N   tau( 182) = (  0.5333334  0.0666666  0.9586126  )
       183           N   tau( 183) = (  0.5333334  0.2666666  0.2919459  )
       184           N   tau( 184) = (  0.5333334  0.2666666  0.6252792  )
       185           N   tau( 185) = (  0.5333334  0.2666666  0.9586126  )
       186           N   tau( 186) = (  0.5333334  0.4666666  0.2919459  )
       187           N   tau( 187) = (  0.5333334  0.4666666  0.6252792  )
       188           N   tau( 188) = (  0.5333334  0.4666666  0.9586126  )
       189           N   tau( 189) = (  0.5333334  0.6666666  0.2919459  )
       190           N   tau( 190) = (  0.5333334  0.6666666  0.6252792  )
       191           N   tau( 191) = (  0.5333334  0.6666666  0.9586126  )
       192           N   tau( 192) = (  0.5333334  0.8666666  0.2919459  )
       193           N   tau( 193) = (  0.5333334  0.8666666  0.6252792  )
       194           N   tau( 194) = (  0.5333334  0.8666666  0.9586126  )
       195           N   tau( 195) = (  0.7333334  0.0666666  0.2919459  )
       196           N   tau( 196) = (  0.7333334  0.0666666  0.6252792  )
       197           N   tau( 197) = (  0.7333334  0.0666666  0.9586126  )
       198           N   tau( 198) = (  0.7333334  0.2666666  0.2919459  )
       199           N   tau( 199) = (  0.7333334  0.2666666  0.6252792  )
       200           N   tau( 200) = (  0.7333334  0.2666666  0.9586126  )
       201           N   tau( 201) = (  0.7333334  0.4666666  0.2919459  )
       202           N   tau( 202) = (  0.7333334  0.4666666  0.6252792  )
       203           N   tau( 203) = (  0.7333334  0.4666666  0.9586126  )
       204           N   tau( 204) = (  0.7333334  0.6666666  0.2919459  )
       205           N   tau( 205) = (  0.7333334  0.6666666  0.6252792  )
       206           N   tau( 206) = (  0.7333334  0.6666666  0.9586126  )
       207           N   tau( 207) = (  0.7333334  0.8666666  0.2919459  )
       208           N   tau( 208) = (  0.7333334  0.8666666  0.6252792  )
       209           N   tau( 209) = (  0.7333334  0.8666666  0.9586126  )
       210           N   tau( 210) = (  0.9333334  0.0666666  0.2919459  )
       211           N   tau( 211) = (  0.9333334  0.0666666  0.6252792  )
       212           N   tau( 212) = (  0.9333334  0.0666666  0.9586126  )
       213           N   tau( 213) = (  0.9333334  0.2666666  0.2919459  )
       214           N   tau( 214) = (  0.9333334  0.2666666  0.6252792  )
       215           N   tau( 215) = (  0.9333334  0.2666666  0.9586126  )
       216           N   tau( 216) = (  0.9333334  0.4666666  0.2919459  )
       217           N   tau( 217) = (  0.9333334  0.4666666  0.6252792  )
       218           N   tau( 218) = (  0.9333334  0.4666666  0.9586126  )
       219           N   tau( 219) = (  0.9333334  0.6666666  0.2919459  )
       220           N   tau( 220) = (  0.9333334  0.6666666  0.6252792  )
       221           N   tau( 221) = (  0.9333334  0.6666666  0.9586126  )
       222           N   tau( 222) = (  0.9333334  0.8666666  0.2919459  )
       223           N   tau( 223) = (  0.9333334  0.8666666  0.6252792  )
       224           N   tau( 224) = (  0.9333334  0.8666666  0.9586126  )
       225           N   tau( 225) = (  0.0666666  0.1333334  0.1252792  )
       226           N   tau( 226) = (  0.0666666  0.1333334  0.4586126  )
       227           N   tau( 227) = (  0.0666666  0.1333334  0.7919459  )
       228           N   tau( 228) = (  0.0666666  0.3333334  0.1252792  )
       229           N   tau( 229) = (  0.0666666  0.3333334  0.4586126  )
       230           N   tau( 230) = (  0.0666666  0.3333334  0.7919459  )
       231           N   tau( 231) = (  0.0666666  0.5333334  0.1252792  )
       232           N   tau( 232) = (  0.0666666  0.5333334  0.4586126  )
       233           N   tau( 233) = (  0.0666666  0.5333334  0.7919459  )
       234           N   tau( 234) = (  0.0666666  0.7333334  0.1252792  )
       235           N   tau( 235) = (  0.0666666  0.7333334  0.4586126  )
       236           N   tau( 236) = (  0.0666666  0.7333334  0.7919459  )
       237           N   tau( 237) = (  0.0666666  0.9333334  0.1252792  )
       238           N   tau( 238) = (  0.0666666  0.9333334  0.4586126  )
       239           N   tau( 239) = (  0.0666666  0.9333334  0.7919459  )
       240           N   tau( 240) = (  0.2666666  0.1333334  0.1252792  )
       241           N   tau( 241) = (  0.2666666  0.1333334  0.4586126  )
       242           N   tau( 242) = (  0.2666666  0.1333334  0.7919459  )
       243           N   tau( 243) = (  0.2666666  0.3333334  0.1252792  )
       244           N   tau( 244) = (  0.2666666  0.3333334  0.4586126  )
       245           N   tau( 245) = (  0.2666666  0.3333334  0.7919459  )
       246           N   tau( 246) = (  0.2666666  0.5333334  0.1252792  )
       247           N   tau( 247) = (  0.2666666  0.5333334  0.4586126  )
       248           N   tau( 248) = (  0.2666666  0.5333334  0.7919459  )
       249           N   tau( 249) = (  0.2666666  0.7333334  0.1252792  )
       250           N   tau( 250) = (  0.2666666  0.7333334  0.4586126  )
       251           N   tau( 251) = (  0.2666666  0.7333334  0.7919459  )
       252           N   tau( 252) = (  0.2666666  0.9333334  0.1252792  )
       253           N   tau( 253) = (  0.2666666  0.9333334  0.4586126  )
       254           N   tau( 254) = (  0.2666666  0.9333334  0.7919459  )
       255           N   tau( 255) = (  0.4666666  0.1333334  0.1252792  )
       256           N   tau( 256) = (  0.4666666  0.1333334  0.4586126  )
       257           N   tau( 257) = (  0.4666666  0.1333334  0.7919459  )
       258           N   tau( 258) = (  0.4666666  0.3333334  0.1252792  )
       259           N   tau( 259) = (  0.4666666  0.3333334  0.4586126  )
       260           N   tau( 260) = (  0.4666666  0.3333334  0.7919459  )
       261           N   tau( 261) = (  0.4666666  0.5333334  0.1252792  )
       262           N   tau( 262) = (  0.4666666  0.5333334  0.4586126  )
       263           N   tau( 263) = (  0.4666666  0.5333334  0.7919459  )
       264           N   tau( 264) = (  0.4666666  0.7333334  0.1252792  )
       265           N   tau( 265) = (  0.4666666  0.7333334  0.4586126  )
       266           N   tau( 266) = (  0.4666666  0.7333334  0.7919459  )
       267           N   tau( 267) = (  0.4666666  0.9333334  0.1252792  )
       268           N   tau( 268) = (  0.4666666  0.9333334  0.4586126  )
       269           N   tau( 269) = (  0.4666666  0.9333334  0.7919459  )
       270           N   tau( 270) = (  0.6666666  0.1333334  0.1252792  )
       271           N   tau( 271) = (  0.6666666  0.1333334  0.4586126  )
       272           N   tau( 272) = (  0.6666666  0.1333334  0.7919459  )
       273           N   tau( 273) = (  0.6666666  0.3333334  0.1252792  )
       274           N   tau( 274) = (  0.6666666  0.3333334  0.4586126  )
       275           N   tau( 275) = (  0.6666666  0.3333334  0.7919459  )
       276           N   tau( 276) = (  0.6666666  0.5333334  0.1252792  )
       277           N   tau( 277) = (  0.6666666  0.5333334  0.4586126  )
       278           N   tau( 278) = (  0.6666666  0.5333334  0.7919459  )
       279           N   tau( 279) = (  0.6666666  0.7333334  0.1252792  )
       280           N   tau( 280) = (  0.6666666  0.7333334  0.4586126  )
       281           N   tau( 281) = (  0.6666666  0.7333334  0.7919459  )
       282           N   tau( 282) = (  0.6666666  0.9333334  0.1252792  )
       283           N   tau( 283) = (  0.6666666  0.9333334  0.4586126  )
       284           N   tau( 284) = (  0.6666666  0.9333334  0.7919459  )
       285           N   tau( 285) = (  0.8666666  0.1333334  0.1252792  )
       286           N   tau( 286) = (  0.8666666  0.1333334  0.4586126  )
       287           N   tau( 287) = (  0.8666666  0.1333334  0.7919459  )
       288           N   tau( 288) = (  0.8666666  0.3333334  0.1252792  )
       289           N   tau( 289) = (  0.8666666  0.3333334  0.4586126  )
       290           N   tau( 290) = (  0.8666666  0.3333334  0.7919459  )
       291           N   tau( 291) = (  0.8666666  0.5333334  0.1252792  )
       292           N   tau( 292) = (  0.8666666  0.5333334  0.4586126  )
       293           N   tau( 293) = (  0.8666666  0.5333334  0.7919459  )
       294           N   tau( 294) = (  0.8666666  0.7333334  0.1252792  )
       295           N   tau( 295) = (  0.8666666  0.7333334  0.4586126  )
       296           N   tau( 296) = (  0.8666666  0.7333334  0.7919459  )
       297           N   tau( 297) = (  0.8666666  0.9333334  0.1252792  )
       298           N   tau( 298) = (  0.8666666  0.9333334  0.4586126  )
       299           N   tau( 299) = (  0.8666666  0.9333334  0.7919459  )
       300           Ga  tau( 300) = (  0.1333334  0.0666666  0.2919459  )

     number of k points=     6  Gaussian smearing, width (Ry)=  0.0100
                       cart. coord. in units 2pi/alat
        k(    1) = (   0.0000000   0.0000000   0.0000000), wk =   0.2500000
        k(    2) = (   0.0000000   0.0000000  -0.5112854), wk =   0.2500000
        k(    3) = (   0.0000000  -0.5773503   0.0000000), wk =   0.5000000
        k(    4) = (   0.0000000  -0.5773503  -0.5112854), wk =   0.5000000
        k(    5) = (  -0.5000000  -0.2886751   0.0000000), wk =   0.2500000
        k(    6) = (  -0.5000000  -0.2886751  -0.5112854), wk =   0.2500000

                       cryst. coord.
        k(    1) = (   0.0000000   0.0000000   0.0000000), wk =   0.2500000
        k(    2) = (   0.0000000   0.0000000  -0.5000000), wk =   0.2500000
        k(    3) = (   0.0000000  -0.5000000   0.0000000), wk =   0.5000000
        k(    4) = (   0.0000000  -0.5000000  -0.5000000), wk =   0.5000000
        k(    5) = (  -0.5000000  -0.0000000   0.0000000), wk =   0.2500000
        k(    6) = (  -0.5000000  -0.0000000  -0.5000000), wk =   0.2500000

     Dense  grid:  2698283 G-vectors     FFT dimensions: ( 192, 192, 180)

     Smooth grid:  1930731 G-vectors     FFT dimensions: ( 180, 180, 160)

     Dynamical RAM for                 wfc:      93.42 MB

     Dynamical RAM for     wfc (w. buffer):     280.26 MB

     Dynamical RAM for           str. fact:       1.29 MB

     Dynamical RAM for           local pot:       0.00 MB

     Dynamical RAM for          nlocal pot:     224.93 MB

     Dynamical RAM for                qrad:       3.00 MB

     Dynamical RAM for          rho,v,vnew:       4.46 MB

     Dynamical RAM for               rhoin:       1.49 MB

     Dynamical RAM for            rho*nmix:      10.29 MB

     Dynamical RAM for           G-vectors:       2.64 MB

     Dynamical RAM for          h,s,v(r/c):    1931.67 MB

     Dynamical RAM for          <psi|beta>:      96.89 MB

     Dynamical RAM for                 psi:     373.69 MB

     Dynamical RAM for                hpsi:     373.69 MB

     Dynamical RAM for                spsi:     373.69 MB

     Dynamical RAM for      wfcinit/wfcrot:     247.22 MB

     Dynamical RAM for           addusdens:      54.68 MB

     Dynamical RAM for          addusforce:     103.36 MB

     Dynamical RAM for         addusstress:      32.57 MB

     Estimated static dynamical RAM per process >     524.22 MB

     Estimated max dynamical RAM per process >       3.60 GB

     Estimated total dynamical RAM >     919.10 GB

     Atomic positions and unit cell read from directory:
     ./GaN.save/
     Atomic positions from file used, from input discarded
 

     Check: negative core charge=   -0.000003

     The initial density is read from file :
     ./GaN.save/charge-density



     %%%%%%%%%%%%%%%%%%%%%%%%%%%%%%%%%%%%%%%%%%%%%%%%%%%%%%%%%%%%%%%%%%%%%%%%
     %                                                                      %
     % You are using vdW-DF, which was implemented by the Thonhauser group. %
     % Please cite the following two papers that made this development      %
     % possible and the two reviews that describe the various versions:     %
     %                                                                      %
     %   T. Thonhauser et al., PRL 115, 136402 (2015).                      %
     %   T. Thonhauser et al., PRB 76, 125112 (2007).                       %
     %   K. Berland et al., Rep. Prog. Phys. 78, 066501 (2015).             %
     %   D.C. Langreth et al., J. Phys.: Condens. Matter 21, 084203 (2009). %
     %                                                                      %
     % If you are calculating stress with vdW-DF, please also cite:         %
     %                                                                      %
     %   R. Sabatini et al., J. Phys.: Condens. Matter 24, 424209 (2012).   %
     %                                                                      %
     %%%%%%%%%%%%%%%%%%%%%%%%%%%%%%%%%%%%%%%%%%%%%%%%%%%%%%%%%%%%%%%%%%%%%%%%

     %%%%%%%%%%%%%%%%%%%%%%%%%%%%%%%%%%%%%%%%%%%%%%%%%%%%%%%%%%%%%%%%%%%%%%%%
     %                                                                      %
     %  vdW-DF NEWS:                                                        %
     %                                                                      %
     %  * vdW-DF3 is now available. DOI: 10.1021/acs.jctc.0c00471           %
     %    use with input_dft = 'vdW-DF3-opt1' or 'vdW-DF3-opt2'             %
     %                                                                      %
     %  * Unscreened and range-separated vdW-DF hybrid functionals          %
     %    DOI: 10.1063/1.4986522 and 10.1088/1361-648X/ac2ad2               %
     %    use with input_dft = 'vdW-DF-cx0' (etc) and 'vdW-DF-ahcx'         %
     %                                                                      %
     %%%%%%%%%%%%%%%%%%%%%%%%%%%%%%%%%%%%%%%%%%%%%%%%%%%%%%%%%%%%%%%%%%%%%%%%


     Carrying out vdW-DF run using the following parameters:
     Nqs    =  20  Npoints =  1024  r_max =  100.000
     q_mesh =  0.00001000  0.04494208  0.09755937  0.15916263
               0.23128650  0.31572767  0.41458969  0.53033537
               0.66584808  0.82450364  1.01025438  1.22772762
               1.48234092  1.78043706  2.12944203  2.53805004
               3.01644009  3.57652955  4.23227104  5.00000000


     -----------------------------------------------
     Non-local corr. energy    =      82.13487194 Ry
     -----------------------------------------------

     Starting wfcs from file
     Checking if some PAW data can be deallocated... 
       PAW data deallocated on  149 nodes for type:  1
       PAW data deallocated on  107 nodes for type:  2

     total cpu time spent up to now is       38.7 secs

     Self-consistent Calculation

     iteration #  1     ecut=    70.00 Ry     beta= 0.70
     Davidson diagonalization with overlap

---- Real-time Memory Report at c_bands before calling an iterative solver
           551 MiB given to the printing process from OS
             0 MiB allocation reported by mallinfo(arena+hblkhd)
       1650494 MiB available memory on the node where the printing process lives
------------------
     ethr =  1.00E-05,  avg # of iterations =  1.0

     Threshold (ethr) on eigenvalues was too large:
     Diagonalizing with lowered threshold

     Davidson diagonalization with overlap

---- Real-time Memory Report at c_bands before calling an iterative solver
          2344 MiB given to the printing process from OS
             0 MiB allocation reported by mallinfo(arena+hblkhd)
       1622974 MiB available memory on the node where the printing process lives
------------------
     c_bands:  2 eigenvalues not converged
     ethr =  3.24E-14,  avg # of iterations = 18.2


     -----------------------------------------------
     Non-local corr. energy    =      82.13487176 Ry
     -----------------------------------------------


     total cpu time spent up to now is     3521.1 secs

     End of self-consistent calculation

          k = 0.0000 0.0000 0.0000 (241213 PWs)   bands (ev):

    -7.0909  -7.0174  -7.0154  -6.9095  -6.9063  -6.9057  -6.8447  -6.8444
    -6.8342  -6.8334  -6.8241  -6.8162  -6.7828  -6.7713  -6.7711  -6.7226
    -6.6484  -6.6468  -6.6019  -6.5671  -6.5670  -6.5645  -6.5598  -6.5595
    -6.5275  -6.4811  -6.4804  -6.4803  -6.4657  -6.4570  -6.4569  -6.4468
    -6.4466  -6.4376  -6.4257  -6.4255  -6.4235  -6.4234  -6.4164  -6.4154
    -6.4075  -6.4031  -6.4014  -6.3893  -6.3878  -6.3819  -6.3808  -6.3772
    -6.3748  -6.3745  -6.3679  -6.3625  -6.3623  -6.3619  -6.3560  -6.3559
    -6.3547  -6.3476  -6.3445  -6.3439  -6.3406  -6.3401  -6.3392  -6.3372
    -6.3308  -6.3250  -6.3242  -6.3230  -6.3178  -6.3169  -6.3166  -6.3045
    -6.3037  -6.3031  -6.2989  -6.2986  -6.2889  -6.2884  -6.2839  -6.2788
    -6.2783  -6.2695  -6.2685  -6.2683  -6.2650  -6.2636  -6.2634  -6.2587
    -6.2585  -6.2579  -6.2559  -6.2510  -6.2506  -6.2481  -6.2419  -6.2417
    -6.2383  -6.2369  -6.2364  -6.2354  -6.2349  -6.2339  -6.2338  -6.2332
    -6.2330  -6.2301  -6.2282  -6.2277  -6.2274  -6.2202  -6.2187  -6.2182
    -6.2163  -6.2163  -6.2121  -6.2119  -6.2117  -6.2113  -6.2067  -6.2062
    -6.2022  -6.2013  -6.2013  -6.1962  -6.1959  -6.1954  -6.1949  -6.1874
    -6.1872  -6.1867  -6.1862  -6.1861  -6.1829  -6.1815  -6.1796  -6.1775
    -6.1774  -6.1677  -6.1654  -6.1644  -6.1625  -6.1580  -6.1569  -6.1532
    -6.1523  -6.1472  -6.1467  -6.1463  -6.1446  -6.1438  -6.1420  -6.1379
    -6.1374  -6.1264  -6.1130  -6.1122  -6.1080  -6.0891  -6.0865  -6.0831
    -6.0184  -5.9569  -5.9552  -5.7567  -5.7554  -5.7291  -5.7088  -5.7025
    -5.7018  -5.6998  -5.6991  -5.6527  -5.5174  -5.5172  -5.4723  -5.4723
    -5.4176  -5.4172  -5.3945  -5.3733  -5.3733  -5.3716  -5.3568  -5.3568
    -5.3498  -5.3421  -5.3418  -5.3342  -5.3313  -5.3312  -5.3291  -5.3205
    -5.3203  -5.3202  -5.3181  -5.3181  -5.3149  -5.3133  -5.3127  -5.3119
    -5.3100  -5.3045  -5.3014  -5.3012  -5.2947  -5.2944  -5.2898  -5.2894
    -5.2844  -5.2835  -5.2775  -5.2773  -5.2750  -5.2745  -5.2738  -5.2706
    -5.2705  -5.2693  -5.2686  -5.2660  -5.2614  -5.2605  -5.2591  -5.2574
    -5.2559  -5.2558  -5.2526  -5.2523  -5.2436  -5.2433  -5.2427  -5.2375
    -5.2375  -5.2360  -5.2359  -5.2268  -5.2264  -5.2257  -5.2257  -5.2249
    -5.2246  -5.2220  -5.2219  -5.2209  -5.2135  -5.2121  -5.2109  -5.2108
    -5.2100  -5.2098  -5.2064  -5.2001  -5.2000  -5.1938  -5.1937  -5.1903
    -5.1903  -5.1902  -5.1872  -5.1862  -5.1861  -5.1852  -5.1803  -5.1800
    -5.1786  -5.1777  -5.1776  -5.1751  -5.1745  -5.1726  -5.1722  -5.1678
    -5.1606  -5.1605  -5.1580  -5.1579  -5.1545  -5.1539  -5.1538  -5.1460
    -5.1460  -5.1450  -5.1349  -5.1349  -5.1347  -5.1340  -5.1331  -5.1331
    -5.1314  -5.1298  -5.1293  -5.1293  -5.1250  -5.1250  -5.1203  -5.1197
    -5.1196  -5.1148  -5.1123  -5.1123  -5.1120  -5.1104  -5.1076  -5.1075
    -5.1061  -5.1060  -5.1050  -5.1035  -5.1035  -5.1011  -5.1011  -5.1004
    -5.0993  -5.0993  -5.0986  -5.0981  -5.0980  -5.0959  -5.0958  -5.0951
    -5.0919  -5.0918  -5.0911  -5.0896  -5.0895  -5.0891  -5.0890  -5.0890
    -5.0839  -5.0830  -5.0829  -5.0811  -5.0808  -5.0807  -5.0800  -5.0799
    -5.0798  -5.0793  -5.0774  -5.0774  -5.0759  -5.0736  -5.0735  -5.0723
    -5.0723  -5.0719  -5.0717  -5.0710  -5.0709  -5.0705  -5.0690  -5.0690
    -5.0688  -5.0679  -5.0666  -5.0665  -5.0659  -5.0652  -5.0651  -5.0636
    -5.0636  -5.0636  -5.0635  -5.0616  -5.0616  -5.0601  -5.0601  -5.0600
    -5.0573  -5.0573  -5.0562  -5.0559  -5.0558  -5.0558  -5.0537  -5.0537
    -5.0527  -5.0520  -5.0520  -5.0513  -5.0501  -5.0500  -5.0500  -5.0473
    -5.0473  -5.0460  -5.0459  -5.0445  -5.0444  -5.0442  -5.0441  -5.0440
    -5.0430  -5.0416  -5.0416  -5.0412  -5.0412  -5.0393  -5.0387  -5.0387
    -5.0386  -5.0381  -5.0380  -5.0366  -5.0355  -5.0355  -5.0352  -5.0351
    -5.0342  -5.0333  -5.0318  -5.0318  -5.0297  -5.0297  -5.0293  -5.0286
    -5.0286  -5.0285  -5.0279  -5.0254  -5.0254  -5.0250  -5.0250  -5.0248
    -5.0240  -5.0234  -5.0229  -5.0229  -5.0217  -5.0217  -5.0209  -5.0197
    -5.0197  -5.0192  -5.0191  -5.0191  -5.0182  -5.0170  -5.0164  -5.0164
    -5.0155  -5.0148  -5.0148  -5.0139  -5.0137  -5.0137  -5.0117  -5.0109
    -5.0106  -5.0105  -5.0094  -5.0082  -5.0082  -5.0065  -5.0064  -5.0063
    -5.0057  -5.0049  -5.0049  -5.0024  -5.0024  -5.0023  -5.0019  -5.0017
    -5.0008  -4.9997  -4.9996  -4.9991  -4.9971  -4.9965  -4.9965  -4.9951
    -4.9951  -4.9939  -4.9936  -4.9936  -4.9915  -4.9915  -4.9911  -4.9911
    -4.9910  -4.9892  -4.9881  -4.9881  -4.9875  -4.9873  -4.9871  -4.9870
    -4.9847  -4.9847  -4.9845  -4.9835  -4.9832  -4.9832  -4.9823  -4.9810
    -4.9810  -4.9802  -4.9793  -4.9793  -4.9785  -4.9784  -4.9782  -4.9755
    -4.9755  -4.9754  -4.9738  -4.9738  -4.9725  -4.9724  -4.9717  -4.9712
    -4.9712  -4.9711  -4.9699  -4.9684  -4.9684  -4.9673  -4.9665  -4.9663
    -4.9663  -4.9661  -4.9656  -4.9656  -4.9648  -4.9648  -4.9629  -4.9623
    -4.9623  -4.9619  -4.9619  -4.9615  -4.9615  -4.9607  -4.9605  -4.9605
    -4.9561  -4.9549  -4.9549  -4.9544  -4.9541  -4.9540  -4.9529  -4.9529
    -4.9521  -4.9521  -4.9502  -4.9501  -4.9501  -4.9495  -4.9493  -4.9493
    -4.9483  -4.9468  -4.9462  -4.9461  -4.9433  -4.9430  -4.9419  -4.9419
    -4.9415  -4.9414  -4.9411  -4.9400  -4.9389  -4.9389  -4.9380  -4.9377
    -4.9376  -4.9375  -4.9363  -4.9362  -4.9352  -4.9350  -4.9348  -4.9344
    -4.9343  -4.9332  -4.9332  -4.9331  -4.9327  -4.9326  -4.9315  -4.9315
    -4.9303  -4.9296  -4.9296  -4.9293  -4.9284  -4.9284  -4.9267  -4.9267
    -4.9232  -4.9232  -4.9232  -4.9221  -4.9218  -4.9217  -4.9207  -4.9204
    -4.9202  -4.9202  -4.9195  -4.9194  -4.9188  -4.9169  -4.9169  -4.9167
    -4.9163  -4.9163  -4.9160  -4.9152  -4.9152  -4.9134  -4.9130  -4.9130
    -4.9125  -4.9114  -4.9108  -4.9100  -4.9099  -4.9086  -4.9084  -4.9083
    -4.9068  -4.9067  -4.9062  -4.9035  -4.9034  -4.9034  -4.9017  -4.9017
    -4.9003  -4.9003  -4.8987  -4.8960  -4.8959  -4.8958  -4.8954  -4.8951
    -4.8950  -4.8939  -4.8934  -4.8934  -4.8932  -4.8922  -4.8922  -4.8914
    -4.8913  -4.8913  -4.8899  -4.8897  -4.8897  -4.8882  -4.8881  -4.8881
    -4.8851  -4.8851  -4.8844  -4.8835  -4.8834  -4.8812  -4.8812  -4.8810
    -4.8806  -4.8806  -4.8796  -4.8775  -4.8775  -4.8768  -4.8751  -4.8750
    -4.8735  -4.8735  -4.8724  -4.8724  -4.8720  -4.8687  -4.8687  -4.8675
    -4.8675  -4.8665  -4.8651  -4.8638  -4.8637  -4.8635  -4.8635  -4.8626
    -4.8623  -4.8613  -4.8601  -4.8601  -4.8596  -4.8584  -4.8583  -4.8575
    -4.8574  -4.8550  -4.8549  -4.8541  -4.8532  -4.8527  -4.8526  -4.8525
    -4.8512  -4.8512  -4.8502  -4.8502  -4.8485  -4.8485  -4.8471  -4.8452
    -4.8429  -4.8429  -4.8411  -4.8395  -4.8394  -4.8372  -4.8372  -4.8366
    -4.8365  -4.8354  -4.8325  -4.8321  -4.8307  -4.8307  -4.8296  -4.8295
    -4.8291  -4.8270  -4.8250  -4.8250  -4.8226  -4.8225  -4.8205  -4.8203
    -4.8198  -4.8189  -4.8188  -4.8177  -4.8176  -4.8167  -4.8166  -4.8115
    -4.8112  -4.8112  -4.8107  -4.8089  -4.8084  -4.8071  -4.8071  -4.8027
    -4.8027  -4.8018  -4.8012  -4.8012  -4.7959  -4.7959  -4.7864  -4.7863
    -4.7851  -4.7788  -4.7787  -4.7787  -4.7519  -4.7241  -4.7240  -4.7198
    -4.7198  -4.6901  -4.6604  -4.6604  -4.6533  -4.6533  -4.6281  -4.6260
    -4.3363  -4.3280  -4.3276  -4.3031  -4.2945  -4.2945  -4.2218  -4.1939
    -4.0846  -4.0841  -4.0585  -4.0584  -4.0437  -4.0436  -4.0361  -4.0257
    -4.0011  -4.0009  -3.9983  -3.9980  -3.9947  -3.9943  -3.9653  -3.9579
    -3.9577  -3.9401  -3.9254  -3.9252  -3.9051  -3.9025  -3.9025  -3.8584
    -3.8584  -3.8300  -3.8300  -3.8197  -3.8077  -3.7968  -3.7659  -3.7654
    -3.7600  -3.7596  -3.7533  -3.7011  -3.6983  -3.6979  -3.6979  -3.6971
    -3.6968  -3.6487  -3.5538  -3.4985  -3.4978  -3.4645  -3.3950  -3.3950
    -3.3869  -3.3867  -3.3542  -3.3541  -3.3536  -3.3345  -3.3312  -3.3137
    -3.3135  -3.3083  -3.2770  -3.2769  -3.2369  -3.2368  -3.2361  -3.2359
    -3.2356  -3.2263  -3.2202  -3.2048  -3.2039  -3.2039  -3.1946  -3.1938
    -3.1936  -3.1915  -3.1809  -3.1809  -3.1767  -3.1704  -3.1618  -3.1618
    -3.1534  -3.1532  -3.1472  -3.1471  -3.1321  -3.1287  -3.1285  -3.1282
    -3.1281  -3.0967  -3.0352  -3.0350  -3.0225  -3.0113  -2.9660  -2.9659
    -2.9645  -2.9584  -2.9584  -2.9562  -2.9241  -2.9240  -2.9176  -2.9008
    -2.9006  -2.8684  -2.8445  -2.8443  -2.8236  -2.8234  -2.8175  -2.7883
    -2.7850  -2.7848  -2.7819  -2.7785  -2.7784  -2.7555  -2.7542  -2.7541
     1.1980   2.0540   2.2925   2.4064   2.4076   2.4233   2.5657   2.5657
     2.5892   2.5894   2.5947   2.6159   2.6164   2.6367   2.6691   2.6717
     2.6717   2.6930   2.7030   2.7031   2.7114   2.7168   2.7171   2.7314
     2.7315   2.7338   2.7353   2.7518   2.7550   2.7554   2.7644   2.7648
     2.8344   2.8348   2.8404   2.9093   2.9102   2.9105   2.9803   2.9804
     2.9834   2.9999   3.0161   3.0242   3.0247   3.0335   3.0351   3.0496
     3.0587   3.0590   3.0636   3.0636   3.0970   3.0970   3.1139   3.1140
     3.1557   3.1558   3.1776   3.1906   3.1910   3.2447   3.2992   3.3010
     3.3011   3.3115   3.3115   3.3152   3.3238   3.3239   3.3290   3.3359
     3.3365   3.3400   3.3400   3.3479   3.3480   3.3567   3.3570   3.3700
     3.3924   3.3930   3.4026   3.4029   3.4033   3.4560   3.6160   3.6198
     3.7069   3.7070   3.7478   3.7480   3.7503   3.7541   3.7689   3.7691
     3.7834   3.8029   3.8031   3.8142   3.8142   3.8193   3.8193   3.8431
     3.8539   3.8934   3.9853   3.9854   4.0124   4.0231   4.0234   4.0303
     4.0394   4.0400   4.0517   4.0556   4.0557   4.0636   4.0695   4.0699
     4.0726   4.0808   4.0810   4.4092   4.5373   4.5376   4.5781   4.5785
     4.6015   4.6159   4.6163   4.6358   4.6370   4.6612   4.6653   4.6750
     4.6757   4.7084   4.7237   4.7241   4.7246   4.7527   4.7694   4.7797
     4.7798   4.8037   4.8039   4.8474   4.9583   4.9588   5.0483   5.0483
     5.0550   5.1009   5.1031   5.1073   5.1073   5.1112   5.1113   5.1298
     5.4375   5.4450   5.4588   5.4590   5.5048   5.5050   5.5291   5.5292
     5.5690   5.5690   5.5714   5.5715   5.5764   5.5851   5.5851   5.5963
     5.6159   5.6556   5.6790   5.6797   5.7502   5.7505   5.7660   5.8207
     5.8240   5.8248   5.8309   5.8659   5.8660   5.8786   5.9139   5.9140
     5.9403   5.9408   5.9649   5.9651   5.9747   5.9749   5.9839   5.9976
     5.9977   6.0124   6.0199   6.0333   6.0346   6.0451   6.0454   6.0473
     6.0622   6.0625   6.0626   6.0715   6.0760   6.0763   6.0818   6.0820
     6.0927   6.0931   6.0946   6.0948   6.0968   6.1035   6.1036   6.1073
     6.1104   6.1105   6.1157   6.1185   6.1389   6.1397   6.1399   6.1432
     6.1632   6.1633   6.1720   6.2042   6.2046   6.2207   6.3228   6.3232
     6.3458   6.3870   6.3871   6.3918   6.3934   6.4047   6.4053   6.4119
     6.4243   6.4245   6.4410   6.4411   6.4450   6.4626   6.4627   6.4698
     6.4823   6.5153   6.5153   6.5244   6.5423   6.5677   6.5679   6.6048
     6.6051   6.6175   6.6199   6.6491   6.6492   6.6561   6.6590   6.6591
     6.6804   6.6831   6.6837   6.7142   6.7314   6.7315   6.7357   6.7448
     6.7448   6.7462   6.7541   6.7568   6.7568   6.7625   6.7631   6.7731
     6.7732   6.7750   6.7781   6.7786   6.8122   6.8180   6.8349   6.8350
     6.8454   6.8588   6.8588   6.8855   6.9047   6.9251   6.9251   6.9272
     6.9305   6.9306   6.9561   6.9562   6.9682   7.0113   7.0114   7.0353
     7.1060   7.1184   7.1185   7.1723   7.1726   7.1960   7.2040   7.2044
     7.2308   7.2470   7.2784   7.2784   7.3040   7.3106   7.3205   7.3208
     7.3406   7.3413   7.3646   7.3878   7.3883   7.4000   7.4003   7.4174
     7.4266   7.4402   7.4403   7.4474   7.4476   7.4540   7.4716   7.4761
     7.4763   7.4773   7.4775   7.4776   7.4839   7.4840   7.4873   7.4887
     7.4889   7.4973   7.4982   7.4983   7.5032   7.5078   7.5080   7.5103
     7.5121   7.5121   7.5132   7.5270   7.5276   7.5353   7.5384   7.5390
     7.5396   7.5479   7.5488   7.5575   7.5609   7.5663   7.5677   7.5678
     7.5937   7.5937   7.6034   7.6122   7.6123   7.6598   7.6675   7.6676
     7.7102   7.7105   7.7178   7.7235   7.7339   7.7339   7.7499   7.7501
     7.7557   7.7730   7.7733   7.7878   7.7967   7.7982   7.7984   7.8221
     7.8222   7.8301   7.8301   7.8319   7.8319   7.8535   7.8595   7.9027
     7.9038   7.9533   8.0054   8.0115   8.0119   8.0139   8.0140   8.0705
     8.0877   8.0878   8.1078   8.1079   8.1320   8.1466   8.1470   8.1599
     8.1599   8.1842   8.1950   8.1951   8.2110   8.2150   8.3776   8.3777
     8.4407   8.4408   8.4435   8.4435   8.4783   8.4874   8.5418   8.5421
     8.5635   8.5671   8.5672   8.6037   8.6038   8.8001   8.8595   8.8596
     9.6494   9.9238   9.9244  10.3652  11.9862  12.0929  12.1806  12.1990
    12.2006  12.3161  12.3162  12.3534  12.5496  12.7029  12.7047  12.7124
    12.8495  12.9087  12.9149  12.9157  12.9697  12.9752  12.9756  12.9875
    12.9878  13.0045  13.0277  13.0289  13.0295  13.0659  13.0662  13.0767
    13.1060  13.1060  13.1118  13.1120  13.1313  13.1404  13.2617  13.5205
    13.5220  13.5644  13.7132  13.7148  13.7319  13.7775  13.7778  13.7996
    13.8055  13.8620  13.8626  13.8752  13.8757  13.8850  13.9111  13.9149
    13.9154  13.9176  13.9527  13.9531  13.9685  13.9687  13.9792  13.9799
    13.9888  13.9988  14.0108  14.0114  14.0331  14.0494  14.0621  14.0741
    14.0743  14.0828  14.0875  14.0877  14.1109  14.1110  14.1226  14.1231
    14.1274  14.1369  14.1370  14.1429  14.1434  14.1478  14.1487  14.1614
    14.2009  14.2013  14.2027  14.2028  14.2182  14.2258  14.2504  14.2507
    14.2719  14.2720  14.2759  14.2803  14.2805  14.3030  14.3187  14.3188
    14.3264  14.3265  14.3551  14.3780  14.3780  14.4003  14.5199  14.5200
    14.5798  14.5859  14.5984  14.5986  14.8213  14.8213  14.8332  14.9468
    14.9514  14.9516  14.9607  14.9875  14.9877  14.9918  15.0129  15.0134
    15.0759  15.0951  15.1063  15.1066  15.1101  15.1447  15.1457  15.1558
    15.1623  15.1629  15.1693  15.1703  15.1705  15.2073  15.2074  15.2231
    15.2241  15.2260  15.2632  15.2993  15.2995  15.3007  15.3009  15.3261
    15.4127  15.4464  15.4469  15.4802  15.4902  15.4906  15.5470  15.6101
    15.7461  15.7465  15.7506  15.7512  15.7822  15.7829  15.8509  15.8510
    15.8914  15.8919  15.8926  15.9107  15.9259  15.9674  15.9675  15.9975
    15.9978  16.0214  16.0216  16.0552  16.0552  16.0626  16.0765  16.1052
    16.1055  16.1128  16.1536  16.1575  16.1579  16.1767  16.1767  16.1770
    16.1816  16.2039  16.2065  16.2065  16.2106  16.2116  16.2133  16.2190
    16.2192  16.2226  16.2312  16.2316  16.2365  16.2370  16.2442  16.2587
    16.2590  16.2634  16.2719  16.2721  16.2749  16.2752  16.2792  16.2827
    16.3014  16.3017  16.3236  16.3239  16.3329  16.3367  16.3586  16.3931
    16.3932  16.4104  16.4293  16.4297  16.4345  16.4442  16.4442  16.4583
    16.4617  16.4618  16.4730  16.4731  16.4810  16.4814  16.4835  16.4837
    16.4938  16.4942  16.4969  16.5026  16.5029  16.5031  16.5172  16.5178
    16.5192  16.5193  16.5225  16.5226  16.5408  16.5624  16.5624  16.5655
    16.5656  16.5702  16.5708  16.5783  16.5927  16.6049  16.6054  16.6338
    16.6838  16.6912  16.6915  16.7432  16.7436  16.7496  16.7559  16.7560

     occupation numbers 
     1.0000   1.0000   1.0000   1.0000   1.0000   1.0000   1.0000   1.0000
     1.0000   1.0000   1.0000   1.0000   1.0000   1.0000   1.0000   1.0000
     1.0000   1.0000   1.0000   1.0000   1.0000   1.0000   1.0000   1.0000
     1.0000   1.0000   1.0000   1.0000   1.0000   1.0000   1.0000   1.0000
     1.0000   1.0000   1.0000   1.0000   1.0000   1.0000   1.0000   1.0000
     1.0000   1.0000   1.0000   1.0000   1.0000   1.0000   1.0000   1.0000
     1.0000   1.0000   1.0000   1.0000   1.0000   1.0000   1.0000   1.0000
     1.0000   1.0000   1.0000   1.0000   1.0000   1.0000   1.0000   1.0000
     1.0000   1.0000   1.0000   1.0000   1.0000   1.0000   1.0000   1.0000
     1.0000   1.0000   1.0000   1.0000   1.0000   1.0000   1.0000   1.0000
     1.0000   1.0000   1.0000   1.0000   1.0000   1.0000   1.0000   1.0000
     1.0000   1.0000   1.0000   1.0000   1.0000   1.0000   1.0000   1.0000
     1.0000   1.0000   1.0000   1.0000   1.0000   1.0000   1.0000   1.0000
     1.0000   1.0000   1.0000   1.0000   1.0000   1.0000   1.0000   1.0000
     1.0000   1.0000   1.0000   1.0000   1.0000   1.0000   1.0000   1.0000
     1.0000   1.0000   1.0000   1.0000   1.0000   1.0000   1.0000   1.0000
     1.0000   1.0000   1.0000   1.0000   1.0000   1.0000   1.0000   1.0000
     1.0000   1.0000   1.0000   1.0000   1.0000   1.0000   1.0000   1.0000
     1.0000   1.0000   1.0000   1.0000   1.0000   1.0000   1.0000   1.0000
     1.0000   1.0000   1.0000   1.0000   1.0000   1.0000   1.0000   1.0000
     1.0000   1.0000   1.0000   1.0000   1.0000   1.0000   1.0000   1.0000
     1.0000   1.0000   1.0000   1.0000   1.0000   1.0000   1.0000   1.0000
     1.0000   1.0000   1.0000   1.0000   1.0000   1.0000   1.0000   1.0000
     1.0000   1.0000   1.0000   1.0000   1.0000   1.0000   1.0000   1.0000
     1.0000   1.0000   1.0000   1.0000   1.0000   1.0000   1.0000   1.0000
     1.0000   1.0000   1.0000   1.0000   1.0000   1.0000   1.0000   1.0000
     1.0000   1.0000   1.0000   1.0000   1.0000   1.0000   1.0000   1.0000
     1.0000   1.0000   1.0000   1.0000   1.0000   1.0000   1.0000   1.0000
     1.0000   1.0000   1.0000   1.0000   1.0000   1.0000   1.0000   1.0000
     1.0000   1.0000   1.0000   1.0000   1.0000   1.0000   1.0000   1.0000
     1.0000   1.0000   1.0000   1.0000   1.0000   1.0000   1.0000   1.0000
     1.0000   1.0000   1.0000   1.0000   1.0000   1.0000   1.0000   1.0000
     1.0000   1.0000   1.0000   1.0000   1.0000   1.0000   1.0000   1.0000
     1.0000   1.0000   1.0000   1.0000   1.0000   1.0000   1.0000   1.0000
     1.0000   1.0000   1.0000   1.0000   1.0000   1.0000   1.0000   1.0000
     1.0000   1.0000   1.0000   1.0000   1.0000   1.0000   1.0000   1.0000
     1.0000   1.0000   1.0000   1.0000   1.0000   1.0000   1.0000   1.0000
     1.0000   1.0000   1.0000   1.0000   1.0000   1.0000   1.0000   1.0000
     1.0000   1.0000   1.0000   1.0000   1.0000   1.0000   1.0000   1.0000
     1.0000   1.0000   1.0000   1.0000   1.0000   1.0000   1.0000   1.0000
     1.0000   1.0000   1.0000   1.0000   1.0000   1.0000   1.0000   1.0000
     1.0000   1.0000   1.0000   1.0000   1.0000   1.0000   1.0000   1.0000
     1.0000   1.0000   1.0000   1.0000   1.0000   1.0000   1.0000   1.0000
     1.0000   1.0000   1.0000   1.0000   1.0000   1.0000   1.0000   1.0000
     1.0000   1.0000   1.0000   1.0000   1.0000   1.0000   1.0000   1.0000
     1.0000   1.0000   1.0000   1.0000   1.0000   1.0000   1.0000   1.0000
     1.0000   1.0000   1.0000   1.0000   1.0000   1.0000   1.0000   1.0000
     1.0000   1.0000   1.0000   1.0000   1.0000   1.0000   1.0000   1.0000
     1.0000   1.0000   1.0000   1.0000   1.0000   1.0000   1.0000   1.0000
     1.0000   1.0000   1.0000   1.0000   1.0000   1.0000   1.0000   1.0000
     1.0000   1.0000   1.0000   1.0000   1.0000   1.0000   1.0000   1.0000
     1.0000   1.0000   1.0000   1.0000   1.0000   1.0000   1.0000   1.0000
     1.0000   1.0000   1.0000   1.0000   1.0000   1.0000   1.0000   1.0000
     1.0000   1.0000   1.0000   1.0000   1.0000   1.0000   1.0000   1.0000
     1.0000   1.0000   1.0000   1.0000   1.0000   1.0000   1.0000   1.0000
     1.0000   1.0000   1.0000   1.0000   1.0000   1.0000   1.0000   1.0000
     1.0000   1.0000   1.0000   1.0000   1.0000   1.0000   1.0000   1.0000
     1.0000   1.0000   1.0000   1.0000   1.0000   1.0000   1.0000   1.0000
     1.0000   1.0000   1.0000   1.0000   1.0000   1.0000   1.0000   1.0000
     1.0000   1.0000   1.0000   1.0000   1.0000   1.0000   1.0000   1.0000
     1.0000   1.0000   1.0000   1.0000   1.0000   1.0000   1.0000   1.0000
     1.0000   1.0000   1.0000   1.0000   1.0000   1.0000   1.0000   1.0000
     1.0000   1.0000   1.0000   1.0000   1.0000   1.0000   1.0000   1.0000
     1.0000   1.0000   1.0000   1.0000   1.0000   1.0000   1.0000   1.0000
     1.0000   1.0000   1.0000   1.0000   1.0000   1.0000   1.0000   1.0000
     1.0000   1.0000   1.0000   1.0000   1.0000   1.0000   1.0000   1.0000
[...]
              0.258541525362350E+03
              0.754963358446564E+01
              0.805785870042296E+03
              0.111915240323500E+03
             -0.117394046332733E+03
              0.453955722034152E+02
             -0.107862112846145E+03
              0.632944012165639E+03
             -0.410353019318563E+01
              0.121167589364157E+03
              0.439439937851820E+03
              0.117692044352282E+03
             -0.333980306824449E+03
             -0.541335718991987E+03
              0.304569248009752E+02
             -0.615730198661490E+03
              0.206477471157516E+03
             -0.106984298554117E+03
             -0.237405038093450E+03
              0.240540564831770E+03
              0.831788300627613E+02
              0.231282304892770E+03
              0.101439501581203E+02
              0.343323734455389E+03
             -0.582794816668891E+03
             -0.415534084432761E+02
             -0.511590390719940E+03
              0.113851779951195E+03
              0.280652584098824E+03
             -0.284702795384665E+02
             -0.187060155607386E+03
              0.419559663611977E+03
             -0.194136016631506E+03
              0.143593191918410E+03
             -0.123463674017890E+03
              0.332114660924598E+03
              0.349864225866918E+03
             -0.151368979563666E+03
              0.299640823271588E+03
              0.112526918804777E+03
             -0.302448847897056E+03
             -0.197707289750977E+03
              0.486078826590041E+03
              0.238437941000264E+03
             -0.207237669105723E+02
             -0.515560818328149E+02
              0.748420285557186E+03
              0.441441927103675E+03
              0.157029253426944E+03
             -0.471233919852465E+03
              0.755346631330663E+03
             -0.352524912470434E+03
             -0.435429633225244E+03
             -0.656409493166758E+03
              0.292550602507112E+03
             -0.590004755321298E+03
              0.266763305042616E+03
              0.430967965352194E+03
              0.307024635318379E+03
              0.779195074016800E+02
              0.203399963058452E+03
             -0.486102521378199E+03
             -0.174149377995064E+03
             -0.132209667423770E+03
              0.249333847291493E+03
              0.494626247596118E+03
              0.510928045419827E+03
              0.393890578721423E+03
             -0.903024444037774E+02
              0.125736989491144E+03
              0.717377329111059E+01
             -0.162062221136209E+03
              0.208545278123030E+03
              0.226946968630425E+03
             -0.287404496151284E+03
             -0.341561142727205E+03
             -0.134845182464137E+03
              0.354530620408593E+03
              0.169883041208101E+03
             -0.243262604595882E+03
             -0.373047494622518E+03
             -0.543223452724862E+03
              0.112857068854573E+02
              0.145941237759666E+03
             -0.205146038956900E+03
              0.759707968135383E+03
              0.367097411350064E+02
             -0.860671874581941E+03
              0.190484332522074E+03
              0.377188871998263E+03
             -0.172814764190713E+03
              0.207862297833519E+02
             -0.239469851748264E+03
              0.352004133053300E+03
              0.162905925397110E+03
             -0.450440090497835E+03
              0.536403601317935E+03
              0.154093919613044E+02
             -0.229973161584788E+03
             -0.273099033628568E+03
              0.106824346247814E+04
              0.475789933890791E+03
             -0.132746842292350E+03
              0.261926831879212E+03
             -0.467272791017852E+03
             -0.837005433253380E+02
             -0.473668207267343E+03
              0.189709014872595E+03
              0.322748221287573E+03
              0.382999429605483E+03
             -0.152544382949430E+03
              0.450284678764901E+02
              0.437459403337957E+03
              0.161733629542522E+03
              0.274176442260357E+03
              0.116639561656847E+03
             -0.786069118379380E+02
              0.118859845849686E+02
             -0.722117783729007E+02
              0.111334919404368E+03
              0.245834253718549E+02
             -0.398602372622104E+03
              0.606482478335843E+03
              0.242581599010311E+03
             -0.435968401031095E+03
             -0.323570112391814E+03
             -0.468618764245132E+03
             -0.221691281801419E+03
             -0.163293668413374E+03
             -0.362368303123937E+03
             -0.354796808651492E+03
              0.446916701153190E+03
              0.352682404949931E+03
             -0.438576705783080E+02
              0.514449895536114E+03
              0.972118880779180E+02
             -0.830173918599429E+03
              0.468462272193689E+03
              0.108101056734927E+03
              0.361059922594954E+03
              0.804914363884864E+02
              0.602497998006188E+02
              0.714705936412447E+02
              0.187938001673573E+03
             -0.344378384779234E+03
             -0.171872067411405E+03
             -0.316344681197517E+03
             -0.262777027240494E+03
              0.119567391578266E+03
             -0.300552557340976E+03
              0.140718688560462E+03
              0.186048359165424E+03
             -0.197944643529640E+03
             -0.104442823502348E+03
             -0.909821452075039E+01
              0.513866743408062E+03
              0.818165643301970E+02
              0.509258050756770E+03
              0.181485217369570E+03
             -0.658192816665318E+03
             -0.223923007732318E+03
              0.225021473691475E+03
              0.506603313710681E+03
              0.971402901756697E+02
              0.197978263640065E+03
              0.477432207425057E+03
             -0.277668302662820E+03
             -0.450837137401797E+03
              0.585830397858608E+03
              0.995646637960590E+01
             -0.621126680793464E+03
              0.208210491879051E+03
              0.411042678882518E+03
             -0.951490191649427E+02
             -0.389024553065376E+03
              0.694056832319493E+02
              0.252900523821609E+02
             -0.212838254513301E+03
              0.771234568675227E+02
             -0.662442635732531E+02
              0.915526856386504E+03
              0.252597514153788E+03
             -0.419899410768928E+03
              0.127019779350954E+03
              0.587815581026962E+03
             -0.376852821113479E+03
             -0.100242285297932E+03
             -0.333448496511020E+03
              0.266409062405707E+03
              0.112972161158732E+03
              0.176932535169880E+03
              0.136805881933230E+02
              0.660257314836115E+03
             -0.369056790688339E+03
             -0.280160169641498E+03
             -0.309284400641613E+03
              0.265764048591010E+03
              0.635180148177911E+03
             -0.805192894715592E+02
              0.262318320593047E+03
             -0.355200456290119E+03
              0.359273278370410E+02
             -0.105249558608484E+03
             -0.349964526767467E+02
             -0.151088618878380E+03
             -0.139012662146101E+03
             -0.102589114279521E+03
              0.109491708302163E+03
              0.185106315837959E+03
             -0.426050497182074E+03
              0.309624463835455E+03
             -0.500505363444639E+03
              0.373732485402546E+03
             -0.433629872494713E+03
              0.656238875050063E+03
              0.349905956431317E+03
              0.390691844368234E+03
              0.895300805413940E+02
              0.100564148745217E+03
             -0.880899484575684E+03
              0.150921028860683E+03
              0.400257033982452E+02
              0.693462585407960E+02
             -0.131474161994850E+03
              0.685744058805356E+03
             -0.208096586198474E+03
             -0.270974435410781E+03
             -0.679532984313937E+03
             -0.226110153219426E+03
             -0.308762136647287E+03
             -0.273632679171195E+03
             -0.749927997469381E+02
             -0.143408425289122E+03
             -0.189861943356550E+03
             -0.285466015070107E+03
              0.212732793945703E+03
              0.703338409366624E+03
              0.599760771279561E+03
             -0.118936564583511E+03
             -0.735858608320038E+03
             -0.309498032481435E+03
              0.141719757423774E+03
              0.157326491681471E+03
              0.227707863431774E+03
              0.176985566516721E+03
              0.575732951363316E+02
              0.681239705536028E+03
             -0.168946678988291E+03
              0.345510052751108E+03
              0.158831890628216E+03
             -0.222970557008217E+03
             -0.140144872274446E+03
              0.314852549330382E+03
             -0.182448815818274E+03
             -0.129350419343748E+03
             -0.839846424520970E+02
              0.393387424043924E+03
             -0.527344001331425E+03
             -0.578560504943257E+02
             -0.431674162750347E+03
             -0.933296014872738E+03
              0.326042661968950E+01
             -0.115643825812380E+03
              0.320534655222663E+03
              0.381145146019292E+03
              0.522761021962787E+03
             -0.343898331705105E+03
              0.559380332260029E+03
              0.146369784404868E+03
             -0.167137530320536E+03
              0.100925025109460E+03
             -0.177392731221374E+03
             -0.124222337905032E+03
              0.284965965967976E+03
             -0.277553660745399E+03
              0.675516088863044E+03
             -0.172793912894502E+03
             -0.361334766908446E+03
              0.687614059526069E+03
             -0.386263382804842E+03
             -0.570562227014843E+02
              0.701035970945891E+02
              0.213315356167961E+03
             -0.314960504960058E+03
             -0.235919886137696E+03
              0.358702758473684E+03
             -0.581420584214915E+03
              0.427184185868460E+03
              0.557722603144178E+02
              0.333670103742914E+03
              0.462612251970842E+03
              0.116772250587590E+03
             -0.609151365940596E+03
             -0.268844499597072E+03
             -0.450082796166645E+03
             -0.282178539326065E+03
             -0.925992327685235E+02
              0.110824668453215E+03
             -0.211344748991703E+03
              0.147319037327024E+02
             -0.684095847874719E+03
              0.170376068451649E+02
             -0.432514893808887E+03
              0.424926330369584E+03
             -0.228665347631321E+03
             -0.448986342866714E+02
              0.305874160425347E+03
              0.329300937523733E+02
              0.304298240684190E+03
             -0.545709569764925E+03
              0.119644172850642E+03
              0.374901484103343E+02
              0.219524443725733E+03
              0.393787625773596E+03
             -0.690169223995326E+02
             -0.431753086252910E+03
             -0.247182691505042E+03
             -0.170643531688219E+03
             -0.829446145331549E+02
              0.407339723786726E+03
              0.250766181088763E+03
             -0.262186518895336E+03
             -0.238834485808220E+03
              0.197250792708110E+03
              0.193286451953803E+03
             -0.535654655850586E+03
              0.149843361183546E+03
              0.392949978011141E+03
             -0.193206716705909E+02
              0.460596876440220E+03
              0.233494245431991E+03
              0.368112120704476E+03
              0.559221317403024E+03
              0.919315888664056E+02
             -0.781429714750992E+03
              0.803484423913469E+02
              0.866831985344083E+03
              0.623821985429167E+03
             -0.418159889049382E+03
              0.417051726650329E+02
              0.542999282247723E+03
              0.493453588695456E+03
              0.234810888796214E+03
             -0.124367821102004E+03
              0.224933187125988E+03
              0.472087225677591E+03
             -0.211272817526249E+03
             -0.151164538427111E+03
              0.294867701209014E+03
             -0.211115117180893E+02
              0.276886973610680E+03
             -0.693369017853875E+02
              0.570670014126347E+03
             -0.217531044628566E+03
              0.130416605807674E+03
             -0.265695142372598E+03
              0.269488338269592E+03
             -0.356831228246547E+02
              0.425865271893974E+03
              0.298904086565499E+02
              0.168450125747978E+03
             -0.282607781339011E+03
             -0.173882837801615E+03
             -0.820570679809443E+02
             -0.707865615432302E+02
              0.447119025403157E+03
              0.185529187699279E+03
              0.573797893781232E+03
              0.477992422031221E+03
              0.107029637161649E+03
              0.413623343157963E+01
              0.560870973413007E+03
              0.295152543038550E+03
              0.794128513775104E+01
              0.498247866173136E+03
             -0.447017064522627E+03
              0.146566073198343E+03
             -0.281244183259450E+03
             -0.112224782989463E+03
              0.717740040867235E+03
             -0.109843118270854E+03
             -0.538951753063293E+01
             -0.943966637266112E+02
              0.596521748614430E+03
             -0.139035077296301E+03
             -0.165159563582697E+02
              0.120402774248724E+04
             -0.388845488354668E+03
             -0.415825136351939E+03
             -0.435931586269668E+03
             -0.255795287919065E+03
              0.254503442532432E+03
             -0.108694729895269E+03
              0.703144987111264E+02
             -0.221164388571606E+02
              0.152493608886237E+03
              0.248396399287639E+03
              0.286387701768231E+03
              0.420923948044426E+03
              0.232710885601550E+03
              0.295376506075932E+03
             -0.477615946091591E+03
             -0.457547058121976E+03
             -0.115549424596380E+03
             -0.448284756804703E+03
              0.717463570288744E+03
              0.614915004683750E+03
              0.293899378124136E+03
              0.795916964197412E+03
             -0.414174717066479E+03
             -0.168689668819479E+03
             -0.234888048498653E+03
              0.658469324154129E+03
 
 BEEF-vdW xc energy contributions
            1 :    -6032.700232804090     
            2 :     5433.958786968506     
            3 :    -4430.955491124564     
            4 :     3317.424920235878     
            5 :    -2351.738592857851     
            6 :     1658.585006754729     
            7 :    -1215.083270190436     
            8 :     914.7373321038476     
            9 :    -657.7332054240660     
           10 :     408.8590556359304     
           11 :    -195.2747889803395     
           12 :     60.43158928550474     
           13 :    -16.49185484315149     
           14 :     30.46001484600947     
           15 :    -48.61749242578298     
           16 :     34.77719597718442     
           17 :     8.915872083607610     
           18 :    -52.43030697933318     
           19 :     67.69637757480632     
           20 :    -52.50662982979338     
           21 :     30.60334076457457     
           22 :    -30.53111533031642     
           23 :     62.14383208341042     
           24 :    -109.6376565607497     
           25 :     145.2367500084229     
           26 :    -151.0569062580507     
           27 :     131.3530678950719     
           28 :    -106.4789594042149     
           29 :     95.02952822104726     
           30 :    -99.37109136284289     
           31 :    -516.3587181335724     
           32 :    -353.8248811872782     

     Writing all to output data dir ./GaN.save/
 
     init_run     :     13.43s CPU     36.66s WALL (       1 calls)
     electrons    :   3437.93s CPU   3484.88s WALL (       1 calls)
     forces       :     66.82s CPU     67.86s WALL (       1 calls)
     stress       :   1268.03s CPU   1280.92s WALL (       1 calls)

     Called by init_run:
     wfcinit      :      8.74s CPU     31.48s WALL (       1 calls)
     potinit      :      1.67s CPU      1.93s WALL (       1 calls)
     hinit0       :      1.42s CPU      1.54s WALL (       1 calls)

     Called by electrons:
     c_bands      :   3391.50s CPU   3436.87s WALL (       2 calls)
     sum_band     :     41.78s CPU     42.40s WALL (       2 calls)
     v_of_rho     :      1.92s CPU      2.07s WALL (       2 calls)
     v_h          :      0.02s CPU      0.02s WALL (       2 calls)
     v_xc         :     32.66s CPU     34.31s WALL (      38 calls)
     newd         :      0.36s CPU      0.42s WALL (       2 calls)
     PAW_pot      :      1.11s CPU      1.12s WALL (       2 calls)
     mix_rho      :      0.01s CPU      0.01s WALL (       2 calls)
     vdW_kernel   :      0.16s CPU      0.17s WALL (       1 calls)

     Called by c_bands:
     init_us_2    :      2.76s CPU      3.01s WALL (      12 calls)
     init_us_2:cp :      2.76s CPU      3.01s WALL (      12 calls)
     cegterg      :   3117.02s CPU   3159.66s WALL (       4 calls)

     Called by sum_band:
     sum_band:wei :      0.01s CPU      0.01s WALL (       2 calls)
     sum_band:loo :     41.19s CPU     41.56s WALL (       2 calls)
     sum_band:buf :      0.49s CPU      0.51s WALL (       4 calls)
     sum_band:ini :      1.01s CPU      1.02s WALL (       4 calls)
     sum_band:cal :     28.40s CPU     28.62s WALL (       4 calls)
     sum_band:bec :      0.24s CPU      0.24s WALL (       4 calls)
     addusdens    :      0.36s CPU      0.41s WALL (       2 calls)
     addusd:skk   :      0.08s CPU      0.08s WALL (       4 calls)
     addusd:dgemm :      0.16s CPU      0.21s WALL (       4 calls)
     addusd:qvan2 :      0.05s CPU      0.05s WALL (       4 calls)

     Called by *egterg:
     cdiaghg      :   2622.43s CPU   2651.24s WALL (      38 calls)
     cegterg:over :     96.30s CPU     99.17s WALL (      38 calls)
     cegterg:upda :     60.55s CPU     61.63s WALL (      38 calls)
     cegterg:last :     28.96s CPU     29.21s WALL (       4 calls)
     h_psi        :    205.59s CPU    209.91s WALL (      42 calls)
     s_psi        :     73.31s CPU     74.66s WALL (      42 calls)
     g_psi        :      0.31s CPU      0.32s WALL (      38 calls)

     Called by h_psi:
     h_psi:calbec :     76.10s CPU     77.25s WALL (      42 calls)
     vloc_psi     :     55.48s CPU     56.53s WALL (      42 calls)
     add_vuspsi   :     73.16s CPU     74.58s WALL (      42 calls)

     General routines
     calbec       :    210.25s CPU    212.39s WALL (      56 calls)
     fft          :     12.94s CPU     13.15s WALL (    2232 calls)
     ffts         :      0.02s CPU      0.02s WALL (       4 calls)
     fftw         :     61.42s CPU     62.53s WALL (   40012 calls)
     interpolate  :      0.02s CPU      0.02s WALL (       2 calls)
 
     Parallel routines

     PAW routines
     PAW_pot      :      1.11s CPU      1.12s WALL (       2 calls)
     PAW_symme    :      0.02s CPU      0.02s WALL (       3 calls)
 
     PWSCF        :      1h20m CPU      1h22m WALL

 
   This run was terminated on:  12:50:29   7Mar2024            

=------------------------------------------------------------------------------=
   JOB DONE.
=------------------------------------------------------------------------------=
