
     Program PWSCF v.7.1 starts on 17Mar2024 at  1:40:38 

     This program is part of the open-source Quantum ESPRESSO suite
     for quantum simulation of materials; please cite
         "P. Giannozzi et al., J. Phys.:Condens. Matter 21 395502 (2009);
         "P. Giannozzi et al., J. Phys.:Condens. Matter 29 465901 (2017);
         "P. Giannozzi et al., J. Chem. Phys. 152 154105 (2020);
          URL http://www.quantum-espresso.org", 
     in publications or presentations arising from this work. More details at
     http://www.quantum-espresso.org/quote

     Parallel version (MPI & OpenMP), running on     256 processor cores
     Number of MPI processes:               256
     Threads/MPI process:                     1

     MPI processes distributed on     2 nodes
     2040454 MiB available memory on the printing compute node when the environment starts
 
     Reading input from espresso.pwi
Warning: card &CELL ignored
Warning: card    CELL_DYNAMICS    = 'BFGS' ignored
Warning: card / ignored

     Current dimensions of program PWSCF are:
     Max number of different atomic species (ntypx) = 10
     Max number of k-points (npk) =  40000
     Max angular momentum in pseudopotentials (lmaxx) =  4
     file Ga.pbe-dn-kjpaw_psl.1.0.0.UPF: wavefunction(s)  4S renormalized
     file N.pbe-n-kjpaw_psl.1.0.0.UPF: wavefunction(s)  2S renormalized

     **************************************************************************
     Initializing libbeef V0.1.2 with the BEEF-vdW functional.
     Citation: Wellendorff et al., PRB 85, 235149 (2012).
     **************************************************************************


     IMPORTANT: XC functional enforced from input :
     Exchange-correlation= BEEF-VDW
                           (   1   4  43  14   2   0   0)
     Any further DFT definition will be discarded
     Please, verify this is what you really want

 
     K-points division:     npool     =       4
     R & G space division:  proc/nbgrp/npool/nimage =      64
     Subspace diagonalization in iterative solution of the eigenvalue problem:
     a serial algorithm will be used

 
     Parallelization info
     --------------------
     sticks:   dense  smooth     PW     G-vecs:    dense   smooth      PW
     Min         354     283     73                42160    30167    3987
     Max         356     285     74                42163    30170    3996
     Sum       22693   18145   4705              2698283  1930731  255309
 
     Using Slab Decomposition
 


     bravais-lattice index     =            4
     lattice parameter (alat)  =      30.6565  a.u.
     unit-cell volume          =   24400.9461 (a.u.)^3
     number of atoms/cell      =          300
     number of atomic types    =            2
     number of electrons       =      2692.00
     number of Kohn-Sham states=         1615
     kinetic-energy cutoff     =      70.0000  Ry
     charge density cutoff     =     350.0000  Ry
     scf convergence threshold =      1.0E-07
     mixing beta               =       0.7000
     number of iterations used =            8  plain     mixing
     energy convergence thresh.=      1.0E-04
     force convergence thresh. =      1.0E-03
     Exchange-correlation= BEEF-VDW
                           (   1   4  43  14   2   0   0)
     nstep                     =           50


     celldm(1)=  30.656540  celldm(2)=   0.000000  celldm(3)=   0.977927
     celldm(4)=   0.000000  celldm(5)=   0.000000  celldm(6)=   0.000000

     crystal axes: (cart. coord. in units of alat)
               a(1) = (   1.000000   0.000000   0.000000 )  
               a(2) = (  -0.500000   0.866025   0.000000 )  
               a(3) = (   0.000000   0.000000   0.977927 )  

     reciprocal axes: (cart. coord. in units 2 pi/alat)
               b(1) = (  1.000000  0.577350 -0.000000 )  
               b(2) = (  0.000000  1.154701  0.000000 )  
               b(3) = (  0.000000 -0.000000  1.022571 )  


     PseudoPot. # 1 for Ga read from file:
     //group///packages/espresso/pseudo/psl_1.0.0/pslibrary.1.0.0/pbe/PSEUDOPOTENTIALS/Ga.pbe-dn-kjpaw_psl.1.0.0.UPF
     MD5 check sum: cd2a01e492f15b435d17032472d8505c
     Pseudo is Projector augmented-wave + core cor, Zval = 13.0
     Generated using 'atomic' code by A. Dal Corso  v.7.1
     Shape of augmentation charge: PSQ
     Using radial grid of 1205 points,  6 beta functions with: 
                l(1) =   0
                l(2) =   0
                l(3) =   1
                l(4) =   1
                l(5) =   2
                l(6) =   2
     Q(r) pseudized with 0 coefficients 


     PseudoPot. # 2 for N  read from file:
     //group///packages/espresso/pseudo/psl_1.0.0/pslibrary.1.0.0/pbe/PSEUDOPOTENTIALS/N.pbe-n-kjpaw_psl.1.0.0.UPF
     MD5 check sum: f77f775694dac7e2c3fe1c82443d1a16
     Pseudo is Projector augmented-wave + core cor, Zval =  5.0
     Generated using 'atomic' code by A. Dal Corso  v.7.1
     Shape of augmentation charge: PSQ
     Using radial grid of 1085 points,  4 beta functions with: 
                l(1) =   0
                l(2) =   0
                l(3) =   1
                l(4) =   1
     Q(r) pseudized with 0 coefficients 


     atomic species   valence    mass     pseudopotential
        Ga            13.00    69.72300     Ga( 1.00)
        N              5.00    14.00700     N ( 1.00)

      2 Sym. Ops. (no inversion) found


                                    s                        frac. trans.

      isym =  1     identity                                     

 cryst.   s( 1) = (     1          0          0      )
                  (     0          1          0      )
                  (     0          0          1      )

 cart.    s( 1) = (  1.0000000  0.0000000  0.0000000 )
                  (  0.0000000  1.0000000  0.0000000 )
                  (  0.0000000  0.0000000  1.0000000 )


      isym =  2     inv. 180 deg rotation - cryst. axis [0,1,0]  

 cryst.   s( 2) = (     1          1          0      )
                  (     0         -1          0      )
                  (     0          0          1      )

 cart.    s( 2) = (  0.5000000  0.8660254  0.0000000 )
                  (  0.8660254 -0.5000000  0.0000000 )
                  (  0.0000000  0.0000000  1.0000000 )


     point group C_s (m)    
     there are  2 classes
     the character table:

       E     s    
A'     1.00  1.00
A''    1.00 -1.00

     the symmetry operations in each class and the name of the first element:

     E        1
          identity                                               
     s        2
          inv. 180 deg rotation - cryst. axis [0,1,0]            

   Cartesian axes

     site n.     atom                  positions (alat units)
         1           Ga  tau(   1) = (   0.1000001   0.0577350   0.4886906  )
         2           Ga  tau(   2) = (   0.1000001   0.0577350   0.8146665  )
         3           Ga  tau(   3) = (   0.0000001   0.2309401   0.1627148  )
         4           Ga  tau(   4) = (   0.0000001   0.2309401   0.4886906  )
         5           Ga  tau(   5) = (   0.0000001   0.2309401   0.8146665  )
         6           Ga  tau(   6) = (  -0.0999999   0.4041451   0.1627148  )
         7           Ga  tau(   7) = (  -0.0999999   0.4041451   0.4886906  )
         8           Ga  tau(   8) = (  -0.0999999   0.4041451   0.8146665  )
         9           Ga  tau(   9) = (  -0.1999999   0.5773502   0.1627148  )
        10           Ga  tau(  10) = (  -0.1999999   0.5773502   0.4886906  )
        11           Ga  tau(  11) = (  -0.1999999   0.5773502   0.8146665  )
        12           Ga  tau(  12) = (  -0.2999999   0.7505553   0.1627148  )
        13           Ga  tau(  13) = (  -0.2999999   0.7505553   0.4886906  )
        14           Ga  tau(  14) = (  -0.2999999   0.7505553   0.8146665  )
        15           Ga  tau(  15) = (   0.3000001   0.0577350   0.1627148  )
        16           Ga  tau(  16) = (   0.3000001   0.0577350   0.4886906  )
        17           Ga  tau(  17) = (   0.3000001   0.0577350   0.8146665  )
        18           Ga  tau(  18) = (   0.2000001   0.2309401   0.1627148  )
        19           Ga  tau(  19) = (   0.2000001   0.2309401   0.4886906  )
        20           Ga  tau(  20) = (   0.2000001   0.2309401   0.8146665  )
        21           Ga  tau(  21) = (   0.1000001   0.4041451   0.1627148  )
        22           Ga  tau(  22) = (   0.1000001   0.4041451   0.4886906  )
        23           Ga  tau(  23) = (   0.1000001   0.4041451   0.8146665  )
        24           Ga  tau(  24) = (   0.0000001   0.5773502   0.1627148  )
        25           Ga  tau(  25) = (   0.0000001   0.5773502   0.4886906  )
        26           Ga  tau(  26) = (   0.0000001   0.5773502   0.8146665  )
        27           Ga  tau(  27) = (  -0.0999999   0.7505553   0.1627148  )
        28           Ga  tau(  28) = (  -0.0999999   0.7505553   0.4886906  )
        29           Ga  tau(  29) = (  -0.0999999   0.7505553   0.8146665  )
        30           Ga  tau(  30) = (   0.5000001   0.0577350   0.1627148  )
        31           Ga  tau(  31) = (   0.5000001   0.0577350   0.4886906  )
        32           Ga  tau(  32) = (   0.5000001   0.0577350   0.8146665  )
        33           Ga  tau(  33) = (   0.4000001   0.2309401   0.1627148  )
        34           Ga  tau(  34) = (   0.4000001   0.2309401   0.4886906  )
        35           Ga  tau(  35) = (   0.4000001   0.2309401   0.8146665  )
        36           Ga  tau(  36) = (   0.3000001   0.4041451   0.1627148  )
        37           Ga  tau(  37) = (   0.3000001   0.4041451   0.4886906  )
        38           Ga  tau(  38) = (   0.3000001   0.4041451   0.8146665  )
        39           Ga  tau(  39) = (   0.2000001   0.5773502   0.1627148  )
        40           Ga  tau(  40) = (   0.2000001   0.5773502   0.4886906  )
        41           Ga  tau(  41) = (   0.2000001   0.5773502   0.8146665  )
        42           Ga  tau(  42) = (   0.1000001   0.7505553   0.1627148  )
        43           Ga  tau(  43) = (   0.1000001   0.7505553   0.4886906  )
        44           Ga  tau(  44) = (   0.1000001   0.7505553   0.8146665  )
        45           Ga  tau(  45) = (   0.7000001   0.0577350   0.1627148  )
        46           Ga  tau(  46) = (   0.7000001   0.0577350   0.4886906  )
        47           Ga  tau(  47) = (   0.7000001   0.0577350   0.8146665  )
        48           Ga  tau(  48) = (   0.6000001   0.2309401   0.1627148  )
        49           Ga  tau(  49) = (   0.6000001   0.2309401   0.4886906  )
        50           Ga  tau(  50) = (   0.6000001   0.2309401   0.8146665  )
        51           Ga  tau(  51) = (   0.5000001   0.4041451   0.1627148  )
        52           Ga  tau(  52) = (   0.5000001   0.4041451   0.4886906  )
        53           Ga  tau(  53) = (   0.5000001   0.4041451   0.8146665  )
        54           Ga  tau(  54) = (   0.4000001   0.5773502   0.1627148  )
        55           Ga  tau(  55) = (   0.4000001   0.5773502   0.4886906  )
        56           Ga  tau(  56) = (   0.4000001   0.5773502   0.8146665  )
        57           Ga  tau(  57) = (   0.3000001   0.7505553   0.1627148  )
        58           Ga  tau(  58) = (   0.3000001   0.7505553   0.4886906  )
        59           Ga  tau(  59) = (   0.3000001   0.7505553   0.8146665  )
        60           Ga  tau(  60) = (   0.9000001   0.0577350   0.1627148  )
        61           Ga  tau(  61) = (   0.9000001   0.0577350   0.4886906  )
        62           Ga  tau(  62) = (   0.9000001   0.0577350   0.8146665  )
        63           Ga  tau(  63) = (   0.8000001   0.2309401   0.1627148  )
        64           Ga  tau(  64) = (   0.8000001   0.2309401   0.4886906  )
        65           Ga  tau(  65) = (   0.8000001   0.2309401   0.8146665  )
        66           Ga  tau(  66) = (   0.7000001   0.4041451   0.1627148  )
        67           Ga  tau(  67) = (   0.7000001   0.4041451   0.4886906  )
        68           Ga  tau(  68) = (   0.7000001   0.4041451   0.8146665  )
        69           Ga  tau(  69) = (   0.6000001   0.5773502   0.1627148  )
        70           Ga  tau(  70) = (   0.6000001   0.5773502   0.4886906  )
        71           Ga  tau(  71) = (   0.6000001   0.5773502   0.8146665  )
        72           Ga  tau(  72) = (   0.5000001   0.7505553   0.1627148  )
        73           Ga  tau(  73) = (   0.5000001   0.7505553   0.4886906  )
        74           Ga  tau(  74) = (   0.5000001   0.7505553   0.8146665  )
        75           Ga  tau(  75) = (  -0.0000001   0.1154701   0.3257027  )
        76           Ga  tau(  76) = (  -0.0000001   0.1154701   0.6516786  )
        77           Ga  tau(  77) = (  -0.0000001   0.1154701   0.9776544  )
        78           Ga  tau(  78) = (  -0.1000001   0.2886752   0.3257027  )
        79           Ga  tau(  79) = (  -0.1000001   0.2886752   0.6516786  )
        80           Ga  tau(  80) = (  -0.1000001   0.2886752   0.9776544  )
        81           Ga  tau(  81) = (  -0.2000001   0.4618803   0.3257027  )
        82           Ga  tau(  82) = (  -0.2000001   0.4618803   0.6516786  )
        83           Ga  tau(  83) = (  -0.2000001   0.4618803   0.9776544  )
        84           Ga  tau(  84) = (  -0.3000001   0.6350854   0.3257027  )
        85           Ga  tau(  85) = (  -0.3000001   0.6350854   0.6516786  )
        86           Ga  tau(  86) = (  -0.3000001   0.6350854   0.9776544  )
        87           Ga  tau(  87) = (  -0.4000001   0.8082905   0.3257027  )
        88           Ga  tau(  88) = (  -0.4000001   0.8082905   0.6516786  )
        89           Ga  tau(  89) = (  -0.4000001   0.8082905   0.9776544  )
        90           Ga  tau(  90) = (   0.1999999   0.1154701   0.3257027  )
        91           Ga  tau(  91) = (   0.1999999   0.1154701   0.6516786  )
        92           Ga  tau(  92) = (   0.1999999   0.1154701   0.9776544  )
        93           Ga  tau(  93) = (   0.0999999   0.2886752   0.3257027  )
        94           Ga  tau(  94) = (   0.0999999   0.2886752   0.6516786  )
        95           Ga  tau(  95) = (   0.0999999   0.2886752   0.9776544  )
        96           Ga  tau(  96) = (  -0.0000001   0.4618803   0.3257027  )
        97           Ga  tau(  97) = (  -0.0000001   0.4618803   0.6516786  )
        98           Ga  tau(  98) = (  -0.0000001   0.4618803   0.9776544  )
        99           Ga  tau(  99) = (  -0.1000001   0.6350854   0.3257027  )
       100           Ga  tau( 100) = (  -0.1000001   0.6350854   0.6516786  )
       101           Ga  tau( 101) = (  -0.1000001   0.6350854   0.9776544  )
       102           Ga  tau( 102) = (  -0.2000001   0.8082905   0.3257027  )
       103           Ga  tau( 103) = (  -0.2000001   0.8082905   0.6516786  )
       104           Ga  tau( 104) = (  -0.2000001   0.8082905   0.9776544  )
       105           Ga  tau( 105) = (   0.3999999   0.1154701   0.3257027  )
       106           Ga  tau( 106) = (   0.3999999   0.1154701   0.6516786  )
       107           Ga  tau( 107) = (   0.3999999   0.1154701   0.9776544  )
       108           Ga  tau( 108) = (   0.2999999   0.2886752   0.3257027  )
       109           Ga  tau( 109) = (   0.2999999   0.2886752   0.6516786  )
       110           Ga  tau( 110) = (   0.2999999   0.2886752   0.9776544  )
       111           Ga  tau( 111) = (   0.1999999   0.4618803   0.3257027  )
       112           Ga  tau( 112) = (   0.1999999   0.4618803   0.6516786  )
       113           Ga  tau( 113) = (   0.1999999   0.4618803   0.9776544  )
       114           Ga  tau( 114) = (   0.0999999   0.6350854   0.3257027  )
       115           Ga  tau( 115) = (   0.0999999   0.6350854   0.6516786  )
       116           Ga  tau( 116) = (   0.0999999   0.6350854   0.9776544  )
       117           Ga  tau( 117) = (  -0.0000001   0.8082905   0.3257027  )
       118           Ga  tau( 118) = (  -0.0000001   0.8082905   0.6516786  )
       119           Ga  tau( 119) = (  -0.0000001   0.8082905   0.9776544  )
       120           Ga  tau( 120) = (   0.5999999   0.1154701   0.3257027  )
       121           Ga  tau( 121) = (   0.5999999   0.1154701   0.6516786  )
       122           Ga  tau( 122) = (   0.5999999   0.1154701   0.9776544  )
       123           Ga  tau( 123) = (   0.4999999   0.2886752   0.3257027  )
       124           Ga  tau( 124) = (   0.4999999   0.2886752   0.6516786  )
       125           Ga  tau( 125) = (   0.4999999   0.2886752   0.9776544  )
       126           Ga  tau( 126) = (   0.3999999   0.4618803   0.3257027  )
       127           Ga  tau( 127) = (   0.3999999   0.4618803   0.6516786  )
       128           Ga  tau( 128) = (   0.3999999   0.4618803   0.9776544  )
       129           Ga  tau( 129) = (   0.2999999   0.6350854   0.3257027  )
       130           Ga  tau( 130) = (   0.2999999   0.6350854   0.6516786  )
       131           Ga  tau( 131) = (   0.2999999   0.6350854   0.9776544  )
       132           Ga  tau( 132) = (   0.1999999   0.8082905   0.3257027  )
       133           Ga  tau( 133) = (   0.1999999   0.8082905   0.6516786  )
       134           Ga  tau( 134) = (   0.1999999   0.8082905   0.9776544  )
       135           Ga  tau( 135) = (   0.7999999   0.1154701   0.3257027  )
       136           Ga  tau( 136) = (   0.7999999   0.1154701   0.6516786  )
       137           Ga  tau( 137) = (   0.7999999   0.1154701   0.9776544  )
       138           Ga  tau( 138) = (   0.6999999   0.2886752   0.3257027  )
       139           Ga  tau( 139) = (   0.6999999   0.2886752   0.6516786  )
       140           Ga  tau( 140) = (   0.6999999   0.2886752   0.9776544  )
       141           Ga  tau( 141) = (   0.5999999   0.4618803   0.3257027  )
       142           Ga  tau( 142) = (   0.5999999   0.4618803   0.6516786  )
       143           Ga  tau( 143) = (   0.5999999   0.4618803   0.9776544  )
       144           Ga  tau( 144) = (   0.4999999   0.6350854   0.3257027  )
       145           Ga  tau( 145) = (   0.4999999   0.6350854   0.6516786  )
       146           Ga  tau( 146) = (   0.4999999   0.6350854   0.9776544  )
       147           Ga  tau( 147) = (   0.3999999   0.8082905   0.3257027  )
       148           Ga  tau( 148) = (   0.3999999   0.8082905   0.6516786  )
       149           Ga  tau( 149) = (   0.3999999   0.8082905   0.9776544  )
       150           N   tau( 150) = (   0.1000001   0.0577350   0.2855019  )
       151           N   tau( 151) = (   0.1000001   0.0577350   0.6114777  )
       152           N   tau( 152) = (   0.1000001   0.0577350   0.9374535  )
       153           N   tau( 153) = (   0.0000001   0.2309401   0.2855019  )
       154           N   tau( 154) = (   0.0000001   0.2309401   0.6114777  )
       155           N   tau( 155) = (   0.0000001   0.2309401   0.9374535  )
       156           N   tau( 156) = (  -0.0999999   0.4041451   0.2855019  )
       157           N   tau( 157) = (  -0.0999999   0.4041451   0.6114777  )
       158           N   tau( 158) = (  -0.0999999   0.4041451   0.9374535  )
       159           N   tau( 159) = (  -0.1999999   0.5773502   0.2855019  )
       160           N   tau( 160) = (  -0.1999999   0.5773502   0.6114777  )
       161           N   tau( 161) = (  -0.1999999   0.5773502   0.9374535  )
       162           N   tau( 162) = (  -0.2999999   0.7505553   0.2855019  )
       163           N   tau( 163) = (  -0.2999999   0.7505553   0.6114777  )
       164           N   tau( 164) = (  -0.2999999   0.7505553   0.9374535  )
       165           N   tau( 165) = (   0.3000001   0.0577350   0.2855019  )
       166           N   tau( 166) = (   0.3000001   0.0577350   0.6114777  )
       167           N   tau( 167) = (   0.3000001   0.0577350   0.9374535  )
       168           N   tau( 168) = (   0.2000001   0.2309401   0.2855019  )
       169           N   tau( 169) = (   0.2000001   0.2309401   0.6114777  )
       170           N   tau( 170) = (   0.2000001   0.2309401   0.9374535  )
       171           N   tau( 171) = (   0.1000001   0.4041451   0.2855019  )
       172           N   tau( 172) = (   0.1000001   0.4041451   0.6114777  )
       173           N   tau( 173) = (   0.1000001   0.4041451   0.9374535  )
       174           N   tau( 174) = (   0.0000001   0.5773502   0.2855019  )
       175           N   tau( 175) = (   0.0000001   0.5773502   0.6114777  )
       176           N   tau( 176) = (   0.0000001   0.5773502   0.9374535  )
       177           N   tau( 177) = (  -0.0999999   0.7505553   0.2855019  )
       178           N   tau( 178) = (  -0.0999999   0.7505553   0.6114777  )
       179           N   tau( 179) = (  -0.0999999   0.7505553   0.9374535  )
       180           N   tau( 180) = (   0.5000001   0.0577350   0.2855019  )
       181           N   tau( 181) = (   0.5000001   0.0577350   0.6114777  )
       182           N   tau( 182) = (   0.5000001   0.0577350   0.9374535  )
       183           N   tau( 183) = (   0.4000001   0.2309401   0.2855019  )
       184           N   tau( 184) = (   0.4000001   0.2309401   0.6114777  )
       185           N   tau( 185) = (   0.4000001   0.2309401   0.9374535  )
       186           N   tau( 186) = (   0.3000001   0.4041451   0.2855019  )
       187           N   tau( 187) = (   0.3000001   0.4041451   0.6114777  )
       188           N   tau( 188) = (   0.3000001   0.4041451   0.9374535  )
       189           N   tau( 189) = (   0.2000001   0.5773502   0.2855019  )
       190           N   tau( 190) = (   0.2000001   0.5773502   0.6114777  )
       191           N   tau( 191) = (   0.2000001   0.5773502   0.9374535  )
       192           N   tau( 192) = (   0.1000001   0.7505553   0.2855019  )
       193           N   tau( 193) = (   0.1000001   0.7505553   0.6114777  )
       194           N   tau( 194) = (   0.1000001   0.7505553   0.9374535  )
       195           N   tau( 195) = (   0.7000001   0.0577350   0.2855019  )
       196           N   tau( 196) = (   0.7000001   0.0577350   0.6114777  )
       197           N   tau( 197) = (   0.7000001   0.0577350   0.9374535  )
       198           N   tau( 198) = (   0.6000001   0.2309401   0.2855019  )
       199           N   tau( 199) = (   0.6000001   0.2309401   0.6114777  )
       200           N   tau( 200) = (   0.6000001   0.2309401   0.9374535  )
       201           N   tau( 201) = (   0.5000001   0.4041451   0.2855019  )
       202           N   tau( 202) = (   0.5000001   0.4041451   0.6114777  )
       203           N   tau( 203) = (   0.5000001   0.4041451   0.9374535  )
       204           N   tau( 204) = (   0.4000001   0.5773502   0.2855019  )
       205           N   tau( 205) = (   0.4000001   0.5773502   0.6114777  )
       206           N   tau( 206) = (   0.4000001   0.5773502   0.9374535  )
       207           N   tau( 207) = (   0.3000001   0.7505553   0.2855019  )
       208           N   tau( 208) = (   0.3000001   0.7505553   0.6114777  )
       209           N   tau( 209) = (   0.3000001   0.7505553   0.9374535  )
       210           N   tau( 210) = (   0.9000001   0.0577350   0.2855019  )
       211           N   tau( 211) = (   0.9000001   0.0577350   0.6114777  )
       212           N   tau( 212) = (   0.9000001   0.0577350   0.9374535  )
       213           N   tau( 213) = (   0.8000001   0.2309401   0.2855019  )
       214           N   tau( 214) = (   0.8000001   0.2309401   0.6114777  )
       215           N   tau( 215) = (   0.8000001   0.2309401   0.9374535  )
       216           N   tau( 216) = (   0.7000001   0.4041451   0.2855019  )
       217           N   tau( 217) = (   0.7000001   0.4041451   0.6114777  )
       218           N   tau( 218) = (   0.7000001   0.4041451   0.9374535  )
       219           N   tau( 219) = (   0.6000001   0.5773502   0.2855019  )
       220           N   tau( 220) = (   0.6000001   0.5773502   0.6114777  )
       221           N   tau( 221) = (   0.6000001   0.5773502   0.9374535  )
       222           N   tau( 222) = (   0.5000001   0.7505553   0.2855019  )
       223           N   tau( 223) = (   0.5000001   0.7505553   0.6114777  )
       224           N   tau( 224) = (   0.5000001   0.7505553   0.9374535  )
       225           N   tau( 225) = (  -0.0000001   0.1154701   0.1225140  )
       226           N   tau( 226) = (  -0.0000001   0.1154701   0.4484898  )
       227           N   tau( 227) = (  -0.0000001   0.1154701   0.7744656  )
       228           N   tau( 228) = (  -0.1000001   0.2886752   0.1225140  )
       229           N   tau( 229) = (  -0.1000001   0.2886752   0.4484898  )
       230           N   tau( 230) = (  -0.1000001   0.2886752   0.7744656  )
       231           N   tau( 231) = (  -0.2000001   0.4618803   0.1225140  )
       232           N   tau( 232) = (  -0.2000001   0.4618803   0.4484898  )
       233           N   tau( 233) = (  -0.2000001   0.4618803   0.7744656  )
       234           N   tau( 234) = (  -0.3000001   0.6350854   0.1225140  )
       235           N   tau( 235) = (  -0.3000001   0.6350854   0.4484898  )
       236           N   tau( 236) = (  -0.3000001   0.6350854   0.7744656  )
       237           N   tau( 237) = (  -0.4000001   0.8082905   0.1225140  )
       238           N   tau( 238) = (  -0.4000001   0.8082905   0.4484898  )
       239           N   tau( 239) = (  -0.4000001   0.8082905   0.7744656  )
       240           N   tau( 240) = (   0.1999999   0.1154701   0.1225140  )
       241           N   tau( 241) = (   0.1999999   0.1154701   0.4484898  )
       242           N   tau( 242) = (   0.1999999   0.1154701   0.7744656  )
       243           N   tau( 243) = (   0.0999999   0.2886752   0.1225140  )
       244           N   tau( 244) = (   0.0999999   0.2886752   0.4484898  )
       245           N   tau( 245) = (   0.0999999   0.2886752   0.7744656  )
       246           N   tau( 246) = (  -0.0000001   0.4618803   0.1225140  )
       247           N   tau( 247) = (  -0.0000001   0.4618803   0.4484898  )
       248           N   tau( 248) = (  -0.0000001   0.4618803   0.7744656  )
       249           N   tau( 249) = (  -0.1000001   0.6350854   0.1225140  )
       250           N   tau( 250) = (  -0.1000001   0.6350854   0.4484898  )
       251           N   tau( 251) = (  -0.1000001   0.6350854   0.7744656  )
       252           N   tau( 252) = (  -0.2000001   0.8082905   0.1225140  )
       253           N   tau( 253) = (  -0.2000001   0.8082905   0.4484898  )
       254           N   tau( 254) = (  -0.2000001   0.8082905   0.7744656  )
       255           N   tau( 255) = (   0.3999999   0.1154701   0.1225140  )
       256           N   tau( 256) = (   0.3999999   0.1154701   0.4484898  )
       257           N   tau( 257) = (   0.3999999   0.1154701   0.7744656  )
       258           N   tau( 258) = (   0.2999999   0.2886752   0.1225140  )
       259           N   tau( 259) = (   0.2999999   0.2886752   0.4484898  )
       260           N   tau( 260) = (   0.2999999   0.2886752   0.7744656  )
       261           N   tau( 261) = (   0.1999999   0.4618803   0.1225140  )
       262           N   tau( 262) = (   0.1999999   0.4618803   0.4484898  )
       263           N   tau( 263) = (   0.1999999   0.4618803   0.7744656  )
       264           N   tau( 264) = (   0.0999999   0.6350854   0.1225140  )
       265           N   tau( 265) = (   0.0999999   0.6350854   0.4484898  )
       266           N   tau( 266) = (   0.0999999   0.6350854   0.7744656  )
       267           N   tau( 267) = (  -0.0000001   0.8082905   0.1225140  )
       268           N   tau( 268) = (  -0.0000001   0.8082905   0.4484898  )
       269           N   tau( 269) = (  -0.0000001   0.8082905   0.7744656  )
       270           N   tau( 270) = (   0.5999999   0.1154701   0.1225140  )
       271           N   tau( 271) = (   0.5999999   0.1154701   0.4484898  )
       272           N   tau( 272) = (   0.5999999   0.1154701   0.7744656  )
       273           N   tau( 273) = (   0.4999999   0.2886752   0.1225140  )
       274           N   tau( 274) = (   0.4999999   0.2886752   0.4484898  )
       275           N   tau( 275) = (   0.4999999   0.2886752   0.7744656  )
       276           N   tau( 276) = (   0.3999999   0.4618803   0.1225140  )
       277           N   tau( 277) = (   0.3999999   0.4618803   0.4484898  )
       278           N   tau( 278) = (   0.3999999   0.4618803   0.7744656  )
       279           N   tau( 279) = (   0.2999999   0.6350854   0.1225140  )
       280           N   tau( 280) = (   0.2999999   0.6350854   0.4484898  )
       281           N   tau( 281) = (   0.2999999   0.6350854   0.7744656  )
       282           N   tau( 282) = (   0.1999999   0.8082905   0.1225140  )
       283           N   tau( 283) = (   0.1999999   0.8082905   0.4484898  )
       284           N   tau( 284) = (   0.1999999   0.8082905   0.7744656  )
       285           N   tau( 285) = (   0.7999999   0.1154701   0.1225140  )
       286           N   tau( 286) = (   0.7999999   0.1154701   0.4484898  )
       287           N   tau( 287) = (   0.7999999   0.1154701   0.7744656  )
       288           N   tau( 288) = (   0.6999999   0.2886752   0.1225140  )
       289           N   tau( 289) = (   0.6999999   0.2886752   0.4484898  )
       290           N   tau( 290) = (   0.6999999   0.2886752   0.7744656  )
       291           N   tau( 291) = (   0.5999999   0.4618803   0.1225140  )
       292           N   tau( 292) = (   0.5999999   0.4618803   0.4484898  )
       293           N   tau( 293) = (   0.5999999   0.4618803   0.7744656  )
       294           N   tau( 294) = (   0.4999999   0.6350854   0.1225140  )
       295           N   tau( 295) = (   0.4999999   0.6350854   0.4484898  )
       296           N   tau( 296) = (   0.4999999   0.6350854   0.7744656  )
       297           N   tau( 297) = (   0.3999999   0.8082905   0.1225140  )
       298           N   tau( 298) = (   0.3999999   0.8082905   0.4484898  )
       299           N   tau( 299) = (   0.3999999   0.8082905   0.7744656  )
       300           N   tau( 300) = (   0.1000001   0.0577350   0.1627148  )

   Crystallographic axes

     site n.     atom                  positions (cryst. coord.)
         1           Ga  tau(   1) = (  0.1333334  0.0666666  0.4997208  )
         2           Ga  tau(   2) = (  0.1333334  0.0666666  0.8330541  )
         3           Ga  tau(   3) = (  0.1333334  0.2666666  0.1663874  )
         4           Ga  tau(   4) = (  0.1333334  0.2666666  0.4997208  )
         5           Ga  tau(   5) = (  0.1333334  0.2666666  0.8330541  )
         6           Ga  tau(   6) = (  0.1333334  0.4666666  0.1663874  )
         7           Ga  tau(   7) = (  0.1333334  0.4666666  0.4997208  )
         8           Ga  tau(   8) = (  0.1333334  0.4666666  0.8330541  )
         9           Ga  tau(   9) = (  0.1333334  0.6666666  0.1663874  )
        10           Ga  tau(  10) = (  0.1333334  0.6666666  0.4997208  )
        11           Ga  tau(  11) = (  0.1333334  0.6666666  0.8330541  )
        12           Ga  tau(  12) = (  0.1333334  0.8666666  0.1663874  )
        13           Ga  tau(  13) = (  0.1333334  0.8666666  0.4997208  )
        14           Ga  tau(  14) = (  0.1333334  0.8666666  0.8330541  )
        15           Ga  tau(  15) = (  0.3333334  0.0666666  0.1663874  )
        16           Ga  tau(  16) = (  0.3333334  0.0666666  0.4997208  )
        17           Ga  tau(  17) = (  0.3333334  0.0666666  0.8330541  )
        18           Ga  tau(  18) = (  0.3333334  0.2666666  0.1663874  )
        19           Ga  tau(  19) = (  0.3333334  0.2666666  0.4997208  )
        20           Ga  tau(  20) = (  0.3333334  0.2666666  0.8330541  )
        21           Ga  tau(  21) = (  0.3333334  0.4666666  0.1663874  )
        22           Ga  tau(  22) = (  0.3333334  0.4666666  0.4997208  )
        23           Ga  tau(  23) = (  0.3333334  0.4666666  0.8330541  )
        24           Ga  tau(  24) = (  0.3333334  0.6666666  0.1663874  )
        25           Ga  tau(  25) = (  0.3333334  0.6666666  0.4997208  )
        26           Ga  tau(  26) = (  0.3333334  0.6666666  0.8330541  )
        27           Ga  tau(  27) = (  0.3333334  0.8666666  0.1663874  )
        28           Ga  tau(  28) = (  0.3333334  0.8666666  0.4997208  )
        29           Ga  tau(  29) = (  0.3333334  0.8666666  0.8330541  )
        30           Ga  tau(  30) = (  0.5333334  0.0666666  0.1663874  )
        31           Ga  tau(  31) = (  0.5333334  0.0666666  0.4997208  )
        32           Ga  tau(  32) = (  0.5333334  0.0666666  0.8330541  )
        33           Ga  tau(  33) = (  0.5333334  0.2666666  0.1663874  )
        34           Ga  tau(  34) = (  0.5333334  0.2666666  0.4997208  )
        35           Ga  tau(  35) = (  0.5333334  0.2666666  0.8330541  )
        36           Ga  tau(  36) = (  0.5333334  0.4666666  0.1663874  )
        37           Ga  tau(  37) = (  0.5333334  0.4666666  0.4997208  )
        38           Ga  tau(  38) = (  0.5333334  0.4666666  0.8330541  )
        39           Ga  tau(  39) = (  0.5333334  0.6666666  0.1663874  )
        40           Ga  tau(  40) = (  0.5333334  0.6666666  0.4997208  )
        41           Ga  tau(  41) = (  0.5333334  0.6666666  0.8330541  )
        42           Ga  tau(  42) = (  0.5333334  0.8666666  0.1663874  )
        43           Ga  tau(  43) = (  0.5333334  0.8666666  0.4997208  )
        44           Ga  tau(  44) = (  0.5333334  0.8666666  0.8330541  )
        45           Ga  tau(  45) = (  0.7333334  0.0666666  0.1663874  )
        46           Ga  tau(  46) = (  0.7333334  0.0666666  0.4997208  )
        47           Ga  tau(  47) = (  0.7333334  0.0666666  0.8330541  )
        48           Ga  tau(  48) = (  0.7333334  0.2666666  0.1663874  )
        49           Ga  tau(  49) = (  0.7333334  0.2666666  0.4997208  )
        50           Ga  tau(  50) = (  0.7333334  0.2666666  0.8330541  )
        51           Ga  tau(  51) = (  0.7333334  0.4666666  0.1663874  )
        52           Ga  tau(  52) = (  0.7333334  0.4666666  0.4997208  )
        53           Ga  tau(  53) = (  0.7333334  0.4666666  0.8330541  )
        54           Ga  tau(  54) = (  0.7333334  0.6666666  0.1663874  )
        55           Ga  tau(  55) = (  0.7333334  0.6666666  0.4997208  )
        56           Ga  tau(  56) = (  0.7333334  0.6666666  0.8330541  )
        57           Ga  tau(  57) = (  0.7333334  0.8666666  0.1663874  )
        58           Ga  tau(  58) = (  0.7333334  0.8666666  0.4997208  )
        59           Ga  tau(  59) = (  0.7333334  0.8666666  0.8330541  )
        60           Ga  tau(  60) = (  0.9333334  0.0666666  0.1663874  )
        61           Ga  tau(  61) = (  0.9333334  0.0666666  0.4997208  )
        62           Ga  tau(  62) = (  0.9333334  0.0666666  0.8330541  )
        63           Ga  tau(  63) = (  0.9333334  0.2666666  0.1663874  )
        64           Ga  tau(  64) = (  0.9333334  0.2666666  0.4997208  )
        65           Ga  tau(  65) = (  0.9333334  0.2666666  0.8330541  )
        66           Ga  tau(  66) = (  0.9333334  0.4666666  0.1663874  )
        67           Ga  tau(  67) = (  0.9333334  0.4666666  0.4997208  )
        68           Ga  tau(  68) = (  0.9333334  0.4666666  0.8330541  )
        69           Ga  tau(  69) = (  0.9333334  0.6666666  0.1663874  )
        70           Ga  tau(  70) = (  0.9333334  0.6666666  0.4997208  )
        71           Ga  tau(  71) = (  0.9333334  0.6666666  0.8330541  )
        72           Ga  tau(  72) = (  0.9333334  0.8666666  0.1663874  )
        73           Ga  tau(  73) = (  0.9333334  0.8666666  0.4997208  )
        74           Ga  tau(  74) = (  0.9333334  0.8666666  0.8330541  )
        75           Ga  tau(  75) = (  0.0666666  0.1333334  0.3330541  )
        76           Ga  tau(  76) = (  0.0666666  0.1333334  0.6663874  )
        77           Ga  tau(  77) = (  0.0666666  0.1333334  0.9997208  )
        78           Ga  tau(  78) = (  0.0666666  0.3333334  0.3330541  )
        79           Ga  tau(  79) = (  0.0666666  0.3333334  0.6663874  )
        80           Ga  tau(  80) = (  0.0666666  0.3333334  0.9997208  )
        81           Ga  tau(  81) = (  0.0666666  0.5333334  0.3330541  )
        82           Ga  tau(  82) = (  0.0666666  0.5333334  0.6663874  )
        83           Ga  tau(  83) = (  0.0666666  0.5333334  0.9997208  )
        84           Ga  tau(  84) = (  0.0666666  0.7333334  0.3330541  )
        85           Ga  tau(  85) = (  0.0666666  0.7333334  0.6663874  )
        86           Ga  tau(  86) = (  0.0666666  0.7333334  0.9997208  )
        87           Ga  tau(  87) = (  0.0666666  0.9333334  0.3330541  )
        88           Ga  tau(  88) = (  0.0666666  0.9333334  0.6663874  )
        89           Ga  tau(  89) = (  0.0666666  0.9333334  0.9997208  )
        90           Ga  tau(  90) = (  0.2666666  0.1333334  0.3330541  )
        91           Ga  tau(  91) = (  0.2666666  0.1333334  0.6663874  )
        92           Ga  tau(  92) = (  0.2666666  0.1333334  0.9997208  )
        93           Ga  tau(  93) = (  0.2666666  0.3333334  0.3330541  )
        94           Ga  tau(  94) = (  0.2666666  0.3333334  0.6663874  )
        95           Ga  tau(  95) = (  0.2666666  0.3333334  0.9997208  )
        96           Ga  tau(  96) = (  0.2666666  0.5333334  0.3330541  )
        97           Ga  tau(  97) = (  0.2666666  0.5333334  0.6663874  )
        98           Ga  tau(  98) = (  0.2666666  0.5333334  0.9997208  )
        99           Ga  tau(  99) = (  0.2666666  0.7333334  0.3330541  )
       100           Ga  tau( 100) = (  0.2666666  0.7333334  0.6663874  )
       101           Ga  tau( 101) = (  0.2666666  0.7333334  0.9997208  )
       102           Ga  tau( 102) = (  0.2666666  0.9333334  0.3330541  )
       103           Ga  tau( 103) = (  0.2666666  0.9333334  0.6663874  )
       104           Ga  tau( 104) = (  0.2666666  0.9333334  0.9997208  )
       105           Ga  tau( 105) = (  0.4666666  0.1333334  0.3330541  )
       106           Ga  tau( 106) = (  0.4666666  0.1333334  0.6663874  )
       107           Ga  tau( 107) = (  0.4666666  0.1333334  0.9997208  )
       108           Ga  tau( 108) = (  0.4666666  0.3333334  0.3330541  )
       109           Ga  tau( 109) = (  0.4666666  0.3333334  0.6663874  )
       110           Ga  tau( 110) = (  0.4666666  0.3333334  0.9997208  )
       111           Ga  tau( 111) = (  0.4666666  0.5333334  0.3330541  )
       112           Ga  tau( 112) = (  0.4666666  0.5333334  0.6663874  )
       113           Ga  tau( 113) = (  0.4666666  0.5333334  0.9997208  )
       114           Ga  tau( 114) = (  0.4666666  0.7333334  0.3330541  )
       115           Ga  tau( 115) = (  0.4666666  0.7333334  0.6663874  )
       116           Ga  tau( 116) = (  0.4666666  0.7333334  0.9997208  )
       117           Ga  tau( 117) = (  0.4666666  0.9333334  0.3330541  )
       118           Ga  tau( 118) = (  0.4666666  0.9333334  0.6663874  )
       119           Ga  tau( 119) = (  0.4666666  0.9333334  0.9997208  )
       120           Ga  tau( 120) = (  0.6666666  0.1333334  0.3330541  )
       121           Ga  tau( 121) = (  0.6666666  0.1333334  0.6663874  )
       122           Ga  tau( 122) = (  0.6666666  0.1333334  0.9997208  )
       123           Ga  tau( 123) = (  0.6666666  0.3333334  0.3330541  )
       124           Ga  tau( 124) = (  0.6666666  0.3333334  0.6663874  )
       125           Ga  tau( 125) = (  0.6666666  0.3333334  0.9997208  )
       126           Ga  tau( 126) = (  0.6666666  0.5333334  0.3330541  )
       127           Ga  tau( 127) = (  0.6666666  0.5333334  0.6663874  )
       128           Ga  tau( 128) = (  0.6666666  0.5333334  0.9997208  )
       129           Ga  tau( 129) = (  0.6666666  0.7333334  0.3330541  )
       130           Ga  tau( 130) = (  0.6666666  0.7333334  0.6663874  )
       131           Ga  tau( 131) = (  0.6666666  0.7333334  0.9997208  )
       132           Ga  tau( 132) = (  0.6666666  0.9333334  0.3330541  )
       133           Ga  tau( 133) = (  0.6666666  0.9333334  0.6663874  )
       134           Ga  tau( 134) = (  0.6666666  0.9333334  0.9997208  )
       135           Ga  tau( 135) = (  0.8666666  0.1333334  0.3330541  )
       136           Ga  tau( 136) = (  0.8666666  0.1333334  0.6663874  )
       137           Ga  tau( 137) = (  0.8666666  0.1333334  0.9997208  )
       138           Ga  tau( 138) = (  0.8666666  0.3333334  0.3330541  )
       139           Ga  tau( 139) = (  0.8666666  0.3333334  0.6663874  )
       140           Ga  tau( 140) = (  0.8666666  0.3333334  0.9997208  )
       141           Ga  tau( 141) = (  0.8666666  0.5333334  0.3330541  )
       142           Ga  tau( 142) = (  0.8666666  0.5333334  0.6663874  )
       143           Ga  tau( 143) = (  0.8666666  0.5333334  0.9997208  )
       144           Ga  tau( 144) = (  0.8666666  0.7333334  0.3330541  )
       145           Ga  tau( 145) = (  0.8666666  0.7333334  0.6663874  )
       146           Ga  tau( 146) = (  0.8666666  0.7333334  0.9997208  )
       147           Ga  tau( 147) = (  0.8666666  0.9333334  0.3330541  )
       148           Ga  tau( 148) = (  0.8666666  0.9333334  0.6663874  )
       149           Ga  tau( 149) = (  0.8666666  0.9333334  0.9997208  )
       150           N   tau( 150) = (  0.1333334  0.0666666  0.2919459  )
       151           N   tau( 151) = (  0.1333334  0.0666666  0.6252792  )
       152           N   tau( 152) = (  0.1333334  0.0666666  0.9586126  )
       153           N   tau( 153) = (  0.1333334  0.2666666  0.2919459  )
       154           N   tau( 154) = (  0.1333334  0.2666666  0.6252792  )
       155           N   tau( 155) = (  0.1333334  0.2666666  0.9586126  )
       156           N   tau( 156) = (  0.1333334  0.4666666  0.2919459  )
       157           N   tau( 157) = (  0.1333334  0.4666666  0.6252792  )
       158           N   tau( 158) = (  0.1333334  0.4666666  0.9586126  )
       159           N   tau( 159) = (  0.1333334  0.6666666  0.2919459  )
       160           N   tau( 160) = (  0.1333334  0.6666666  0.6252792  )
       161           N   tau( 161) = (  0.1333334  0.6666666  0.9586126  )
       162           N   tau( 162) = (  0.1333334  0.8666666  0.2919459  )
       163           N   tau( 163) = (  0.1333334  0.8666666  0.6252792  )
       164           N   tau( 164) = (  0.1333334  0.8666666  0.9586126  )
       165           N   tau( 165) = (  0.3333334  0.0666666  0.2919459  )
       166           N   tau( 166) = (  0.3333334  0.0666666  0.6252792  )
       167           N   tau( 167) = (  0.3333334  0.0666666  0.9586126  )
       168           N   tau( 168) = (  0.3333334  0.2666666  0.2919459  )
       169           N   tau( 169) = (  0.3333334  0.2666666  0.6252792  )
       170           N   tau( 170) = (  0.3333334  0.2666666  0.9586126  )
       171           N   tau( 171) = (  0.3333334  0.4666666  0.2919459  )
       172           N   tau( 172) = (  0.3333334  0.4666666  0.6252792  )
       173           N   tau( 173) = (  0.3333334  0.4666666  0.9586126  )
       174           N   tau( 174) = (  0.3333334  0.6666666  0.2919459  )
       175           N   tau( 175) = (  0.3333334  0.6666666  0.6252792  )
       176           N   tau( 176) = (  0.3333334  0.6666666  0.9586126  )
       177           N   tau( 177) = (  0.3333334  0.8666666  0.2919459  )
       178           N   tau( 178) = (  0.3333334  0.8666666  0.6252792  )
       179           N   tau( 179) = (  0.3333334  0.8666666  0.9586126  )
       180           N   tau( 180) = (  0.5333334  0.0666666  0.2919459  )
       181           N   tau( 181) = (  0.5333334  0.0666666  0.6252792  )
       182           N   tau( 182) = (  0.5333334  0.0666666  0.9586126  )
       183           N   tau( 183) = (  0.5333334  0.2666666  0.2919459  )
       184           N   tau( 184) = (  0.5333334  0.2666666  0.6252792  )
       185           N   tau( 185) = (  0.5333334  0.2666666  0.9586126  )
       186           N   tau( 186) = (  0.5333334  0.4666666  0.2919459  )
       187           N   tau( 187) = (  0.5333334  0.4666666  0.6252792  )
       188           N   tau( 188) = (  0.5333334  0.4666666  0.9586126  )
       189           N   tau( 189) = (  0.5333334  0.6666666  0.2919459  )
       190           N   tau( 190) = (  0.5333334  0.6666666  0.6252792  )
       191           N   tau( 191) = (  0.5333334  0.6666666  0.9586126  )
       192           N   tau( 192) = (  0.5333334  0.8666666  0.2919459  )
       193           N   tau( 193) = (  0.5333334  0.8666666  0.6252792  )
       194           N   tau( 194) = (  0.5333334  0.8666666  0.9586126  )
       195           N   tau( 195) = (  0.7333334  0.0666666  0.2919459  )
       196           N   tau( 196) = (  0.7333334  0.0666666  0.6252792  )
       197           N   tau( 197) = (  0.7333334  0.0666666  0.9586126  )
       198           N   tau( 198) = (  0.7333334  0.2666666  0.2919459  )
       199           N   tau( 199) = (  0.7333334  0.2666666  0.6252792  )
       200           N   tau( 200) = (  0.7333334  0.2666666  0.9586126  )
       201           N   tau( 201) = (  0.7333334  0.4666666  0.2919459  )
       202           N   tau( 202) = (  0.7333334  0.4666666  0.6252792  )
       203           N   tau( 203) = (  0.7333334  0.4666666  0.9586126  )
       204           N   tau( 204) = (  0.7333334  0.6666666  0.2919459  )
       205           N   tau( 205) = (  0.7333334  0.6666666  0.6252792  )
       206           N   tau( 206) = (  0.7333334  0.6666666  0.9586126  )
       207           N   tau( 207) = (  0.7333334  0.8666666  0.2919459  )
       208           N   tau( 208) = (  0.7333334  0.8666666  0.6252792  )
       209           N   tau( 209) = (  0.7333334  0.8666666  0.9586126  )
       210           N   tau( 210) = (  0.9333334  0.0666666  0.2919459  )
       211           N   tau( 211) = (  0.9333334  0.0666666  0.6252792  )
       212           N   tau( 212) = (  0.9333334  0.0666666  0.9586126  )
       213           N   tau( 213) = (  0.9333334  0.2666666  0.2919459  )
       214           N   tau( 214) = (  0.9333334  0.2666666  0.6252792  )
       215           N   tau( 215) = (  0.9333334  0.2666666  0.9586126  )
       216           N   tau( 216) = (  0.9333334  0.4666666  0.2919459  )
       217           N   tau( 217) = (  0.9333334  0.4666666  0.6252792  )
       218           N   tau( 218) = (  0.9333334  0.4666666  0.9586126  )
       219           N   tau( 219) = (  0.9333334  0.6666666  0.2919459  )
       220           N   tau( 220) = (  0.9333334  0.6666666  0.6252792  )
       221           N   tau( 221) = (  0.9333334  0.6666666  0.9586126  )
       222           N   tau( 222) = (  0.9333334  0.8666666  0.2919459  )
       223           N   tau( 223) = (  0.9333334  0.8666666  0.6252792  )
       224           N   tau( 224) = (  0.9333334  0.8666666  0.9586126  )
       225           N   tau( 225) = (  0.0666666  0.1333334  0.1252792  )
       226           N   tau( 226) = (  0.0666666  0.1333334  0.4586126  )
       227           N   tau( 227) = (  0.0666666  0.1333334  0.7919459  )
       228           N   tau( 228) = (  0.0666666  0.3333334  0.1252792  )
       229           N   tau( 229) = (  0.0666666  0.3333334  0.4586126  )
       230           N   tau( 230) = (  0.0666666  0.3333334  0.7919459  )
       231           N   tau( 231) = (  0.0666666  0.5333334  0.1252792  )
       232           N   tau( 232) = (  0.0666666  0.5333334  0.4586126  )
       233           N   tau( 233) = (  0.0666666  0.5333334  0.7919459  )
       234           N   tau( 234) = (  0.0666666  0.7333334  0.1252792  )
       235           N   tau( 235) = (  0.0666666  0.7333334  0.4586126  )
       236           N   tau( 236) = (  0.0666666  0.7333334  0.7919459  )
       237           N   tau( 237) = (  0.0666666  0.9333334  0.1252792  )
       238           N   tau( 238) = (  0.0666666  0.9333334  0.4586126  )
       239           N   tau( 239) = (  0.0666666  0.9333334  0.7919459  )
       240           N   tau( 240) = (  0.2666666  0.1333334  0.1252792  )
       241           N   tau( 241) = (  0.2666666  0.1333334  0.4586126  )
       242           N   tau( 242) = (  0.2666666  0.1333334  0.7919459  )
       243           N   tau( 243) = (  0.2666666  0.3333334  0.1252792  )
       244           N   tau( 244) = (  0.2666666  0.3333334  0.4586126  )
       245           N   tau( 245) = (  0.2666666  0.3333334  0.7919459  )
       246           N   tau( 246) = (  0.2666666  0.5333334  0.1252792  )
       247           N   tau( 247) = (  0.2666666  0.5333334  0.4586126  )
       248           N   tau( 248) = (  0.2666666  0.5333334  0.7919459  )
       249           N   tau( 249) = (  0.2666666  0.7333334  0.1252792  )
       250           N   tau( 250) = (  0.2666666  0.7333334  0.4586126  )
       251           N   tau( 251) = (  0.2666666  0.7333334  0.7919459  )
       252           N   tau( 252) = (  0.2666666  0.9333334  0.1252792  )
       253           N   tau( 253) = (  0.2666666  0.9333334  0.4586126  )
       254           N   tau( 254) = (  0.2666666  0.9333334  0.7919459  )
       255           N   tau( 255) = (  0.4666666  0.1333334  0.1252792  )
       256           N   tau( 256) = (  0.4666666  0.1333334  0.4586126  )
       257           N   tau( 257) = (  0.4666666  0.1333334  0.7919459  )
       258           N   tau( 258) = (  0.4666666  0.3333334  0.1252792  )
       259           N   tau( 259) = (  0.4666666  0.3333334  0.4586126  )
       260           N   tau( 260) = (  0.4666666  0.3333334  0.7919459  )
       261           N   tau( 261) = (  0.4666666  0.5333334  0.1252792  )
       262           N   tau( 262) = (  0.4666666  0.5333334  0.4586126  )
       263           N   tau( 263) = (  0.4666666  0.5333334  0.7919459  )
       264           N   tau( 264) = (  0.4666666  0.7333334  0.1252792  )
       265           N   tau( 265) = (  0.4666666  0.7333334  0.4586126  )
       266           N   tau( 266) = (  0.4666666  0.7333334  0.7919459  )
       267           N   tau( 267) = (  0.4666666  0.9333334  0.1252792  )
       268           N   tau( 268) = (  0.4666666  0.9333334  0.4586126  )
       269           N   tau( 269) = (  0.4666666  0.9333334  0.7919459  )
       270           N   tau( 270) = (  0.6666666  0.1333334  0.1252792  )
       271           N   tau( 271) = (  0.6666666  0.1333334  0.4586126  )
       272           N   tau( 272) = (  0.6666666  0.1333334  0.7919459  )
       273           N   tau( 273) = (  0.6666666  0.3333334  0.1252792  )
       274           N   tau( 274) = (  0.6666666  0.3333334  0.4586126  )
       275           N   tau( 275) = (  0.6666666  0.3333334  0.7919459  )
       276           N   tau( 276) = (  0.6666666  0.5333334  0.1252792  )
       277           N   tau( 277) = (  0.6666666  0.5333334  0.4586126  )
       278           N   tau( 278) = (  0.6666666  0.5333334  0.7919459  )
       279           N   tau( 279) = (  0.6666666  0.7333334  0.1252792  )
       280           N   tau( 280) = (  0.6666666  0.7333334  0.4586126  )
       281           N   tau( 281) = (  0.6666666  0.7333334  0.7919459  )
       282           N   tau( 282) = (  0.6666666  0.9333334  0.1252792  )
       283           N   tau( 283) = (  0.6666666  0.9333334  0.4586126  )
       284           N   tau( 284) = (  0.6666666  0.9333334  0.7919459  )
       285           N   tau( 285) = (  0.8666666  0.1333334  0.1252792  )
       286           N   tau( 286) = (  0.8666666  0.1333334  0.4586126  )
       287           N   tau( 287) = (  0.8666666  0.1333334  0.7919459  )
       288           N   tau( 288) = (  0.8666666  0.3333334  0.1252792  )
       289           N   tau( 289) = (  0.8666666  0.3333334  0.4586126  )
       290           N   tau( 290) = (  0.8666666  0.3333334  0.7919459  )
       291           N   tau( 291) = (  0.8666666  0.5333334  0.1252792  )
       292           N   tau( 292) = (  0.8666666  0.5333334  0.4586126  )
       293           N   tau( 293) = (  0.8666666  0.5333334  0.7919459  )
       294           N   tau( 294) = (  0.8666666  0.7333334  0.1252792  )
       295           N   tau( 295) = (  0.8666666  0.7333334  0.4586126  )
       296           N   tau( 296) = (  0.8666666  0.7333334  0.7919459  )
       297           N   tau( 297) = (  0.8666666  0.9333334  0.1252792  )
       298           N   tau( 298) = (  0.8666666  0.9333334  0.4586126  )
       299           N   tau( 299) = (  0.8666666  0.9333334  0.7919459  )
       300           N   tau( 300) = (  0.1333334  0.0666666  0.1663874  )

     number of k points=     6  Gaussian smearing, width (Ry)=  0.0100
                       cart. coord. in units 2pi/alat
        k(    1) = (   0.0000000   0.0000000   0.0000000), wk =   0.2500000
        k(    2) = (   0.0000000   0.0000000  -0.5112854), wk =   0.2500000
        k(    3) = (   0.0000000  -0.5773503   0.0000000), wk =   0.5000000
        k(    4) = (   0.0000000  -0.5773503  -0.5112854), wk =   0.5000000
        k(    5) = (  -0.5000000  -0.2886751   0.0000000), wk =   0.2500000
        k(    6) = (  -0.5000000  -0.2886751  -0.5112854), wk =   0.2500000

                       cryst. coord.
        k(    1) = (   0.0000000   0.0000000   0.0000000), wk =   0.2500000
        k(    2) = (   0.0000000   0.0000000  -0.5000000), wk =   0.2500000
        k(    3) = (   0.0000000  -0.5000000   0.0000000), wk =   0.5000000
        k(    4) = (   0.0000000  -0.5000000  -0.5000000), wk =   0.5000000
        k(    5) = (  -0.5000000  -0.0000000   0.0000000), wk =   0.2500000
        k(    6) = (  -0.5000000  -0.0000000  -0.5000000), wk =   0.2500000

     Dense  grid:  2698283 G-vectors     FFT dimensions: ( 192, 192, 180)

     Smooth grid:  1930731 G-vectors     FFT dimensions: ( 180, 180, 160)

     Dynamical RAM for                 wfc:      92.90 MB

     Dynamical RAM for     wfc (w. buffer):     278.71 MB

     Dynamical RAM for           str. fact:       1.29 MB

     Dynamical RAM for           local pot:       0.00 MB

     Dynamical RAM for          nlocal pot:     223.77 MB

     Dynamical RAM for                qrad:       3.00 MB

     Dynamical RAM for          rho,v,vnew:       4.46 MB

     Dynamical RAM for               rhoin:       1.49 MB

     Dynamical RAM for            rho*nmix:      10.29 MB

     Dynamical RAM for           G-vectors:       2.64 MB

     Dynamical RAM for          h,s,v(r/c):    1910.32 MB

     Dynamical RAM for          <psi|beta>:      95.86 MB

     Dynamical RAM for                 psi:     371.62 MB

     Dynamical RAM for                hpsi:     371.62 MB

     Dynamical RAM for                spsi:     371.62 MB

     Dynamical RAM for      wfcinit/wfcrot:     245.52 MB

     Dynamical RAM for           addusdens:      54.68 MB

     Dynamical RAM for          addusforce:     103.36 MB

     Dynamical RAM for         addusstress:      32.57 MB

     Estimated static dynamical RAM per process >     521.52 MB

     Estimated max dynamical RAM per process >       3.57 GB

     Estimated total dynamical RAM >     911.28 GB

     Atomic positions and unit cell read from directory:
     ./GaN.save/
     Atomic positions from file used, from input discarded
 

     Check: negative core charge=   -0.000003

     The initial density is read from file :
     ./GaN.save/charge-density



     %%%%%%%%%%%%%%%%%%%%%%%%%%%%%%%%%%%%%%%%%%%%%%%%%%%%%%%%%%%%%%%%%%%%%%%%
     %                                                                      %
     % You are using vdW-DF, which was implemented by the Thonhauser group. %
     % Please cite the following two papers that made this development      %
     % possible and the two reviews that describe the various versions:     %
     %                                                                      %
     %   T. Thonhauser et al., PRL 115, 136402 (2015).                      %
     %   T. Thonhauser et al., PRB 76, 125112 (2007).                       %
     %   K. Berland et al., Rep. Prog. Phys. 78, 066501 (2015).             %
     %   D.C. Langreth et al., J. Phys.: Condens. Matter 21, 084203 (2009). %
     %                                                                      %
     % If you are calculating stress with vdW-DF, please also cite:         %
     %                                                                      %
     %   R. Sabatini et al., J. Phys.: Condens. Matter 24, 424209 (2012).   %
     %                                                                      %
     %%%%%%%%%%%%%%%%%%%%%%%%%%%%%%%%%%%%%%%%%%%%%%%%%%%%%%%%%%%%%%%%%%%%%%%%

     %%%%%%%%%%%%%%%%%%%%%%%%%%%%%%%%%%%%%%%%%%%%%%%%%%%%%%%%%%%%%%%%%%%%%%%%
     %                                                                      %
     %  vdW-DF NEWS:                                                        %
     %                                                                      %
     %  * vdW-DF3 is now available. DOI: 10.1021/acs.jctc.0c00471           %
     %    use with input_dft = 'vdW-DF3-opt1' or 'vdW-DF3-opt2'             %
     %                                                                      %
     %  * Unscreened and range-separated vdW-DF hybrid functionals          %
     %    DOI: 10.1063/1.4986522 and 10.1088/1361-648X/ac2ad2               %
     %    use with input_dft = 'vdW-DF-cx0' (etc) and 'vdW-DF-ahcx'         %
     %                                                                      %
     %%%%%%%%%%%%%%%%%%%%%%%%%%%%%%%%%%%%%%%%%%%%%%%%%%%%%%%%%%%%%%%%%%%%%%%%


     Carrying out vdW-DF run using the following parameters:
     Nqs    =  20  Npoints =  1024  r_max =  100.000
     q_mesh =  0.00001000  0.04494208  0.09755937  0.15916263
               0.23128650  0.31572767  0.41458969  0.53033537
               0.66584808  0.82450364  1.01025438  1.22772762
               1.48234092  1.78043706  2.12944203  2.53805004
               3.01644009  3.57652955  4.23227104  5.00000000


     -----------------------------------------------
     Non-local corr. energy    =      81.34176312 Ry
     -----------------------------------------------

     Starting wfcs from file
     Checking if some PAW data can be deallocated... 
       PAW data deallocated on  151 nodes for type:  1
       PAW data deallocated on  105 nodes for type:  2

     total cpu time spent up to now is        9.2 secs

     Self-consistent Calculation

     iteration #  1     ecut=    70.00 Ry     beta= 0.70
     Davidson diagonalization with overlap

---- Real-time Memory Report at c_bands before calling an iterative solver
           283 MiB given to the printing process from OS
             0 MiB allocation reported by mallinfo(arena+hblkhd)
       2029032 MiB available memory on the node where the printing process lives
------------------
     ethr =  1.00E-05,  avg # of iterations = 12.0


     -----------------------------------------------
     Non-local corr. energy    =      81.34087608 Ry
     -----------------------------------------------


     total cpu time spent up to now is     2657.0 secs

     total energy              =  -46588.45688464 Ry
     estimated scf accuracy    <       0.24363008 Ry

     iteration #  2     ecut=    70.00 Ry     beta= 0.70
     Davidson diagonalization with overlap

---- Real-time Memory Report at c_bands before calling an iterative solver
          3111 MiB given to the printing process from OS
             0 MiB allocation reported by mallinfo(arena+hblkhd)
       1934555 MiB available memory on the node where the printing process lives
------------------
     ethr =  9.05E-06,  avg # of iterations = 12.8


     -----------------------------------------------
     Non-local corr. energy    =      81.34000665 Ry
     -----------------------------------------------


     total cpu time spent up to now is     5213.0 secs

     total energy              =  -46588.39481188 Ry
     estimated scf accuracy    <       0.57187070 Ry

     iteration #  3     ecut=    70.00 Ry     beta= 0.70
     Davidson diagonalization with overlap

---- Real-time Memory Report at c_bands before calling an iterative solver
          3154 MiB given to the printing process from OS
             0 MiB allocation reported by mallinfo(arena+hblkhd)
       1914070 MiB available memory on the node where the printing process lives
------------------
     ethr =  9.05E-06,  avg # of iterations = 11.7


     -----------------------------------------------
     Non-local corr. energy    =      81.34118975 Ry
     -----------------------------------------------


     total cpu time spent up to now is     7300.4 secs

     total energy              =  -46588.52356186 Ry
     estimated scf accuracy    <       0.10729369 Ry

     iteration #  4     ecut=    70.00 Ry     beta= 0.70
     Davidson diagonalization with overlap

---- Real-time Memory Report at c_bands before calling an iterative solver
          3154 MiB given to the printing process from OS
             0 MiB allocation reported by mallinfo(arena+hblkhd)
       1913929 MiB available memory on the node where the printing process lives
------------------
     ethr =  3.99E-06,  avg # of iterations = 16.0


     -----------------------------------------------
     Non-local corr. energy    =      81.34171358 Ry
     -----------------------------------------------


     total cpu time spent up to now is     9368.4 secs

     total energy              =  -46588.53666619 Ry
     estimated scf accuracy    <       0.02974345 Ry

     iteration #  5     ecut=    70.00 Ry     beta= 0.70
     Davidson diagonalization with overlap

---- Real-time Memory Report at c_bands before calling an iterative solver
          3154 MiB given to the printing process from OS
             0 MiB allocation reported by mallinfo(arena+hblkhd)
       1913755 MiB available memory on the node where the printing process lives
------------------
     ethr =  1.10E-06,  avg # of iterations = 17.8


     -----------------------------------------------
     Non-local corr. energy    =      81.34199946 Ry
     -----------------------------------------------


     total cpu time spent up to now is    11153.6 secs

     total energy              =  -46588.54100929 Ry
     estimated scf accuracy    <       0.00411091 Ry

     iteration #  6     ecut=    70.00 Ry     beta= 0.70
     Davidson diagonalization with overlap

---- Real-time Memory Report at c_bands before calling an iterative solver
          3154 MiB given to the printing process from OS
             0 MiB allocation reported by mallinfo(arena+hblkhd)
       1913563 MiB available memory on the node where the printing process lives
------------------
     ethr =  1.53E-07,  avg # of iterations = 16.5


     -----------------------------------------------
     Non-local corr. energy    =      81.34210580 Ry
     -----------------------------------------------


     total cpu time spent up to now is    13353.3 secs

     total energy              =  -46588.54142265 Ry
     estimated scf accuracy    <       0.00213393 Ry

     iteration #  7     ecut=    70.00 Ry     beta= 0.70
     Davidson diagonalization with overlap

---- Real-time Memory Report at c_bands before calling an iterative solver
          3154 MiB given to the printing process from OS
             0 MiB allocation reported by mallinfo(arena+hblkhd)
       1913417 MiB available memory on the node where the printing process lives
------------------
     ethr =  7.93E-08,  avg # of iterations = 16.5


     -----------------------------------------------
     Non-local corr. energy    =      81.34212533 Ry
     -----------------------------------------------


     total cpu time spent up to now is    15946.3 secs

     total energy              =  -46588.54146974 Ry
     estimated scf accuracy    <       0.00210457 Ry

     iteration #  8     ecut=    70.00 Ry     beta= 0.70
     Davidson diagonalization with overlap

---- Real-time Memory Report at c_bands before calling an iterative solver
          3154 MiB given to the printing process from OS
             0 MiB allocation reported by mallinfo(arena+hblkhd)
       1913248 MiB available memory on the node where the printing process lives
------------------
     ethr =  7.82E-08,  avg # of iterations = 17.2


     -----------------------------------------------
     Non-local corr. energy    =      81.34210806 Ry
     -----------------------------------------------


     total cpu time spent up to now is    18311.4 secs

     total energy              =  -46588.54170833 Ry
     estimated scf accuracy    <       0.00083081 Ry

     iteration #  9     ecut=    70.00 Ry     beta= 0.70
     Davidson diagonalization with overlap

---- Real-time Memory Report at c_bands before calling an iterative solver
          3154 MiB given to the printing process from OS
             0 MiB allocation reported by mallinfo(arena+hblkhd)
       1913099 MiB available memory on the node where the printing process lives
------------------
     ethr =  3.09E-08,  avg # of iterations = 16.0


     -----------------------------------------------
     Non-local corr. energy    =      81.34211607 Ry
     -----------------------------------------------


     total cpu time spent up to now is    20052.2 secs

     total energy              =  -46588.54182595 Ry
     estimated scf accuracy    <       0.00003340 Ry

     iteration # 10     ecut=    70.00 Ry     beta= 0.70
     Davidson diagonalization with overlap

---- Real-time Memory Report at c_bands before calling an iterative solver
          3154 MiB given to the printing process from OS
             0 MiB allocation reported by mallinfo(arena+hblkhd)
       1912973 MiB available memory on the node where the printing process lives
------------------
     c_bands:  1 eigenvalues not converged
     ethr =  1.24E-09,  avg # of iterations = 14.3


     -----------------------------------------------
     Non-local corr. energy    =      81.34207632 Ry
     -----------------------------------------------


     total cpu time spent up to now is    23924.6 secs

     total energy              =  -46588.54184123 Ry
     estimated scf accuracy    <       0.00000737 Ry

     iteration # 11     ecut=    70.00 Ry     beta= 0.70
     Davidson diagonalization with overlap

---- Real-time Memory Report at c_bands before calling an iterative solver
          3535 MiB given to the printing process from OS
             0 MiB allocation reported by mallinfo(arena+hblkhd)
       1912481 MiB available memory on the node where the printing process lives
------------------
     ethr =  2.74E-10,  avg # of iterations = 15.7


     -----------------------------------------------
     Non-local corr. energy    =      81.34201836 Ry
     -----------------------------------------------


     total cpu time spent up to now is    26459.3 secs

     total energy              =  -46588.54184273 Ry
     estimated scf accuracy    <       0.00000081 Ry

     iteration # 12     ecut=    70.00 Ry     beta= 0.70
     Davidson diagonalization with overlap

---- Real-time Memory Report at c_bands before calling an iterative solver
          3535 MiB given to the printing process from OS
             0 MiB allocation reported by mallinfo(arena+hblkhd)
       1912472 MiB available memory on the node where the printing process lives
------------------
     ethr =  2.99E-11,  avg # of iterations = 17.0


     -----------------------------------------------
     Non-local corr. energy    =      81.34200727 Ry
     -----------------------------------------------


     total cpu time spent up to now is    29153.7 secs

     total energy              =  -46588.54184286 Ry
     estimated scf accuracy    <       0.00000019 Ry

     iteration # 13     ecut=    70.00 Ry     beta= 0.70
     Davidson diagonalization with overlap

---- Real-time Memory Report at c_bands before calling an iterative solver
          3535 MiB given to the printing process from OS
             0 MiB allocation reported by mallinfo(arena+hblkhd)
       1912460 MiB available memory on the node where the printing process lives
------------------
     ethr =  7.18E-12,  avg # of iterations = 15.7


     -----------------------------------------------
     Non-local corr. energy    =      81.34200871 Ry
     -----------------------------------------------


     total cpu time spent up to now is    31913.8 secs

     total energy              =  -46588.54184290 Ry
     estimated scf accuracy    <       0.00000012 Ry

     iteration # 14     ecut=    70.00 Ry     beta= 0.70
     Davidson diagonalization with overlap

---- Real-time Memory Report at c_bands before calling an iterative solver
          3535 MiB given to the printing process from OS
             0 MiB allocation reported by mallinfo(arena+hblkhd)
       1912303 MiB available memory on the node where the printing process lives
------------------
     ethr =  4.61E-12,  avg # of iterations = 16.8


     -----------------------------------------------
     Non-local corr. energy    =      81.34200731 Ry
     -----------------------------------------------


     total cpu time spent up to now is    34404.3 secs

     End of self-consistent calculation

          k = 0.0000 0.0000 0.0000 (241213 PWs)   bands (ev):

    -7.2825  -6.8638  -6.6811  -6.6687  -6.6552  -6.6551  -6.6475  -6.6454
    -6.6452  -6.6093  -6.5301  -6.5227  -6.5226  -6.5201  -6.5200  -6.5146
    -6.5144  -6.5143  -6.5124  -6.5076  -6.5073  -6.4905  -6.4667  -6.4609
    -6.4605  -6.4577  -6.4516  -6.4511  -6.4507  -6.4463  -6.4417  -6.4387
    -6.4379  -6.4360  -6.4357  -6.4353  -6.4223  -6.4191  -6.4189  -6.4099
    -6.4037  -6.4023  -6.4018  -6.3999  -6.3989  -6.3987  -6.3948  -6.3948
    -6.3939  -6.3929  -6.3929  -6.3910  -6.3906  -6.3903  -6.3902  -6.3892
    -6.3891  -6.3890  -6.3887  -6.3885  -6.3881  -6.3877  -6.3870  -6.3870
    -6.3866  -6.3865  -6.3855  -6.3848  -6.3847  -6.3845  -6.3844  -6.3841
    -6.3840  -6.3839  -6.3835  -6.3834  -6.3830  -6.3827  -6.3813  -6.3810
    -6.3807  -6.3789  -6.3757  -6.3757  -6.3685  -6.3681  -6.3676  -6.3657
    -6.3617  -6.3612  -6.3607  -6.3592  -6.3591  -6.3586  -6.3575  -6.3570
    -6.3569  -6.3564  -6.3547  -6.3545  -6.3544  -6.3541  -6.3541  -6.3540
    -6.3532  -6.3527  -6.3525  -6.3516  -6.3513  -6.3508  -6.3506  -6.3504
    -6.3497  -6.3496  -6.3494  -6.3492  -6.3482  -6.3481  -6.3475  -6.3471
    -6.3471  -6.3466  -6.3465  -6.3463  -6.3462  -6.3456  -6.3451  -6.3451
    -6.3443  -6.3442  -6.3440  -6.3437  -6.3405  -6.3388  -6.3385  -6.3384
    -6.3381  -6.3364  -6.3358  -6.3354  -6.3350  -6.3350  -6.3333  -6.3329
    -6.3320  -6.3272  -6.3264  -6.1889  -6.1869  -6.1599  -5.3224  -5.3046
    -5.2960  -5.2960  -5.2860  -5.2859  -5.2832  -5.2832  -5.2800  -5.2798
    -5.2788  -5.2787  -5.2785  -5.2781  -5.2774  -5.2772  -5.2750  -5.2713
    -5.2711  -5.2709  -5.2675  -5.2662  -5.2661  -5.2658  -5.2656  -5.2654
    -5.2628  -5.2626  -5.2626  -5.2603  -5.2602  -5.2601  -5.2601  -5.2595
    -5.2594  -5.2593  -5.2591  -5.2591  -5.2588  -5.2580  -5.2579  -5.2578
    -5.2577  -5.2575  -5.2573  -5.2572  -5.2571  -5.2566  -5.2564  -5.2560
    -5.2559  -5.2545  -5.2545  -5.2539  -5.2538  -5.2536  -5.2501  -5.2501
    -5.2494  -5.2477  -5.2454  -5.2454  -5.2451  -5.2446  -5.2445  -5.2435
    -5.2435  -5.2433  -5.2433  -5.2424  -5.2423  -5.2413  -5.2413  -5.2409
    -5.2404  -5.2401  -5.2401  -5.2397  -5.2391  -5.2391  -5.2371  -5.2370
    -5.2369  -5.2361  -5.2348  -5.2347  -5.2346  -5.2339  -5.2339  -5.2338
    -5.2330  -5.2330  -5.2328  -5.2317  -5.2317  -5.2310  -5.2306  -5.2306
    -5.2305  -5.2301  -5.2301  -5.2294  -5.2289  -5.2288  -5.2283  -5.2283
    -5.2282  -5.2281  -5.2278  -5.2277  -5.2271  -5.2270  -5.2265  -5.2264
    -5.2263  -5.2263  -5.2254  -5.2253  -5.2251  -5.2251  -5.2244  -5.2240
    -5.2236  -5.2234  -5.2232  -5.2219  -5.2214  -5.2214  -5.2207  -5.2206
    -5.2206  -5.2178  -5.2158  -5.2157  -5.2150  -5.2139  -5.2138  -5.2134
    -5.2132  -5.2131  -5.2130  -5.2127  -5.2126  -5.2117  -5.2116  -5.2114
    -5.2109  -5.2107  -5.2103  -5.2094  -5.2094  -5.2093  -5.2090  -5.2088
    -5.2088  -5.2085  -5.2084  -5.2083  -5.2075  -5.2075  -5.2075  -5.2074
    -5.2067  -5.2067  -5.2064  -5.2061  -5.2059  -5.2059  -5.2055  -5.2055
    -5.2052  -5.2051  -5.2048  -5.2043  -5.2043  -5.2042  -5.2027  -5.2026
    -5.2017  -5.2009  -5.2005  -5.2001  -5.2001  -5.1989  -5.1989  -5.1970
    -5.1969  -5.1968  -5.1954  -5.1951  -5.1951  -5.1949  -5.1944  -5.1942
    -5.1924  -5.1917  -5.1914  -5.1904  -5.1902  -5.1901  -5.1891  -5.1888
    -5.1887  -5.1886  -5.1883  -5.1880  -5.1879  -5.1874  -5.1874  -5.1873
    -5.1872  -5.1872  -5.1870  -5.1864  -5.1863  -5.1858  -5.1856  -5.1856
    -5.1849  -5.1848  -5.1848  -5.1847  -5.1831  -5.1831  -5.1829  -5.1787
    -5.1786  -5.1757  -5.1756  -5.1699  -5.1698  -5.1696  -5.1689  -5.1679
    -5.1677  -5.1677  -5.1671  -5.1659  -5.1658  -5.1645  -5.1629  -5.1628
    -5.1626  -5.1617  -5.1614  -5.1613  -5.1597  -5.1594  -5.1594  -5.1578
    -5.1576  -5.1544  -5.1543  -5.1479  -5.1410  -5.1408  -5.1397  -5.1395
    -5.1391  -5.1379  -5.1377  -5.1376  -5.1372  -5.1363  -5.1355  -5.1354
    -5.1340  -5.1337  -5.1336  -5.1335  -5.1328  -5.1327  -5.1321  -5.1320
    -5.1318  -5.1318  -5.1317  -5.1309  -5.1308  -5.1308  -5.1307  -5.1307
    -5.1306  -5.1301  -5.1299  -5.1293  -5.1293  -5.1288  -5.1288  -5.1284
    -5.1282  -5.1281  -5.1277  -5.1276  -5.1274  -5.1261  -5.1259  -5.1256
    -5.1247  -5.1242  -5.1235  -5.1228  -5.1228  -5.1218  -5.1217  -5.1213
    -5.1213  -5.1211  -5.1208  -5.1202  -5.1200  -5.1197  -5.1197  -5.1190
    -5.1190  -5.1188  -5.1179  -5.1179  -5.1178  -5.1177  -5.1171  -5.1169
    -5.1169  -5.1168  -5.1165  -5.1164  -5.1158  -5.1157  -5.1148  -5.1144
    -5.1144  -5.1133  -5.1132  -5.1130  -5.1126  -5.1117  -5.1117  -5.1110
    -5.1110  -5.1098  -5.1098  -5.1093  -5.1087  -5.1078  -5.1078  -5.1075
    -5.1074  -5.1070  -5.1050  -5.1050  -5.1048  -5.1048  -5.1034  -5.1034
    -5.1024  -5.1023  -5.1021  -5.1020  -5.1018  -5.1016  -5.1015  -5.1012
    -5.1011  -5.1006  -5.1004  -5.1003  -5.1001  -5.1000  -5.0996  -5.0996
    -5.0991  -5.0989  -5.0989  -5.0987  -5.0979  -5.0978  -5.0977  -5.0977
    -5.0973  -5.0971  -5.0970  -5.0969  -5.0968  -5.0963  -5.0963  -5.0959
    -5.0959  -5.0950  -5.0949  -5.0949  -5.0944  -5.0944  -5.0942  -5.0935
    -5.0935  -5.0934  -5.0933  -5.0931  -5.0930  -5.0930  -5.0923  -5.0921
    -5.0921  -5.0909  -5.0909  -5.0906  -5.0888  -5.0888  -5.0885  -5.0873
    -5.0872  -5.0868  -5.0868  -5.0867  -5.0862  -5.0860  -5.0860  -5.0854
    -5.0851  -5.0849  -5.0849  -5.0831  -5.0831  -5.0819  -5.0818  -5.0814
    -5.0814  -5.0805  -5.0780  -5.0775  -5.0774  -5.0752  -5.0751  -5.0750
    -5.0739  -5.0738  -5.0733  -5.0732  -5.0725  -5.0715  -5.0714  -5.0713
    -5.0711  -5.0693  -5.0691  -5.0684  -5.0683  -5.0672  -5.0656  -5.0655
    -5.0654  -5.0654  -5.0650  -5.0650  -5.0646  -5.0640  -5.0640  -5.0636
    -5.0636  -5.0628  -5.0628  -5.0627  -5.0627  -5.0623  -5.0623  -5.0618
    -5.0617  -5.0617  -5.0614  -5.0604  -5.0600  -5.0600  -5.0592  -5.0585
    -5.0583  -5.0570  -5.0569  -5.0533  -5.0526  -5.0524  -5.0518  -5.0501
    -5.0494  -5.0494  -5.0484  -5.0479  -5.0475  -5.0474  -5.0471  -5.0470
    -5.0468  -5.0463  -5.0463  -5.0461  -5.0461  -5.0461  -5.0456  -5.0445
    -5.0444  -5.0441  -5.0435  -5.0434  -5.0434  -5.0428  -5.0424  -5.0423
    -5.0421  -5.0421  -5.0417  -5.0416  -5.0412  -5.0404  -5.0404  -5.0398
    -5.0398  -5.0398  -5.0397  -5.0396  -5.0395  -5.0389  -5.0388  -5.0380
    -5.0380  -5.0374  -5.0370  -5.0366  -5.0366  -5.0364  -5.0363  -5.0362
    -5.0360  -5.0360  -5.0359  -5.0357  -5.0356  -5.0355  -5.0351  -5.0351
    -5.0350  -5.0347  -5.0346  -5.0343  -5.0343  -5.0339  -5.0339  -5.0339
    -5.0338  -5.0337  -5.0337  -5.0333  -5.0326  -5.0326  -5.0318  -5.0314
    -5.0306  -5.0305  -5.0280  -5.0280  -5.0266  -5.0258  -5.0257  -5.0253
    -5.0244  -5.0244  -5.0241  -5.0241  -5.0238  -5.0232  -5.0232  -5.0224
    -5.0223  -5.0222  -5.0221  -5.0210  -5.0209  -5.0209  -5.0204  -5.0200
    -5.0199  -5.0194  -5.0194  -5.0192  -5.0187  -5.0186  -5.0170  -5.0168
    -5.0167  -5.0160  -5.0159  -5.0146  -5.0143  -5.0142  -5.0140  -5.0101
    -5.0101  -5.0076  -5.0076  -5.0069  -5.0026  -5.0022  -5.0021  -4.9969
    -4.9967  -4.9928  -4.9431  -4.8076  -4.8075  -4.8023  -4.7976  -4.7975
    -4.7959  -4.7950  -4.7950  -4.7948  -4.7947  -4.7946  -4.5882  -4.3657
    -4.3652  -4.3500  -4.3497  -4.3487  -4.3322  -4.3122  -4.2652  -4.1435
    -4.1425  -4.1106  -4.1095  -4.1092  -4.1065  -4.1059  -4.1057  -4.1049
    -4.1045  -4.1044  -4.0640  -4.0484  -4.0482  -4.0382  -4.0374  -4.0374
    -4.0287  -3.9824  -3.9822  -3.9731  -3.9726  -3.9724  -3.9711  -3.9710
    -3.9700  -3.9691  -3.9690  -3.9687  -3.8791  -3.8616  -3.8611  -3.8385
    -3.8377  -3.8377  -3.8366  -3.8356  -3.8355  -3.8353  -3.8338  -3.8338
    -3.5795  -3.5187  -3.4835  -3.4813  -3.4276  -3.4163  -3.4160  -3.4142
    -3.4137  -3.4137  -3.4120  -3.4117  -3.4112  -3.4085  -3.4082  -3.4081
    -3.4067  -3.4055  -3.4055  -3.3460  -3.3453  -3.3439  -3.3139  -3.3097
    -3.3094  -3.3094  -3.3072  -3.3070  -3.3070  -3.3058  -3.3052  -3.3051
    -3.2971  -3.2970  -3.2938  -3.2928  -3.2928  -3.2919  -3.2903  -3.2903
    -3.2902  -3.2888  -3.2888  -3.2796  -3.2755  -3.2755  -3.2721  -3.2721
    -3.2712  -3.1148  -3.1142  -3.0960  -3.0874  -3.0857  -3.0857  -3.0852
    -3.0835  -3.0834  -3.0819  -3.0798  -3.0797  -2.9768  -2.9767  -2.9740
    -2.9673  -2.9673  -2.9654  -2.9527  -2.9489  -2.9485  -2.9422  -2.9417
    -2.9416  -2.9337  -2.9308  -2.9305  -2.9283  -2.9279  -2.9268  -2.1209
     2.0590   2.5324   2.5390   2.5393   2.5463   2.5471   2.5472   2.5909
     2.5913   2.5977   2.5979   2.5993   2.6031   2.6031   2.6051   2.6056
     2.6057   2.6058   2.6067   2.6071   2.6084   2.6087   2.6089   2.6106
     2.6107   2.6108   2.6108   2.6123   2.6127   2.6129   2.7085   2.7676
     2.7679   2.7686   2.7698   2.7700   2.8244   2.9175   2.9178   2.9244
     2.9245   2.9253   2.9384   2.9635   2.9638   2.9752   2.9753   2.9764
     2.9765   2.9772   2.9781   2.9785   2.9786   2.9879   3.0447   3.1143
     3.1146   3.1171   3.1171   3.1181   3.1591   3.1980   3.1990   3.2178
     3.2186   3.2188   3.2204   3.2205   3.2208   3.2220   3.2223   3.2246
     3.2509   3.2520   3.2524   3.2667   3.2671   3.2675   3.2684   3.2701
     3.2705   3.2709   3.2715   3.2719   3.5072   3.5779   3.5942   3.6621
     3.6629   3.6633   3.6820   3.6822   3.6873   3.6874   3.6887   3.6887
     3.6895   3.6898   3.6906   3.6907   3.6915   3.6947   3.6947   3.6949
     3.8621   3.8905   3.8917   3.9093   3.9154   3.9161   3.9377   3.9485
     3.9488   3.9665   3.9667   3.9673   3.9698   3.9698   3.9702   3.9706
     3.9714   3.9716   4.4292   4.4308   4.4559   4.5108   4.5123   4.5124
     4.5185   4.5380   4.5389   4.5650   4.5697   4.5699   4.5726   4.5962
     4.5979   4.5983   4.6036   4.6043   4.6647   4.6789   4.6792   4.6980
     4.6982   4.7020   4.8713   4.8719   4.9586   4.9826   4.9827   4.9837
     4.9838   4.9853   4.9853   4.9868   4.9872   4.9920   5.2899   5.3318
     5.3350   5.3539   5.4573   5.4574   5.4577   5.4593   5.4595   5.4639
     5.4649   5.4650   5.4665   5.4665   5.4670   5.4685   5.4685   5.4718
     5.5689   5.5698   5.5834   5.6634   5.6664   5.6668   5.7104   5.7109
     5.7176   5.7874   5.8521   5.8523   5.8564   5.8738   5.8739   5.8804
     5.9012   5.9014   5.9014   5.9018   5.9019   5.9041   5.9093   5.9095
     5.9176   5.9176   5.9435   5.9658   5.9807   5.9807   5.9809   5.9812
     5.9849   5.9850   5.9855   5.9856   5.9861   5.9899   5.9903   5.9917
     5.9922   5.9923   5.9931   5.9933   5.9936   5.9951   5.9951   5.9981
[...]
Ga            1.6217342319       10.3025158844       15.8598846276
Ga            0.0018528772       13.1145404543        5.2850233089
Ga           -0.0009308209       13.1151173048       10.5743655962
Ga           -0.0031021182       13.1144387797       15.8584940409
Ga            9.7338118160        1.8723192111        5.2778386129
Ga            9.7337708940        1.8720670050       10.5754582726
Ga            9.7335684700        1.8725137906       15.8617845166
Ga            8.1093676612        4.6819482811        5.2802763997
Ga            8.1085596504        4.6814817759       10.5727801240
Ga            8.1040723170        4.6788910127       15.8628214148
Ga            6.4883795888        7.4935727213        5.2778386129
Ga            6.4881407109        7.4936633848       10.5754582726
Ga            6.4884264266        7.4932646878       15.8617845166
Ga            4.8676578871       10.2998877656        5.2853106282
Ga            4.8695005634       10.3019937471       10.5746510373
Ga            4.8700983988       10.3050886298       15.8587451422
Ga            3.2424200419       13.1148822881        5.2853106282
Ga            3.2451652134       13.1154251018       10.5746510373
Ga            3.2481443782       13.1143954011       15.8587451422
Ga           12.9828058643        1.8721925938        5.2794164908
Ga           12.9858862960        1.8703077647       10.5727919096
Ga           12.9917541086        1.8705803438       15.8680574561
Ga           11.3579817888        4.6821216729        5.2798136304
Ga           11.3589980693        4.6815529788       10.5725247422
Ga           11.3630367277        4.6788907702       15.8626529890
Ga            9.7338248867        7.4952439470        5.2798136304
Ga            9.7338405234        7.4964084187       10.5725247422
Ga            9.7335543123        7.5012371039       15.8626529890
Ga            8.1127669592       10.3073474125        5.2794164908
Ga            8.1126748652       10.3109575592       10.5727919096
Ga            8.1158448319       10.3159029445       15.8680574561
Ga            6.4871203595       13.1115478750        5.2906893737
Ga            6.4981655550       13.1179248216       10.5683492364
Ga            6.4904022947       13.1134427012       15.8647858732
N             1.6228213466        0.9369348704        4.7775969270
N             1.6221772132        0.9365629798        9.8866327226
N             1.6207478627        0.9357377439       15.1775598751
N             0.0044139432        3.7442001108        4.6335609196
N             0.0009618859        3.7463217189        9.9045047805
N             0.0092456428        3.7356805315       15.2181645602
N            -1.6205007836        6.5528797041        4.6269567023
N            -1.6223432336        6.5529030907        9.9207003448
N            -1.6219433303        6.5459136457       15.2169175670
N            -3.2466598690        9.3694698614        4.6269567023
N            -3.2475608407        9.3678625596        9.9207003448
N            -3.2534139259        9.3717036085       15.2169175670
N            -4.8665903845       12.1810270904        4.6335609196
N            -4.8664790466       12.1769767171        9.9045047805
N            -4.8715527068       12.1894712546       15.2181645602
N             4.8614648109        0.9337147888        4.6329033335
N             4.8663615032        0.9361059713        9.9046981530
N             4.8519351077        0.9353816820       15.2199974664
N             3.2393544062        3.7432924251        4.6329033335
N             3.2438735772        3.7463374938        9.9046981530
N             3.2360331265        3.7342060134       15.2199974664
N             1.6224352899        6.5589515317        4.6331634373
N             1.6223735190        6.5522921437        9.9265619417
N             1.6226360327        6.5520846739       15.2059513538
N            -0.0008006400        9.3657407895        4.6297584967
N            -0.0009010226        9.3656828336        9.9201679075
N            -0.0030244833        9.3644568530       15.2083284225
N            -1.6199334754       12.1748989701        4.6331634373
N            -1.6257315600       12.1781751690        9.9265619417
N            -1.6257799773       12.1785062474       15.2059513538
N             8.1074505470        0.9371256325        4.6268292304
N             8.1084480824        0.9385905452        9.9205570683
N             8.1019118021        0.9418499153       15.2171343328
N             6.4848124459        3.7440067404        4.6313466225
N             6.4856313098        3.7444795118        9.9195069569
N             6.4790730810        3.7406931166       15.2150994854
N             4.8653011517        6.5526931112        4.6268292304
N             4.8670685710        6.5528245459        9.9205570683
N             4.8666231282        6.5455342760       15.2171343328
N             3.2454854667        9.3657327499        4.6296089332
N             3.2455744189        9.3656410434        9.9200434667
N             3.2477514309        9.3646904059       15.2082032248
N             1.6223354508       12.1771110459        4.6296089332
N             1.6223005067       12.1772339339        9.9200434667
N             1.6225657366       12.1795946004       15.2082032248
N            11.3600279348        0.9370781956        4.6271315779
N            11.3587489385        0.9384153474        9.9208092708
N            11.3641801873        0.9409726399       15.2164682939
N             9.7334343363        3.7464677060        4.6270327387
N             9.7336128105        3.7459195380        9.9193985810
N             9.7334452687        3.7467667826       15.2116144850
N             8.1112546498        6.5561653421        4.6270327387
N             8.1108691595        6.5565939893        9.9193985810
N             8.1115191239        6.5560252716       15.2116144850
N             6.4915487640        9.3695314752        4.6271315779
N             6.4920672733        9.3677552561        9.9208092708
N             6.4969975780        9.3711802093       15.2164682939
N             4.8650096631       12.1750176779        4.6332375198
N             4.8701295541       12.1779736484        9.9263793388
N             4.8716807363       12.1788692238       15.2059905432
N            14.6053934603        0.9343451972        4.6329845091
N            14.6008541746        0.9357376463        9.9047260066
N            14.6150499416        0.9356344694       15.2191531683
N            12.9823738776        3.7440325284        4.6313785529
N            12.9818807627        3.7443691644        9.9200146427
N            12.9884026721        3.7401635664       15.2152227123
N            11.3560874007        6.5564386470        4.6269921607
N            11.3565206410        6.5566887784        9.9193543222
N            11.3556171550        6.5561671505       15.2117513159
N             9.7336154948        9.3710471091        4.6313785529
N             9.7336604727        9.3704517411        9.9200146427
N             9.7332792727        9.3782026794       15.2152227123
N             8.1118646807       12.1814669642        4.6329845091
N             8.1108009341       12.1768396029        9.9047260066
N             8.1178094638       12.1891850863       15.2191531683
N             0.0908569695        1.8217429927        1.9810879584
N            -0.0084959294        1.8780221911        7.2727459430
N             0.0015524511        1.8723945030       12.5451702648
N            -1.6011033347        4.6597040600        1.9938593572
N            -1.6235634048        4.6832626350        7.2680174410
N            -1.6153108593        4.6771384760       12.5678377196
N            -3.2405070474        7.4952995730        1.9888730347
N            -3.2423579075        7.4942309784        7.2706815737
N            -3.2415421149        7.4947019765       12.5702366049
N            -4.8765029401       10.3328625916        1.9938593572
N            -4.8673306506       10.3016323128        7.2680174410
N            -4.8685080551       10.3118413063       12.5678377196
N            -6.4882691670       13.2171237310        1.9810879584
N            -6.4892064010       13.1029419974        7.2727459430
N            -6.4890559315       13.1144579942       12.5451702648
N             3.1424951870        1.8143231210        1.9833454801
N             3.2524518970        1.8778066571        7.2728394412
N             3.2422657461        1.8719256802       12.5455149597
N             1.6221407555        4.6831123318        1.9899535535
N             1.6223460813        4.6860337149        7.2742628043
N             1.6224913824        4.6743022590       12.5640516495
N             0.0031361038        7.4888593541        1.9860440324
N             0.0004828947        7.4918356240        7.2760219610
N            -0.0014780492        7.4902735297       12.5665899754
N            -1.6242628649       10.3075970521        1.9860440324
N            -1.6230119441       10.3038111707        7.2760219610
N            -1.6253452294       10.3028939906       12.5665899754
N            -3.2446087369       13.1125697206        1.9899535535
N            -3.2419760820       13.1112868463        7.2742628043
N            -3.2520631702       13.1172784088       12.5640516495
N             6.4567932792        1.8668030480        1.9942932998
N             6.4892633023        1.8739830805        7.2673126059
N             6.4798079727        1.8700033760       12.5682501774
N             4.8450931831        4.6583495013        1.9942932998
N             4.8675462852        4.6828793499        7.2673126059
N             4.8593720952        4.6766806465       12.5682501774
N             3.2426704862        7.4886492625        1.9860170311
N             3.2443917751        7.4917472606        7.2759141878
N             3.2463549495        7.4901414362       12.5666679861
N             1.6222750678       10.3028281362        1.9883460566
N             1.6222908109       10.3028372255        7.2737256271
N             1.6222788406       10.3028303144       12.5631115349
N            -0.0046776184       13.1132211696        1.9860170311
N            -0.0011340289       13.1131628504        7.2759141878
N            -0.0015431264       13.1156659216       12.5666679861
N             9.7344237878        1.8692920375        1.9887640897
N             9.7336544819        1.8708602985        7.2706685979
N             9.7336880694        1.8699483037       12.5702008198
N             8.1011591195        4.6772090774        1.9902678657
N             8.1104508613        4.6825736670        7.2723127612
N             8.1064019791        4.6802360438       12.5671618569
N             6.4860639654        7.4956162913        1.9887640897
N             6.4870374663        7.4941659223        7.2706685979
N             6.4862644495        7.4946510073       12.5702008198
N             4.8694215066       10.3067505064        1.9861721636
N             4.8677977026       10.3036194005        7.2760681418
N             4.8701604334       10.3029869699       12.5666675689
N             3.2492451595       13.1129782570        1.9861721636
N             3.2457216403       13.1131375544        7.2760681418
N             3.2463553047       13.1154999546       12.5666675689
N            13.0095281980        1.8667227370        1.9929073230
N            12.9774591254        1.8743666862        7.2678454384
N            12.9871509101        1.8701904983       12.5679737420
N            11.3662895379        4.6771485683        1.9903861702
N            11.3567428872        4.6826639027        7.2721678836
N            11.3608639515        4.6802928799       12.5670432022
N             9.7336719263        7.5049252211        1.9903861702
N             9.7336750207        7.4938999119        7.2721678836
N             9.7336821869        7.4986543696       12.5670432022
N             8.1213910911       10.3332245607        1.9929073230
N             8.1119764090       10.3016299546        7.2678454384
N             8.1132056165       10.3121113803       12.5679737420
N             6.4882085432       13.1121761382        1.9895387001
N             6.4867039611       13.1113074673        7.2740175289
N             6.4971618424       13.1173453279       12.5645055057
N             1.6268869198        0.9392821302        2.5414494866



     Writing config-only to output data dir ./GaN.save/
     NEW-OLD atomic charge density approx. for the potential

     Check: negative core charge=   -0.000003


     -----------------------------------------------
     Non-local corr. energy    =      81.34229093 Ry
     -----------------------------------------------


     total cpu time spent up to now is   143937.2 secs

     Self-consistent Calculation

     iteration #  1     ecut=    70.00 Ry     beta= 0.70
     Davidson diagonalization with overlap

---- Real-time Memory Report at c_bands before calling an iterative solver
          3535 MiB given to the printing process from OS
             0 MiB allocation reported by mallinfo(arena+hblkhd)
       1920711 MiB available memory on the node where the printing process lives
------------------
     c_bands:  1 eigenvalues not converged
     ethr =  1.00E-06,  avg # of iterations = 13.7


     -----------------------------------------------
     Non-local corr. energy    =      81.34229195 Ry
     -----------------------------------------------


     total cpu time spent up to now is   147592.3 secs

     total energy              =  -46588.53588634 Ry
     estimated scf accuracy    <       0.01668134 Ry

     iteration #  2     ecut=    70.00 Ry     beta= 0.70
     Davidson diagonalization with overlap

---- Real-time Memory Report at c_bands before calling an iterative solver
          3535 MiB given to the printing process from OS
             0 MiB allocation reported by mallinfo(arena+hblkhd)
       1928087 MiB available memory on the node where the printing process lives
------------------
     ethr =  6.20E-07,  avg # of iterations = 16.2


     -----------------------------------------------
     Non-local corr. energy    =      81.34212094 Ry
     -----------------------------------------------


     total cpu time spent up to now is   150584.0 secs

     total energy              =  -46588.52168778 Ry
     estimated scf accuracy    <       0.13802220 Ry

     iteration #  3     ecut=    70.00 Ry     beta= 0.70
     Davidson diagonalization with overlap

---- Real-time Memory Report at c_bands before calling an iterative solver
          3535 MiB given to the printing process from OS
             0 MiB allocation reported by mallinfo(arena+hblkhd)
       1910681 MiB available memory on the node where the printing process lives
------------------
     ethr =  6.20E-07,  avg # of iterations = 16.3


     -----------------------------------------------
     Non-local corr. energy    =      81.34231147 Ry
     -----------------------------------------------


     total cpu time spent up to now is   153391.7 secs

     total energy              =  -46588.54140233 Ry
     estimated scf accuracy    <       0.01638286 Ry

     iteration #  4     ecut=    70.00 Ry     beta= 0.70
     Davidson diagonalization with overlap

---- Real-time Memory Report at c_bands before calling an iterative solver
          3535 MiB given to the printing process from OS
             0 MiB allocation reported by mallinfo(arena+hblkhd)
       1910664 MiB available memory on the node where the printing process lives
------------------
     c_bands:  1 eigenvalues not converged
     ethr =  6.09E-07,  avg # of iterations = 17.7


     -----------------------------------------------
     Non-local corr. energy    =      81.34231230 Ry
     -----------------------------------------------


     total cpu time spent up to now is   155388.9 secs

     total energy              =  -46588.54282316 Ry
     estimated scf accuracy    <       0.00278154 Ry

     Maximum CPU time exceeded

     max_seconds     =  154800.00
     elapsed seconds =  155388.22
     Calculation stopped in scf loop at iteration #     4

     Writing config to output data dir ./GaN.save/
 
     init_run     :      6.67s CPU      7.23s WALL (       1 calls)
     electrons    : 148705.56s CPU 149984.00s WALL (       5 calls)
     update_pot   :     10.41s CPU     10.62s WALL (       4 calls)
     forces       :    258.68s CPU    262.66s WALL (       4 calls)
     stress       :   5002.66s CPU   5050.51s WALL (       4 calls)

     Called by init_run:
     wfcinit      :      0.50s CPU      0.56s WALL (       1 calls)
     potinit      :      1.65s CPU      1.92s WALL (       1 calls)
     hinit0       :      1.35s CPU      1.46s WALL (       1 calls)

     Called by electrons:
     c_bands      : 147227.07s CPU 148481.24s WALL (      63 calls)
     sum_band     :   1332.57s CPU   1349.18s WALL (      63 calls)
     v_of_rho     :     61.91s CPU     64.52s WALL (      68 calls)
     v_h          :      0.61s CPU      0.62s WALL (      68 calls)
     v_xc         :     68.45s CPU     71.41s WALL (      76 calls)
     newd         :     13.84s CPU     14.12s WALL (      68 calls)
     PAW_pot      :     42.61s CPU     42.93s WALL (      72 calls)
     mix_rho      :      3.65s CPU      3.71s WALL (      63 calls)
     vdW_kernel   :      0.16s CPU      0.17s WALL (       1 calls)

     Called by c_bands:
     init_us_2    :     63.33s CPU     64.11s WALL (     276 calls)
     init_us_2:cp :     63.33s CPU     64.11s WALL (     276 calls)
     cegterg      : 125026.19s CPU 126126.44s WALL (     126 calls)

     Called by sum_band:
     sum_band:wei :      0.19s CPU      0.19s WALL (      63 calls)
     sum_band:loo :   1298.47s CPU   1308.96s WALL (      63 calls)
     sum_band:buf :     15.42s CPU     15.62s WALL (     126 calls)
     sum_band:ini :     32.57s CPU     32.94s WALL (     126 calls)
     sum_band:cal :    949.54s CPU    956.29s WALL (     134 calls)
     sum_band:bec :      7.79s CPU      7.89s WALL (     134 calls)
     addusdens    :     12.87s CPU     13.40s WALL (      63 calls)
     addusd:skk   :      2.67s CPU      2.77s WALL (     126 calls)
     addusd:dgemm :      6.06s CPU      6.39s WALL (     126 calls)
     addusd:qvan2 :      1.49s CPU      1.51s WALL (     126 calls)

     Called by *egterg:
     cdiaghg      : 106981.21s CPU 107651.79s WALL (    2002 calls)
     cegterg:over :   3736.94s CPU   3840.15s WALL (    1886 calls)
     cegterg:upda :   2436.26s CPU   2476.18s WALL (    1886 calls)
     cegterg:last :   1044.88s CPU   1052.46s WALL (     127 calls)
     h_psi        :   7286.83s CPU   7398.19s WALL (    2012 calls)
     s_psi        :   2585.13s CPU   2626.18s WALL (    2012 calls)
     g_psi        :      8.21s CPU      8.32s WALL (    1886 calls)

     Called by h_psi:
     h_psi:calbec :   2733.17s CPU   2756.02s WALL (    2012 calls)
     vloc_psi     :   1937.97s CPU   1958.11s WALL (    2012 calls)
     add_vuspsi   :   2585.63s CPU   2630.11s WALL (    2012 calls)

     General routines
     calbec       :   4095.45s CPU   4127.95s WALL (    2186 calls)
     fft          :     29.76s CPU     30.13s WALL (    4956 calls)
     ffts         :      1.03s CPU      1.04s WALL (     131 calls)
     fftw         :   2105.49s CPU   2128.00s WALL ( 1374442 calls)
     interpolate  :      0.86s CPU      0.87s WALL (      68 calls)
     davcio       :      0.00s CPU      1.81s WALL (      12 calls)
 
     Parallel routines

     PAW routines
     PAW_pot      :     42.61s CPU     42.93s WALL (      72 calls)
     PAW_symme    :      1.30s CPU      1.31s WALL (     134 calls)
 
     PWSCF        :   1d18h47m CPU   1d19h 9m WALL

 
   This run was terminated on:  20:50:38  18Mar2024            

=------------------------------------------------------------------------------=
   JOB DONE.
=------------------------------------------------------------------------------=
