
     Program PWSCF v.7.1 starts on 22Apr2024 at  9:20:31 

     This program is part of the open-source Quantum ESPRESSO suite
     for quantum simulation of materials; please cite
         "P. Giannozzi et al., J. Phys.:Condens. Matter 21 395502 (2009);
         "P. Giannozzi et al., J. Phys.:Condens. Matter 29 465901 (2017);
         "P. Giannozzi et al., J. Chem. Phys. 152 154105 (2020);
          URL http://www.quantum-espresso.org", 
     in publications or presentations arising from this work. More details at
     http://www.quantum-espresso.org/quote

     Parallel version (MPI & OpenMP), running on     256 processor cores
     Number of MPI processes:               256
     Threads/MPI process:                     1

     MPI processes distributed on     2 nodes
     1997023 MiB available memory on the printing compute node when the environment starts
 
     Reading input from espresso.pwi
Warning: card &CELL ignored
Warning: card    CELL_DYNAMICS    = 'BFGS' ignored
Warning: card / ignored

     Current dimensions of program PWSCF are:
     Max number of different atomic species (ntypx) = 10
     Max number of k-points (npk) =  40000
     Max angular momentum in pseudopotentials (lmaxx) =  4
     file Ga.pbe-dn-kjpaw_psl.1.0.0.UPF: wavefunction(s)  4S renormalized
     file N.pbe-n-kjpaw_psl.1.0.0.UPF: wavefunction(s)  2S renormalized

     **************************************************************************
     Initializing libbeef V0.1.2 with the BEEF-vdW functional.
     Citation: Wellendorff et al., PRB 85, 235149 (2012).
     **************************************************************************


     IMPORTANT: XC functional enforced from input :
     Exchange-correlation= BEEF-VDW
                           (   1   4  43  14   2   0   0)
     Any further DFT definition will be discarded
     Please, verify this is what you really want

 
     K-points division:     npool     =       4
     R & G space division:  proc/nbgrp/npool/nimage =      64
     Subspace diagonalization in iterative solution of the eigenvalue problem:
     a serial algorithm will be used

 
     Parallelization info
     --------------------
     sticks:   dense  smooth     PW     G-vecs:    dense   smooth      PW
     Min         354     283     73                42160    30167    3987
     Max         356     285     74                42163    30170    3996
     Sum       22693   18145   4705              2698283  1930731  255309
 
     Using Slab Decomposition
 


     bravais-lattice index     =            4
     lattice parameter (alat)  =      30.6565  a.u.
     unit-cell volume          =   24400.9461 (a.u.)^3
     number of atoms/cell      =          300
     number of atomic types    =            2
     number of electrons       =      2690.00
     number of Kohn-Sham states=         1614
     kinetic-energy cutoff     =      70.0000  Ry
     charge density cutoff     =     350.0000  Ry
     scf convergence threshold =      1.0E-07
     mixing beta               =       0.7000
     number of iterations used =            8  plain     mixing
     energy convergence thresh.=      1.0E-04
     force convergence thresh. =      1.0E-03
     Exchange-correlation= BEEF-VDW
                           (   1   4  43  14   2   0   0)
     nstep                     =           50


     celldm(1)=  30.656540  celldm(2)=   0.000000  celldm(3)=   0.977927
     celldm(4)=   0.000000  celldm(5)=   0.000000  celldm(6)=   0.000000

     crystal axes: (cart. coord. in units of alat)
               a(1) = (   1.000000   0.000000   0.000000 )  
               a(2) = (  -0.500000   0.866025   0.000000 )  
               a(3) = (   0.000000   0.000000   0.977927 )  

     reciprocal axes: (cart. coord. in units 2 pi/alat)
               b(1) = (  1.000000  0.577350 -0.000000 )  
               b(2) = (  0.000000  1.154701  0.000000 )  
               b(3) = (  0.000000 -0.000000  1.022571 )  


     PseudoPot. # 1 for Ga read from file:
     //group///packages/espresso/pseudo/psl_1.0.0/pslibrary.1.0.0/pbe/PSEUDOPOTENTIALS/Ga.pbe-dn-kjpaw_psl.1.0.0.UPF
     MD5 check sum: cd2a01e492f15b435d17032472d8505c
     Pseudo is Projector augmented-wave + core cor, Zval = 13.0
     Generated using 'atomic' code by A. Dal Corso  v.7.1
     Shape of augmentation charge: PSQ
     Using radial grid of 1205 points,  6 beta functions with: 
                l(1) =   0
                l(2) =   0
                l(3) =   1
                l(4) =   1
                l(5) =   2
                l(6) =   2
     Q(r) pseudized with 0 coefficients 


     PseudoPot. # 2 for N  read from file:
     //group///packages/espresso/pseudo/psl_1.0.0/pslibrary.1.0.0/pbe/PSEUDOPOTENTIALS/N.pbe-n-kjpaw_psl.1.0.0.UPF
     MD5 check sum: f77f775694dac7e2c3fe1c82443d1a16
     Pseudo is Projector augmented-wave + core cor, Zval =  5.0
     Generated using 'atomic' code by A. Dal Corso  v.7.1
     Shape of augmentation charge: PSQ
     Using radial grid of 1085 points,  4 beta functions with: 
                l(1) =   0
                l(2) =   0
                l(3) =   1
                l(4) =   1
     Q(r) pseudized with 0 coefficients 


     atomic species   valence    mass     pseudopotential
        Ga            13.00    69.72300     Ga( 1.00)
        N              5.00    14.00700     N ( 1.00)

      2 Sym. Ops. (no inversion) found


                                    s                        frac. trans.

      isym =  1     identity                                     

 cryst.   s( 1) = (     1          0          0      )
                  (     0          1          0      )
                  (     0          0          1      )

 cart.    s( 1) = (  1.0000000  0.0000000  0.0000000 )
                  (  0.0000000  1.0000000  0.0000000 )
                  (  0.0000000  0.0000000  1.0000000 )


      isym =  2     inv. 180 deg rotation - cryst. axis [0,1,0]  

 cryst.   s( 2) = (     1          1          0      )
                  (     0         -1          0      )
                  (     0          0          1      )

 cart.    s( 2) = (  0.5000000  0.8660254  0.0000000 )
                  (  0.8660254 -0.5000000  0.0000000 )
                  (  0.0000000  0.0000000  1.0000000 )


     point group C_s (m)    
     there are  2 classes
     the character table:

       E     s    
A'     1.00  1.00
A''    1.00 -1.00

     the symmetry operations in each class and the name of the first element:

     E        1
          identity                                               
     s        2
          inv. 180 deg rotation - cryst. axis [0,1,0]            

   Cartesian axes

     site n.     atom                  positions (alat units)
         1           Ga  tau(   1) = (   0.1000001   0.0577350   0.4886906  )
         2           Ga  tau(   2) = (   0.1000001   0.0577350   0.8146665  )
         3           Ga  tau(   3) = (   0.0000001   0.2309401   0.1627148  )
         4           Ga  tau(   4) = (   0.0000001   0.2309401   0.4886906  )
         5           Ga  tau(   5) = (   0.0000001   0.2309401   0.8146665  )
         6           Ga  tau(   6) = (  -0.0999999   0.4041451   0.1627148  )
         7           Ga  tau(   7) = (  -0.0999999   0.4041451   0.4886906  )
         8           Ga  tau(   8) = (  -0.0999999   0.4041451   0.8146665  )
         9           Ga  tau(   9) = (  -0.1999999   0.5773502   0.1627148  )
        10           Ga  tau(  10) = (  -0.1999999   0.5773502   0.4886906  )
        11           Ga  tau(  11) = (  -0.1999999   0.5773502   0.8146665  )
        12           Ga  tau(  12) = (  -0.2999999   0.7505553   0.1627148  )
        13           Ga  tau(  13) = (  -0.2999999   0.7505553   0.4886906  )
        14           Ga  tau(  14) = (  -0.2999999   0.7505553   0.8146665  )
        15           Ga  tau(  15) = (   0.3000001   0.0577350   0.1627148  )
        16           Ga  tau(  16) = (   0.3000001   0.0577350   0.4886906  )
        17           Ga  tau(  17) = (   0.3000001   0.0577350   0.8146665  )
        18           Ga  tau(  18) = (   0.2000001   0.2309401   0.1627148  )
        19           Ga  tau(  19) = (   0.2000001   0.2309401   0.4886906  )
        20           Ga  tau(  20) = (   0.2000001   0.2309401   0.8146665  )
        21           Ga  tau(  21) = (   0.1000001   0.4041451   0.1627148  )
        22           Ga  tau(  22) = (   0.1000001   0.4041451   0.4886906  )
        23           Ga  tau(  23) = (   0.1000001   0.4041451   0.8146665  )
        24           Ga  tau(  24) = (   0.0000001   0.5773502   0.1627148  )
        25           Ga  tau(  25) = (   0.0000001   0.5773502   0.4886906  )
        26           Ga  tau(  26) = (   0.0000001   0.5773502   0.8146665  )
        27           Ga  tau(  27) = (  -0.0999999   0.7505553   0.1627148  )
        28           Ga  tau(  28) = (  -0.0999999   0.7505553   0.4886906  )
        29           Ga  tau(  29) = (  -0.0999999   0.7505553   0.8146665  )
        30           Ga  tau(  30) = (   0.5000001   0.0577350   0.1627148  )
        31           Ga  tau(  31) = (   0.5000001   0.0577350   0.4886906  )
        32           Ga  tau(  32) = (   0.5000001   0.0577350   0.8146665  )
        33           Ga  tau(  33) = (   0.4000001   0.2309401   0.1627148  )
        34           Ga  tau(  34) = (   0.4000001   0.2309401   0.4886906  )
        35           Ga  tau(  35) = (   0.4000001   0.2309401   0.8146665  )
        36           Ga  tau(  36) = (   0.3000001   0.4041451   0.1627148  )
        37           Ga  tau(  37) = (   0.3000001   0.4041451   0.4886906  )
        38           Ga  tau(  38) = (   0.3000001   0.4041451   0.8146665  )
        39           Ga  tau(  39) = (   0.2000001   0.5773502   0.1627148  )
        40           Ga  tau(  40) = (   0.2000001   0.5773502   0.4886906  )
        41           Ga  tau(  41) = (   0.2000001   0.5773502   0.8146665  )
        42           Ga  tau(  42) = (   0.1000001   0.7505553   0.1627148  )
        43           Ga  tau(  43) = (   0.1000001   0.7505553   0.4886906  )
        44           Ga  tau(  44) = (   0.1000001   0.7505553   0.8146665  )
        45           Ga  tau(  45) = (   0.7000001   0.0577350   0.1627148  )
        46           Ga  tau(  46) = (   0.7000001   0.0577350   0.4886906  )
        47           Ga  tau(  47) = (   0.7000001   0.0577350   0.8146665  )
        48           Ga  tau(  48) = (   0.6000001   0.2309401   0.1627148  )
        49           Ga  tau(  49) = (   0.6000001   0.2309401   0.4886906  )
        50           Ga  tau(  50) = (   0.6000001   0.2309401   0.8146665  )
        51           Ga  tau(  51) = (   0.5000001   0.4041451   0.1627148  )
        52           Ga  tau(  52) = (   0.5000001   0.4041451   0.4886906  )
        53           Ga  tau(  53) = (   0.5000001   0.4041451   0.8146665  )
        54           Ga  tau(  54) = (   0.4000001   0.5773502   0.1627148  )
        55           Ga  tau(  55) = (   0.4000001   0.5773502   0.4886906  )
        56           Ga  tau(  56) = (   0.4000001   0.5773502   0.8146665  )
        57           Ga  tau(  57) = (   0.3000001   0.7505553   0.1627148  )
        58           Ga  tau(  58) = (   0.3000001   0.7505553   0.4886906  )
        59           Ga  tau(  59) = (   0.3000001   0.7505553   0.8146665  )
        60           Ga  tau(  60) = (   0.9000001   0.0577350   0.1627148  )
        61           Ga  tau(  61) = (   0.9000001   0.0577350   0.4886906  )
        62           Ga  tau(  62) = (   0.9000001   0.0577350   0.8146665  )
        63           Ga  tau(  63) = (   0.8000001   0.2309401   0.1627148  )
        64           Ga  tau(  64) = (   0.8000001   0.2309401   0.4886906  )
        65           Ga  tau(  65) = (   0.8000001   0.2309401   0.8146665  )
        66           Ga  tau(  66) = (   0.7000001   0.4041451   0.1627148  )
        67           Ga  tau(  67) = (   0.7000001   0.4041451   0.4886906  )
        68           Ga  tau(  68) = (   0.7000001   0.4041451   0.8146665  )
        69           Ga  tau(  69) = (   0.6000001   0.5773502   0.1627148  )
        70           Ga  tau(  70) = (   0.6000001   0.5773502   0.4886906  )
        71           Ga  tau(  71) = (   0.6000001   0.5773502   0.8146665  )
        72           Ga  tau(  72) = (   0.5000001   0.7505553   0.1627148  )
        73           Ga  tau(  73) = (   0.5000001   0.7505553   0.4886906  )
        74           Ga  tau(  74) = (   0.5000001   0.7505553   0.8146665  )
        75           Ga  tau(  75) = (  -0.0000001   0.1154701   0.3257027  )
        76           Ga  tau(  76) = (  -0.0000001   0.1154701   0.6516786  )
        77           Ga  tau(  77) = (  -0.0000001   0.1154701   0.9776544  )
        78           Ga  tau(  78) = (  -0.1000001   0.2886752   0.3257027  )
        79           Ga  tau(  79) = (  -0.1000001   0.2886752   0.6516786  )
        80           Ga  tau(  80) = (  -0.1000001   0.2886752   0.9776544  )
        81           Ga  tau(  81) = (  -0.2000001   0.4618803   0.3257027  )
        82           Ga  tau(  82) = (  -0.2000001   0.4618803   0.6516786  )
        83           Ga  tau(  83) = (  -0.2000001   0.4618803   0.9776544  )
        84           Ga  tau(  84) = (  -0.3000001   0.6350854   0.3257027  )
        85           Ga  tau(  85) = (  -0.3000001   0.6350854   0.6516786  )
        86           Ga  tau(  86) = (  -0.3000001   0.6350854   0.9776544  )
        87           Ga  tau(  87) = (  -0.4000001   0.8082905   0.3257027  )
        88           Ga  tau(  88) = (  -0.4000001   0.8082905   0.6516786  )
        89           Ga  tau(  89) = (  -0.4000001   0.8082905   0.9776544  )
        90           Ga  tau(  90) = (   0.1999999   0.1154701   0.3257027  )
        91           Ga  tau(  91) = (   0.1999999   0.1154701   0.6516786  )
        92           Ga  tau(  92) = (   0.1999999   0.1154701   0.9776544  )
        93           Ga  tau(  93) = (   0.0999999   0.2886752   0.3257027  )
        94           Ga  tau(  94) = (   0.0999999   0.2886752   0.6516786  )
        95           Ga  tau(  95) = (   0.0999999   0.2886752   0.9776544  )
        96           Ga  tau(  96) = (  -0.0000001   0.4618803   0.3257027  )
        97           Ga  tau(  97) = (  -0.0000001   0.4618803   0.6516786  )
        98           Ga  tau(  98) = (  -0.0000001   0.4618803   0.9776544  )
        99           Ga  tau(  99) = (  -0.1000001   0.6350854   0.3257027  )
       100           Ga  tau( 100) = (  -0.1000001   0.6350854   0.6516786  )
       101           Ga  tau( 101) = (  -0.1000001   0.6350854   0.9776544  )
       102           Ga  tau( 102) = (  -0.2000001   0.8082905   0.3257027  )
       103           Ga  tau( 103) = (  -0.2000001   0.8082905   0.6516786  )
       104           Ga  tau( 104) = (  -0.2000001   0.8082905   0.9776544  )
       105           Ga  tau( 105) = (   0.3999999   0.1154701   0.3257027  )
       106           Ga  tau( 106) = (   0.3999999   0.1154701   0.6516786  )
       107           Ga  tau( 107) = (   0.3999999   0.1154701   0.9776544  )
       108           Ga  tau( 108) = (   0.2999999   0.2886752   0.3257027  )
       109           Ga  tau( 109) = (   0.2999999   0.2886752   0.6516786  )
       110           Ga  tau( 110) = (   0.2999999   0.2886752   0.9776544  )
       111           Ga  tau( 111) = (   0.1999999   0.4618803   0.3257027  )
       112           Ga  tau( 112) = (   0.1999999   0.4618803   0.6516786  )
       113           Ga  tau( 113) = (   0.1999999   0.4618803   0.9776544  )
       114           Ga  tau( 114) = (   0.0999999   0.6350854   0.3257027  )
       115           Ga  tau( 115) = (   0.0999999   0.6350854   0.6516786  )
       116           Ga  tau( 116) = (   0.0999999   0.6350854   0.9776544  )
       117           Ga  tau( 117) = (  -0.0000001   0.8082905   0.3257027  )
       118           Ga  tau( 118) = (  -0.0000001   0.8082905   0.6516786  )
       119           Ga  tau( 119) = (  -0.0000001   0.8082905   0.9776544  )
       120           Ga  tau( 120) = (   0.5999999   0.1154701   0.3257027  )
       121           Ga  tau( 121) = (   0.5999999   0.1154701   0.6516786  )
       122           Ga  tau( 122) = (   0.5999999   0.1154701   0.9776544  )
       123           Ga  tau( 123) = (   0.4999999   0.2886752   0.3257027  )
       124           Ga  tau( 124) = (   0.4999999   0.2886752   0.6516786  )
       125           Ga  tau( 125) = (   0.4999999   0.2886752   0.9776544  )
       126           Ga  tau( 126) = (   0.3999999   0.4618803   0.3257027  )
       127           Ga  tau( 127) = (   0.3999999   0.4618803   0.6516786  )
       128           Ga  tau( 128) = (   0.3999999   0.4618803   0.9776544  )
       129           Ga  tau( 129) = (   0.2999999   0.6350854   0.3257027  )
       130           Ga  tau( 130) = (   0.2999999   0.6350854   0.6516786  )
       131           Ga  tau( 131) = (   0.2999999   0.6350854   0.9776544  )
       132           Ga  tau( 132) = (   0.1999999   0.8082905   0.3257027  )
       133           Ga  tau( 133) = (   0.1999999   0.8082905   0.6516786  )
       134           Ga  tau( 134) = (   0.1999999   0.8082905   0.9776544  )
       135           Ga  tau( 135) = (   0.7999999   0.1154701   0.3257027  )
       136           Ga  tau( 136) = (   0.7999999   0.1154701   0.6516786  )
       137           Ga  tau( 137) = (   0.7999999   0.1154701   0.9776544  )
       138           Ga  tau( 138) = (   0.6999999   0.2886752   0.3257027  )
       139           Ga  tau( 139) = (   0.6999999   0.2886752   0.6516786  )
       140           Ga  tau( 140) = (   0.6999999   0.2886752   0.9776544  )
       141           Ga  tau( 141) = (   0.5999999   0.4618803   0.3257027  )
       142           Ga  tau( 142) = (   0.5999999   0.4618803   0.6516786  )
       143           Ga  tau( 143) = (   0.5999999   0.4618803   0.9776544  )
       144           Ga  tau( 144) = (   0.4999999   0.6350854   0.3257027  )
       145           Ga  tau( 145) = (   0.4999999   0.6350854   0.6516786  )
       146           Ga  tau( 146) = (   0.4999999   0.6350854   0.9776544  )
       147           Ga  tau( 147) = (   0.3999999   0.8082905   0.3257027  )
       148           Ga  tau( 148) = (   0.3999999   0.8082905   0.6516786  )
       149           Ga  tau( 149) = (   0.3999999   0.8082905   0.9776544  )
       150           N   tau( 150) = (   0.1000001   0.0577350   0.2855019  )
       151           N   tau( 151) = (   0.1000001   0.0577350   0.6114777  )
       152           N   tau( 152) = (   0.1000001   0.0577350   0.9374535  )
       153           N   tau( 153) = (   0.0000001   0.2309401   0.2855019  )
       154           N   tau( 154) = (   0.0000001   0.2309401   0.6114777  )
       155           N   tau( 155) = (   0.0000001   0.2309401   0.9374535  )
       156           N   tau( 156) = (  -0.0999999   0.4041451   0.2855019  )
       157           N   tau( 157) = (  -0.0999999   0.4041451   0.6114777  )
       158           N   tau( 158) = (  -0.0999999   0.4041451   0.9374535  )
       159           N   tau( 159) = (  -0.1999999   0.5773502   0.2855019  )
       160           N   tau( 160) = (  -0.1999999   0.5773502   0.6114777  )
       161           N   tau( 161) = (  -0.1999999   0.5773502   0.9374535  )
       162           N   tau( 162) = (  -0.2999999   0.7505553   0.2855019  )
       163           N   tau( 163) = (  -0.2999999   0.7505553   0.6114777  )
       164           N   tau( 164) = (  -0.2999999   0.7505553   0.9374535  )
       165           N   tau( 165) = (   0.3000001   0.0577350   0.2855019  )
       166           N   tau( 166) = (   0.3000001   0.0577350   0.6114777  )
       167           N   tau( 167) = (   0.3000001   0.0577350   0.9374535  )
       168           N   tau( 168) = (   0.2000001   0.2309401   0.2855019  )
       169           N   tau( 169) = (   0.2000001   0.2309401   0.6114777  )
       170           N   tau( 170) = (   0.2000001   0.2309401   0.9374535  )
       171           N   tau( 171) = (   0.1000001   0.4041451   0.2855019  )
       172           N   tau( 172) = (   0.1000001   0.4041451   0.6114777  )
       173           N   tau( 173) = (   0.1000001   0.4041451   0.9374535  )
       174           N   tau( 174) = (   0.0000001   0.5773502   0.2855019  )
       175           N   tau( 175) = (   0.0000001   0.5773502   0.6114777  )
       176           N   tau( 176) = (   0.0000001   0.5773502   0.9374535  )
       177           N   tau( 177) = (  -0.0999999   0.7505553   0.2855019  )
       178           N   tau( 178) = (  -0.0999999   0.7505553   0.6114777  )
       179           N   tau( 179) = (  -0.0999999   0.7505553   0.9374535  )
       180           N   tau( 180) = (   0.5000001   0.0577350   0.2855019  )
       181           N   tau( 181) = (   0.5000001   0.0577350   0.6114777  )
       182           N   tau( 182) = (   0.5000001   0.0577350   0.9374535  )
       183           N   tau( 183) = (   0.4000001   0.2309401   0.2855019  )
       184           N   tau( 184) = (   0.4000001   0.2309401   0.6114777  )
       185           N   tau( 185) = (   0.4000001   0.2309401   0.9374535  )
       186           N   tau( 186) = (   0.3000001   0.4041451   0.2855019  )
       187           N   tau( 187) = (   0.3000001   0.4041451   0.6114777  )
       188           N   tau( 188) = (   0.3000001   0.4041451   0.9374535  )
       189           N   tau( 189) = (   0.2000001   0.5773502   0.2855019  )
       190           N   tau( 190) = (   0.2000001   0.5773502   0.6114777  )
       191           N   tau( 191) = (   0.2000001   0.5773502   0.9374535  )
       192           N   tau( 192) = (   0.1000001   0.7505553   0.2855019  )
       193           N   tau( 193) = (   0.1000001   0.7505553   0.6114777  )
       194           N   tau( 194) = (   0.1000001   0.7505553   0.9374535  )
       195           N   tau( 195) = (   0.7000001   0.0577350   0.2855019  )
       196           N   tau( 196) = (   0.7000001   0.0577350   0.6114777  )
       197           N   tau( 197) = (   0.7000001   0.0577350   0.9374535  )
       198           N   tau( 198) = (   0.6000001   0.2309401   0.2855019  )
       199           N   tau( 199) = (   0.6000001   0.2309401   0.6114777  )
       200           N   tau( 200) = (   0.6000001   0.2309401   0.9374535  )
       201           N   tau( 201) = (   0.5000001   0.4041451   0.2855019  )
       202           N   tau( 202) = (   0.5000001   0.4041451   0.6114777  )
       203           N   tau( 203) = (   0.5000001   0.4041451   0.9374535  )
       204           N   tau( 204) = (   0.4000001   0.5773502   0.2855019  )
       205           N   tau( 205) = (   0.4000001   0.5773502   0.6114777  )
       206           N   tau( 206) = (   0.4000001   0.5773502   0.9374535  )
       207           N   tau( 207) = (   0.3000001   0.7505553   0.2855019  )
       208           N   tau( 208) = (   0.3000001   0.7505553   0.6114777  )
       209           N   tau( 209) = (   0.3000001   0.7505553   0.9374535  )
       210           N   tau( 210) = (   0.9000001   0.0577350   0.2855019  )
       211           N   tau( 211) = (   0.9000001   0.0577350   0.6114777  )
       212           N   tau( 212) = (   0.9000001   0.0577350   0.9374535  )
       213           N   tau( 213) = (   0.8000001   0.2309401   0.2855019  )
       214           N   tau( 214) = (   0.8000001   0.2309401   0.6114777  )
       215           N   tau( 215) = (   0.8000001   0.2309401   0.9374535  )
       216           N   tau( 216) = (   0.7000001   0.4041451   0.2855019  )
       217           N   tau( 217) = (   0.7000001   0.4041451   0.6114777  )
       218           N   tau( 218) = (   0.7000001   0.4041451   0.9374535  )
       219           N   tau( 219) = (   0.6000001   0.5773502   0.2855019  )
       220           N   tau( 220) = (   0.6000001   0.5773502   0.6114777  )
       221           N   tau( 221) = (   0.6000001   0.5773502   0.9374535  )
       222           N   tau( 222) = (   0.5000001   0.7505553   0.2855019  )
       223           N   tau( 223) = (   0.5000001   0.7505553   0.6114777  )
       224           N   tau( 224) = (   0.5000001   0.7505553   0.9374535  )
       225           N   tau( 225) = (  -0.0000001   0.1154701   0.1225140  )
       226           N   tau( 226) = (  -0.0000001   0.1154701   0.4484898  )
       227           N   tau( 227) = (  -0.0000001   0.1154701   0.7744656  )
       228           N   tau( 228) = (  -0.1000001   0.2886752   0.1225140  )
       229           N   tau( 229) = (  -0.1000001   0.2886752   0.4484898  )
       230           N   tau( 230) = (  -0.1000001   0.2886752   0.7744656  )
       231           N   tau( 231) = (  -0.2000001   0.4618803   0.1225140  )
       232           N   tau( 232) = (  -0.2000001   0.4618803   0.4484898  )
       233           N   tau( 233) = (  -0.2000001   0.4618803   0.7744656  )
       234           N   tau( 234) = (  -0.3000001   0.6350854   0.1225140  )
       235           N   tau( 235) = (  -0.3000001   0.6350854   0.4484898  )
       236           N   tau( 236) = (  -0.3000001   0.6350854   0.7744656  )
       237           N   tau( 237) = (  -0.4000001   0.8082905   0.1225140  )
       238           N   tau( 238) = (  -0.4000001   0.8082905   0.4484898  )
       239           N   tau( 239) = (  -0.4000001   0.8082905   0.7744656  )
       240           N   tau( 240) = (   0.1999999   0.1154701   0.1225140  )
       241           N   tau( 241) = (   0.1999999   0.1154701   0.4484898  )
       242           N   tau( 242) = (   0.1999999   0.1154701   0.7744656  )
       243           N   tau( 243) = (   0.0999999   0.2886752   0.1225140  )
       244           N   tau( 244) = (   0.0999999   0.2886752   0.4484898  )
       245           N   tau( 245) = (   0.0999999   0.2886752   0.7744656  )
       246           N   tau( 246) = (  -0.0000001   0.4618803   0.1225140  )
       247           N   tau( 247) = (  -0.0000001   0.4618803   0.4484898  )
       248           N   tau( 248) = (  -0.0000001   0.4618803   0.7744656  )
       249           N   tau( 249) = (  -0.1000001   0.6350854   0.1225140  )
       250           N   tau( 250) = (  -0.1000001   0.6350854   0.4484898  )
       251           N   tau( 251) = (  -0.1000001   0.6350854   0.7744656  )
       252           N   tau( 252) = (  -0.2000001   0.8082905   0.1225140  )
       253           N   tau( 253) = (  -0.2000001   0.8082905   0.4484898  )
       254           N   tau( 254) = (  -0.2000001   0.8082905   0.7744656  )
       255           N   tau( 255) = (   0.3999999   0.1154701   0.1225140  )
       256           N   tau( 256) = (   0.3999999   0.1154701   0.4484898  )
       257           N   tau( 257) = (   0.3999999   0.1154701   0.7744656  )
       258           N   tau( 258) = (   0.2999999   0.2886752   0.1225140  )
       259           N   tau( 259) = (   0.2999999   0.2886752   0.4484898  )
       260           N   tau( 260) = (   0.2999999   0.2886752   0.7744656  )
       261           N   tau( 261) = (   0.1999999   0.4618803   0.1225140  )
       262           N   tau( 262) = (   0.1999999   0.4618803   0.4484898  )
       263           N   tau( 263) = (   0.1999999   0.4618803   0.7744656  )
       264           N   tau( 264) = (   0.0999999   0.6350854   0.1225140  )
       265           N   tau( 265) = (   0.0999999   0.6350854   0.4484898  )
       266           N   tau( 266) = (   0.0999999   0.6350854   0.7744656  )
       267           N   tau( 267) = (  -0.0000001   0.8082905   0.1225140  )
       268           N   tau( 268) = (  -0.0000001   0.8082905   0.4484898  )
       269           N   tau( 269) = (  -0.0000001   0.8082905   0.7744656  )
       270           N   tau( 270) = (   0.5999999   0.1154701   0.1225140  )
       271           N   tau( 271) = (   0.5999999   0.1154701   0.4484898  )
       272           N   tau( 272) = (   0.5999999   0.1154701   0.7744656  )
       273           N   tau( 273) = (   0.4999999   0.2886752   0.1225140  )
       274           N   tau( 274) = (   0.4999999   0.2886752   0.4484898  )
       275           N   tau( 275) = (   0.4999999   0.2886752   0.7744656  )
       276           N   tau( 276) = (   0.3999999   0.4618803   0.1225140  )
       277           N   tau( 277) = (   0.3999999   0.4618803   0.4484898  )
       278           N   tau( 278) = (   0.3999999   0.4618803   0.7744656  )
       279           N   tau( 279) = (   0.2999999   0.6350854   0.1225140  )
       280           N   tau( 280) = (   0.2999999   0.6350854   0.4484898  )
       281           N   tau( 281) = (   0.2999999   0.6350854   0.7744656  )
       282           N   tau( 282) = (   0.1999999   0.8082905   0.1225140  )
       283           N   tau( 283) = (   0.1999999   0.8082905   0.4484898  )
       284           N   tau( 284) = (   0.1999999   0.8082905   0.7744656  )
       285           N   tau( 285) = (   0.7999999   0.1154701   0.1225140  )
       286           N   tau( 286) = (   0.7999999   0.1154701   0.4484898  )
       287           N   tau( 287) = (   0.7999999   0.1154701   0.7744656  )
       288           N   tau( 288) = (   0.6999999   0.2886752   0.1225140  )
       289           N   tau( 289) = (   0.6999999   0.2886752   0.4484898  )
       290           N   tau( 290) = (   0.6999999   0.2886752   0.7744656  )
       291           N   tau( 291) = (   0.5999999   0.4618803   0.1225140  )
       292           N   tau( 292) = (   0.5999999   0.4618803   0.4484898  )
       293           N   tau( 293) = (   0.5999999   0.4618803   0.7744656  )
       294           N   tau( 294) = (   0.4999999   0.6350854   0.1225140  )
       295           N   tau( 295) = (   0.4999999   0.6350854   0.4484898  )
       296           N   tau( 296) = (   0.4999999   0.6350854   0.7744656  )
       297           N   tau( 297) = (   0.3999999   0.8082905   0.1225140  )
       298           N   tau( 298) = (   0.3999999   0.8082905   0.4484898  )
       299           N   tau( 299) = (   0.3999999   0.8082905   0.7744656  )
       300           N   tau( 300) = (   0.1000001   0.0577350   0.1627148  )

   Crystallographic axes

     site n.     atom                  positions (cryst. coord.)
         1           Ga  tau(   1) = (  0.1333334  0.0666666  0.4997208  )
         2           Ga  tau(   2) = (  0.1333334  0.0666666  0.8330541  )
         3           Ga  tau(   3) = (  0.1333334  0.2666666  0.1663874  )
         4           Ga  tau(   4) = (  0.1333334  0.2666666  0.4997208  )
         5           Ga  tau(   5) = (  0.1333334  0.2666666  0.8330541  )
         6           Ga  tau(   6) = (  0.1333334  0.4666666  0.1663874  )
         7           Ga  tau(   7) = (  0.1333334  0.4666666  0.4997208  )
         8           Ga  tau(   8) = (  0.1333334  0.4666666  0.8330541  )
         9           Ga  tau(   9) = (  0.1333334  0.6666666  0.1663874  )
        10           Ga  tau(  10) = (  0.1333334  0.6666666  0.4997208  )
        11           Ga  tau(  11) = (  0.1333334  0.6666666  0.8330541  )
        12           Ga  tau(  12) = (  0.1333334  0.8666666  0.1663874  )
        13           Ga  tau(  13) = (  0.1333334  0.8666666  0.4997208  )
        14           Ga  tau(  14) = (  0.1333334  0.8666666  0.8330541  )
        15           Ga  tau(  15) = (  0.3333334  0.0666666  0.1663874  )
        16           Ga  tau(  16) = (  0.3333334  0.0666666  0.4997208  )
        17           Ga  tau(  17) = (  0.3333334  0.0666666  0.8330541  )
        18           Ga  tau(  18) = (  0.3333334  0.2666666  0.1663874  )
        19           Ga  tau(  19) = (  0.3333334  0.2666666  0.4997208  )
        20           Ga  tau(  20) = (  0.3333334  0.2666666  0.8330541  )
        21           Ga  tau(  21) = (  0.3333334  0.4666666  0.1663874  )
        22           Ga  tau(  22) = (  0.3333334  0.4666666  0.4997208  )
        23           Ga  tau(  23) = (  0.3333334  0.4666666  0.8330541  )
        24           Ga  tau(  24) = (  0.3333334  0.6666666  0.1663874  )
        25           Ga  tau(  25) = (  0.3333334  0.6666666  0.4997208  )
        26           Ga  tau(  26) = (  0.3333334  0.6666666  0.8330541  )
        27           Ga  tau(  27) = (  0.3333334  0.8666666  0.1663874  )
        28           Ga  tau(  28) = (  0.3333334  0.8666666  0.4997208  )
        29           Ga  tau(  29) = (  0.3333334  0.8666666  0.8330541  )
        30           Ga  tau(  30) = (  0.5333334  0.0666666  0.1663874  )
        31           Ga  tau(  31) = (  0.5333334  0.0666666  0.4997208  )
        32           Ga  tau(  32) = (  0.5333334  0.0666666  0.8330541  )
        33           Ga  tau(  33) = (  0.5333334  0.2666666  0.1663874  )
        34           Ga  tau(  34) = (  0.5333334  0.2666666  0.4997208  )
        35           Ga  tau(  35) = (  0.5333334  0.2666666  0.8330541  )
        36           Ga  tau(  36) = (  0.5333334  0.4666666  0.1663874  )
        37           Ga  tau(  37) = (  0.5333334  0.4666666  0.4997208  )
        38           Ga  tau(  38) = (  0.5333334  0.4666666  0.8330541  )
        39           Ga  tau(  39) = (  0.5333334  0.6666666  0.1663874  )
        40           Ga  tau(  40) = (  0.5333334  0.6666666  0.4997208  )
        41           Ga  tau(  41) = (  0.5333334  0.6666666  0.8330541  )
        42           Ga  tau(  42) = (  0.5333334  0.8666666  0.1663874  )
        43           Ga  tau(  43) = (  0.5333334  0.8666666  0.4997208  )
        44           Ga  tau(  44) = (  0.5333334  0.8666666  0.8330541  )
        45           Ga  tau(  45) = (  0.7333334  0.0666666  0.1663874  )
        46           Ga  tau(  46) = (  0.7333334  0.0666666  0.4997208  )
        47           Ga  tau(  47) = (  0.7333334  0.0666666  0.8330541  )
        48           Ga  tau(  48) = (  0.7333334  0.2666666  0.1663874  )
        49           Ga  tau(  49) = (  0.7333334  0.2666666  0.4997208  )
        50           Ga  tau(  50) = (  0.7333334  0.2666666  0.8330541  )
        51           Ga  tau(  51) = (  0.7333334  0.4666666  0.1663874  )
        52           Ga  tau(  52) = (  0.7333334  0.4666666  0.4997208  )
        53           Ga  tau(  53) = (  0.7333334  0.4666666  0.8330541  )
        54           Ga  tau(  54) = (  0.7333334  0.6666666  0.1663874  )
        55           Ga  tau(  55) = (  0.7333334  0.6666666  0.4997208  )
        56           Ga  tau(  56) = (  0.7333334  0.6666666  0.8330541  )
        57           Ga  tau(  57) = (  0.7333334  0.8666666  0.1663874  )
        58           Ga  tau(  58) = (  0.7333334  0.8666666  0.4997208  )
        59           Ga  tau(  59) = (  0.7333334  0.8666666  0.8330541  )
        60           Ga  tau(  60) = (  0.9333334  0.0666666  0.1663874  )
        61           Ga  tau(  61) = (  0.9333334  0.0666666  0.4997208  )
        62           Ga  tau(  62) = (  0.9333334  0.0666666  0.8330541  )
        63           Ga  tau(  63) = (  0.9333334  0.2666666  0.1663874  )
        64           Ga  tau(  64) = (  0.9333334  0.2666666  0.4997208  )
        65           Ga  tau(  65) = (  0.9333334  0.2666666  0.8330541  )
        66           Ga  tau(  66) = (  0.9333334  0.4666666  0.1663874  )
        67           Ga  tau(  67) = (  0.9333334  0.4666666  0.4997208  )
        68           Ga  tau(  68) = (  0.9333334  0.4666666  0.8330541  )
        69           Ga  tau(  69) = (  0.9333334  0.6666666  0.1663874  )
        70           Ga  tau(  70) = (  0.9333334  0.6666666  0.4997208  )
        71           Ga  tau(  71) = (  0.9333334  0.6666666  0.8330541  )
        72           Ga  tau(  72) = (  0.9333334  0.8666666  0.1663874  )
        73           Ga  tau(  73) = (  0.9333334  0.8666666  0.4997208  )
        74           Ga  tau(  74) = (  0.9333334  0.8666666  0.8330541  )
        75           Ga  tau(  75) = (  0.0666666  0.1333334  0.3330541  )
        76           Ga  tau(  76) = (  0.0666666  0.1333334  0.6663874  )
        77           Ga  tau(  77) = (  0.0666666  0.1333334  0.9997208  )
        78           Ga  tau(  78) = (  0.0666666  0.3333334  0.3330541  )
        79           Ga  tau(  79) = (  0.0666666  0.3333334  0.6663874  )
        80           Ga  tau(  80) = (  0.0666666  0.3333334  0.9997208  )
        81           Ga  tau(  81) = (  0.0666666  0.5333334  0.3330541  )
        82           Ga  tau(  82) = (  0.0666666  0.5333334  0.6663874  )
        83           Ga  tau(  83) = (  0.0666666  0.5333334  0.9997208  )
        84           Ga  tau(  84) = (  0.0666666  0.7333334  0.3330541  )
        85           Ga  tau(  85) = (  0.0666666  0.7333334  0.6663874  )
        86           Ga  tau(  86) = (  0.0666666  0.7333334  0.9997208  )
        87           Ga  tau(  87) = (  0.0666666  0.9333334  0.3330541  )
        88           Ga  tau(  88) = (  0.0666666  0.9333334  0.6663874  )
        89           Ga  tau(  89) = (  0.0666666  0.9333334  0.9997208  )
        90           Ga  tau(  90) = (  0.2666666  0.1333334  0.3330541  )
        91           Ga  tau(  91) = (  0.2666666  0.1333334  0.6663874  )
        92           Ga  tau(  92) = (  0.2666666  0.1333334  0.9997208  )
        93           Ga  tau(  93) = (  0.2666666  0.3333334  0.3330541  )
        94           Ga  tau(  94) = (  0.2666666  0.3333334  0.6663874  )
        95           Ga  tau(  95) = (  0.2666666  0.3333334  0.9997208  )
        96           Ga  tau(  96) = (  0.2666666  0.5333334  0.3330541  )
        97           Ga  tau(  97) = (  0.2666666  0.5333334  0.6663874  )
        98           Ga  tau(  98) = (  0.2666666  0.5333334  0.9997208  )
        99           Ga  tau(  99) = (  0.2666666  0.7333334  0.3330541  )
       100           Ga  tau( 100) = (  0.2666666  0.7333334  0.6663874  )
       101           Ga  tau( 101) = (  0.2666666  0.7333334  0.9997208  )
       102           Ga  tau( 102) = (  0.2666666  0.9333334  0.3330541  )
       103           Ga  tau( 103) = (  0.2666666  0.9333334  0.6663874  )
       104           Ga  tau( 104) = (  0.2666666  0.9333334  0.9997208  )
       105           Ga  tau( 105) = (  0.4666666  0.1333334  0.3330541  )
       106           Ga  tau( 106) = (  0.4666666  0.1333334  0.6663874  )
       107           Ga  tau( 107) = (  0.4666666  0.1333334  0.9997208  )
       108           Ga  tau( 108) = (  0.4666666  0.3333334  0.3330541  )
       109           Ga  tau( 109) = (  0.4666666  0.3333334  0.6663874  )
       110           Ga  tau( 110) = (  0.4666666  0.3333334  0.9997208  )
       111           Ga  tau( 111) = (  0.4666666  0.5333334  0.3330541  )
       112           Ga  tau( 112) = (  0.4666666  0.5333334  0.6663874  )
       113           Ga  tau( 113) = (  0.4666666  0.5333334  0.9997208  )
       114           Ga  tau( 114) = (  0.4666666  0.7333334  0.3330541  )
       115           Ga  tau( 115) = (  0.4666666  0.7333334  0.6663874  )
       116           Ga  tau( 116) = (  0.4666666  0.7333334  0.9997208  )
       117           Ga  tau( 117) = (  0.4666666  0.9333334  0.3330541  )
       118           Ga  tau( 118) = (  0.4666666  0.9333334  0.6663874  )
       119           Ga  tau( 119) = (  0.4666666  0.9333334  0.9997208  )
       120           Ga  tau( 120) = (  0.6666666  0.1333334  0.3330541  )
       121           Ga  tau( 121) = (  0.6666666  0.1333334  0.6663874  )
       122           Ga  tau( 122) = (  0.6666666  0.1333334  0.9997208  )
       123           Ga  tau( 123) = (  0.6666666  0.3333334  0.3330541  )
       124           Ga  tau( 124) = (  0.6666666  0.3333334  0.6663874  )
       125           Ga  tau( 125) = (  0.6666666  0.3333334  0.9997208  )
       126           Ga  tau( 126) = (  0.6666666  0.5333334  0.3330541  )
       127           Ga  tau( 127) = (  0.6666666  0.5333334  0.6663874  )
       128           Ga  tau( 128) = (  0.6666666  0.5333334  0.9997208  )
       129           Ga  tau( 129) = (  0.6666666  0.7333334  0.3330541  )
       130           Ga  tau( 130) = (  0.6666666  0.7333334  0.6663874  )
       131           Ga  tau( 131) = (  0.6666666  0.7333334  0.9997208  )
       132           Ga  tau( 132) = (  0.6666666  0.9333334  0.3330541  )
       133           Ga  tau( 133) = (  0.6666666  0.9333334  0.6663874  )
       134           Ga  tau( 134) = (  0.6666666  0.9333334  0.9997208  )
       135           Ga  tau( 135) = (  0.8666666  0.1333334  0.3330541  )
       136           Ga  tau( 136) = (  0.8666666  0.1333334  0.6663874  )
       137           Ga  tau( 137) = (  0.8666666  0.1333334  0.9997208  )
       138           Ga  tau( 138) = (  0.8666666  0.3333334  0.3330541  )
       139           Ga  tau( 139) = (  0.8666666  0.3333334  0.6663874  )
       140           Ga  tau( 140) = (  0.8666666  0.3333334  0.9997208  )
       141           Ga  tau( 141) = (  0.8666666  0.5333334  0.3330541  )
       142           Ga  tau( 142) = (  0.8666666  0.5333334  0.6663874  )
       143           Ga  tau( 143) = (  0.8666666  0.5333334  0.9997208  )
       144           Ga  tau( 144) = (  0.8666666  0.7333334  0.3330541  )
       145           Ga  tau( 145) = (  0.8666666  0.7333334  0.6663874  )
       146           Ga  tau( 146) = (  0.8666666  0.7333334  0.9997208  )
       147           Ga  tau( 147) = (  0.8666666  0.9333334  0.3330541  )
       148           Ga  tau( 148) = (  0.8666666  0.9333334  0.6663874  )
       149           Ga  tau( 149) = (  0.8666666  0.9333334  0.9997208  )
       150           N   tau( 150) = (  0.1333334  0.0666666  0.2919459  )
       151           N   tau( 151) = (  0.1333334  0.0666666  0.6252792  )
       152           N   tau( 152) = (  0.1333334  0.0666666  0.9586126  )
       153           N   tau( 153) = (  0.1333334  0.2666666  0.2919459  )
       154           N   tau( 154) = (  0.1333334  0.2666666  0.6252792  )
       155           N   tau( 155) = (  0.1333334  0.2666666  0.9586126  )
       156           N   tau( 156) = (  0.1333334  0.4666666  0.2919459  )
       157           N   tau( 157) = (  0.1333334  0.4666666  0.6252792  )
       158           N   tau( 158) = (  0.1333334  0.4666666  0.9586126  )
       159           N   tau( 159) = (  0.1333334  0.6666666  0.2919459  )
       160           N   tau( 160) = (  0.1333334  0.6666666  0.6252792  )
       161           N   tau( 161) = (  0.1333334  0.6666666  0.9586126  )
       162           N   tau( 162) = (  0.1333334  0.8666666  0.2919459  )
       163           N   tau( 163) = (  0.1333334  0.8666666  0.6252792  )
       164           N   tau( 164) = (  0.1333334  0.8666666  0.9586126  )
       165           N   tau( 165) = (  0.3333334  0.0666666  0.2919459  )
       166           N   tau( 166) = (  0.3333334  0.0666666  0.6252792  )
       167           N   tau( 167) = (  0.3333334  0.0666666  0.9586126  )
       168           N   tau( 168) = (  0.3333334  0.2666666  0.2919459  )
       169           N   tau( 169) = (  0.3333334  0.2666666  0.6252792  )
       170           N   tau( 170) = (  0.3333334  0.2666666  0.9586126  )
       171           N   tau( 171) = (  0.3333334  0.4666666  0.2919459  )
       172           N   tau( 172) = (  0.3333334  0.4666666  0.6252792  )
       173           N   tau( 173) = (  0.3333334  0.4666666  0.9586126  )
       174           N   tau( 174) = (  0.3333334  0.6666666  0.2919459  )
       175           N   tau( 175) = (  0.3333334  0.6666666  0.6252792  )
       176           N   tau( 176) = (  0.3333334  0.6666666  0.9586126  )
       177           N   tau( 177) = (  0.3333334  0.8666666  0.2919459  )
       178           N   tau( 178) = (  0.3333334  0.8666666  0.6252792  )
       179           N   tau( 179) = (  0.3333334  0.8666666  0.9586126  )
       180           N   tau( 180) = (  0.5333334  0.0666666  0.2919459  )
       181           N   tau( 181) = (  0.5333334  0.0666666  0.6252792  )
       182           N   tau( 182) = (  0.5333334  0.0666666  0.9586126  )
       183           N   tau( 183) = (  0.5333334  0.2666666  0.2919459  )
       184           N   tau( 184) = (  0.5333334  0.2666666  0.6252792  )
       185           N   tau( 185) = (  0.5333334  0.2666666  0.9586126  )
       186           N   tau( 186) = (  0.5333334  0.4666666  0.2919459  )
       187           N   tau( 187) = (  0.5333334  0.4666666  0.6252792  )
       188           N   tau( 188) = (  0.5333334  0.4666666  0.9586126  )
       189           N   tau( 189) = (  0.5333334  0.6666666  0.2919459  )
       190           N   tau( 190) = (  0.5333334  0.6666666  0.6252792  )
       191           N   tau( 191) = (  0.5333334  0.6666666  0.9586126  )
       192           N   tau( 192) = (  0.5333334  0.8666666  0.2919459  )
       193           N   tau( 193) = (  0.5333334  0.8666666  0.6252792  )
       194           N   tau( 194) = (  0.5333334  0.8666666  0.9586126  )
       195           N   tau( 195) = (  0.7333334  0.0666666  0.2919459  )
       196           N   tau( 196) = (  0.7333334  0.0666666  0.6252792  )
       197           N   tau( 197) = (  0.7333334  0.0666666  0.9586126  )
       198           N   tau( 198) = (  0.7333334  0.2666666  0.2919459  )
       199           N   tau( 199) = (  0.7333334  0.2666666  0.6252792  )
       200           N   tau( 200) = (  0.7333334  0.2666666  0.9586126  )
       201           N   tau( 201) = (  0.7333334  0.4666666  0.2919459  )
       202           N   tau( 202) = (  0.7333334  0.4666666  0.6252792  )
       203           N   tau( 203) = (  0.7333334  0.4666666  0.9586126  )
       204           N   tau( 204) = (  0.7333334  0.6666666  0.2919459  )
       205           N   tau( 205) = (  0.7333334  0.6666666  0.6252792  )
       206           N   tau( 206) = (  0.7333334  0.6666666  0.9586126  )
       207           N   tau( 207) = (  0.7333334  0.8666666  0.2919459  )
       208           N   tau( 208) = (  0.7333334  0.8666666  0.6252792  )
       209           N   tau( 209) = (  0.7333334  0.8666666  0.9586126  )
       210           N   tau( 210) = (  0.9333334  0.0666666  0.2919459  )
       211           N   tau( 211) = (  0.9333334  0.0666666  0.6252792  )
       212           N   tau( 212) = (  0.9333334  0.0666666  0.9586126  )
       213           N   tau( 213) = (  0.9333334  0.2666666  0.2919459  )
       214           N   tau( 214) = (  0.9333334  0.2666666  0.6252792  )
       215           N   tau( 215) = (  0.9333334  0.2666666  0.9586126  )
       216           N   tau( 216) = (  0.9333334  0.4666666  0.2919459  )
       217           N   tau( 217) = (  0.9333334  0.4666666  0.6252792  )
       218           N   tau( 218) = (  0.9333334  0.4666666  0.9586126  )
       219           N   tau( 219) = (  0.9333334  0.6666666  0.2919459  )
       220           N   tau( 220) = (  0.9333334  0.6666666  0.6252792  )
       221           N   tau( 221) = (  0.9333334  0.6666666  0.9586126  )
       222           N   tau( 222) = (  0.9333334  0.8666666  0.2919459  )
       223           N   tau( 223) = (  0.9333334  0.8666666  0.6252792  )
       224           N   tau( 224) = (  0.9333334  0.8666666  0.9586126  )
       225           N   tau( 225) = (  0.0666666  0.1333334  0.1252792  )
       226           N   tau( 226) = (  0.0666666  0.1333334  0.4586126  )
       227           N   tau( 227) = (  0.0666666  0.1333334  0.7919459  )
       228           N   tau( 228) = (  0.0666666  0.3333334  0.1252792  )
       229           N   tau( 229) = (  0.0666666  0.3333334  0.4586126  )
       230           N   tau( 230) = (  0.0666666  0.3333334  0.7919459  )
       231           N   tau( 231) = (  0.0666666  0.5333334  0.1252792  )
       232           N   tau( 232) = (  0.0666666  0.5333334  0.4586126  )
       233           N   tau( 233) = (  0.0666666  0.5333334  0.7919459  )
       234           N   tau( 234) = (  0.0666666  0.7333334  0.1252792  )
       235           N   tau( 235) = (  0.0666666  0.7333334  0.4586126  )
       236           N   tau( 236) = (  0.0666666  0.7333334  0.7919459  )
       237           N   tau( 237) = (  0.0666666  0.9333334  0.1252792  )
       238           N   tau( 238) = (  0.0666666  0.9333334  0.4586126  )
       239           N   tau( 239) = (  0.0666666  0.9333334  0.7919459  )
       240           N   tau( 240) = (  0.2666666  0.1333334  0.1252792  )
       241           N   tau( 241) = (  0.2666666  0.1333334  0.4586126  )
       242           N   tau( 242) = (  0.2666666  0.1333334  0.7919459  )
       243           N   tau( 243) = (  0.2666666  0.3333334  0.1252792  )
       244           N   tau( 244) = (  0.2666666  0.3333334  0.4586126  )
       245           N   tau( 245) = (  0.2666666  0.3333334  0.7919459  )
       246           N   tau( 246) = (  0.2666666  0.5333334  0.1252792  )
       247           N   tau( 247) = (  0.2666666  0.5333334  0.4586126  )
       248           N   tau( 248) = (  0.2666666  0.5333334  0.7919459  )
       249           N   tau( 249) = (  0.2666666  0.7333334  0.1252792  )
       250           N   tau( 250) = (  0.2666666  0.7333334  0.4586126  )
       251           N   tau( 251) = (  0.2666666  0.7333334  0.7919459  )
       252           N   tau( 252) = (  0.2666666  0.9333334  0.1252792  )
       253           N   tau( 253) = (  0.2666666  0.9333334  0.4586126  )
       254           N   tau( 254) = (  0.2666666  0.9333334  0.7919459  )
       255           N   tau( 255) = (  0.4666666  0.1333334  0.1252792  )
       256           N   tau( 256) = (  0.4666666  0.1333334  0.4586126  )
       257           N   tau( 257) = (  0.4666666  0.1333334  0.7919459  )
       258           N   tau( 258) = (  0.4666666  0.3333334  0.1252792  )
       259           N   tau( 259) = (  0.4666666  0.3333334  0.4586126  )
       260           N   tau( 260) = (  0.4666666  0.3333334  0.7919459  )
       261           N   tau( 261) = (  0.4666666  0.5333334  0.1252792  )
       262           N   tau( 262) = (  0.4666666  0.5333334  0.4586126  )
       263           N   tau( 263) = (  0.4666666  0.5333334  0.7919459  )
       264           N   tau( 264) = (  0.4666666  0.7333334  0.1252792  )
       265           N   tau( 265) = (  0.4666666  0.7333334  0.4586126  )
       266           N   tau( 266) = (  0.4666666  0.7333334  0.7919459  )
       267           N   tau( 267) = (  0.4666666  0.9333334  0.1252792  )
       268           N   tau( 268) = (  0.4666666  0.9333334  0.4586126  )
       269           N   tau( 269) = (  0.4666666  0.9333334  0.7919459  )
       270           N   tau( 270) = (  0.6666666  0.1333334  0.1252792  )
       271           N   tau( 271) = (  0.6666666  0.1333334  0.4586126  )
       272           N   tau( 272) = (  0.6666666  0.1333334  0.7919459  )
       273           N   tau( 273) = (  0.6666666  0.3333334  0.1252792  )
       274           N   tau( 274) = (  0.6666666  0.3333334  0.4586126  )
       275           N   tau( 275) = (  0.6666666  0.3333334  0.7919459  )
       276           N   tau( 276) = (  0.6666666  0.5333334  0.1252792  )
       277           N   tau( 277) = (  0.6666666  0.5333334  0.4586126  )
       278           N   tau( 278) = (  0.6666666  0.5333334  0.7919459  )
       279           N   tau( 279) = (  0.6666666  0.7333334  0.1252792  )
       280           N   tau( 280) = (  0.6666666  0.7333334  0.4586126  )
       281           N   tau( 281) = (  0.6666666  0.7333334  0.7919459  )
       282           N   tau( 282) = (  0.6666666  0.9333334  0.1252792  )
       283           N   tau( 283) = (  0.6666666  0.9333334  0.4586126  )
       284           N   tau( 284) = (  0.6666666  0.9333334  0.7919459  )
       285           N   tau( 285) = (  0.8666666  0.1333334  0.1252792  )
       286           N   tau( 286) = (  0.8666666  0.1333334  0.4586126  )
       287           N   tau( 287) = (  0.8666666  0.1333334  0.7919459  )
       288           N   tau( 288) = (  0.8666666  0.3333334  0.1252792  )
       289           N   tau( 289) = (  0.8666666  0.3333334  0.4586126  )
       290           N   tau( 290) = (  0.8666666  0.3333334  0.7919459  )
       291           N   tau( 291) = (  0.8666666  0.5333334  0.1252792  )
       292           N   tau( 292) = (  0.8666666  0.5333334  0.4586126  )
       293           N   tau( 293) = (  0.8666666  0.5333334  0.7919459  )
       294           N   tau( 294) = (  0.8666666  0.7333334  0.1252792  )
       295           N   tau( 295) = (  0.8666666  0.7333334  0.4586126  )
       296           N   tau( 296) = (  0.8666666  0.7333334  0.7919459  )
       297           N   tau( 297) = (  0.8666666  0.9333334  0.1252792  )
       298           N   tau( 298) = (  0.8666666  0.9333334  0.4586126  )
       299           N   tau( 299) = (  0.8666666  0.9333334  0.7919459  )
       300           N   tau( 300) = (  0.1333334  0.0666666  0.1663874  )

     number of k points=     6  Gaussian smearing, width (Ry)=  0.0100
                       cart. coord. in units 2pi/alat
        k(    1) = (   0.0000000   0.0000000   0.0000000), wk =   0.2500000
        k(    2) = (   0.0000000   0.0000000  -0.5112854), wk =   0.2500000
        k(    3) = (   0.0000000  -0.5773503   0.0000000), wk =   0.5000000
        k(    4) = (   0.0000000  -0.5773503  -0.5112854), wk =   0.5000000
        k(    5) = (  -0.5000000  -0.2886751   0.0000000), wk =   0.2500000
        k(    6) = (  -0.5000000  -0.2886751  -0.5112854), wk =   0.2500000

                       cryst. coord.
        k(    1) = (   0.0000000   0.0000000   0.0000000), wk =   0.2500000
        k(    2) = (   0.0000000   0.0000000  -0.5000000), wk =   0.2500000
        k(    3) = (   0.0000000  -0.5000000   0.0000000), wk =   0.5000000
        k(    4) = (   0.0000000  -0.5000000  -0.5000000), wk =   0.5000000
        k(    5) = (  -0.5000000  -0.0000000   0.0000000), wk =   0.2500000
        k(    6) = (  -0.5000000  -0.0000000  -0.5000000), wk =   0.2500000

     Dense  grid:  2698283 G-vectors     FFT dimensions: ( 192, 192, 180)

     Smooth grid:  1930731 G-vectors     FFT dimensions: ( 180, 180, 160)

     Dynamical RAM for                 wfc:      92.85 MB

     Dynamical RAM for     wfc (w. buffer):     278.54 MB

     Dynamical RAM for           str. fact:       1.29 MB

     Dynamical RAM for           local pot:       0.00 MB

     Dynamical RAM for          nlocal pot:     223.77 MB

     Dynamical RAM for                qrad:       3.00 MB

     Dynamical RAM for          rho,v,vnew:       4.46 MB

     Dynamical RAM for               rhoin:       1.49 MB

     Dynamical RAM for            rho*nmix:      10.29 MB

     Dynamical RAM for           G-vectors:       2.64 MB

     Dynamical RAM for          h,s,v(r/c):    1907.96 MB

     Dynamical RAM for          <psi|beta>:      95.80 MB

     Dynamical RAM for                 psi:     371.39 MB

     Dynamical RAM for                hpsi:     371.39 MB

     Dynamical RAM for                spsi:     371.39 MB

     Dynamical RAM for      wfcinit/wfcrot:     245.33 MB

     Dynamical RAM for           addusdens:      54.68 MB

     Dynamical RAM for          addusforce:     103.36 MB

     Dynamical RAM for         addusstress:      32.57 MB

     Estimated static dynamical RAM per process >     521.34 MB

     Estimated max dynamical RAM per process >       3.56 GB

     Estimated total dynamical RAM >     910.46 GB

     Atomic positions and unit cell read from directory:
     ./GaN.save/
     Atomic positions from file used, from input discarded
 

     Check: negative core charge=   -0.000003

     The initial density is read from file :
     ./GaN.save/charge-density


     starting charge    2691.0000, renormalised to    2690.0000


     %%%%%%%%%%%%%%%%%%%%%%%%%%%%%%%%%%%%%%%%%%%%%%%%%%%%%%%%%%%%%%%%%%%%%%%%
     %                                                                      %
     % You are using vdW-DF, which was implemented by the Thonhauser group. %
     % Please cite the following two papers that made this development      %
     % possible and the two reviews that describe the various versions:     %
     %                                                                      %
     %   T. Thonhauser et al., PRL 115, 136402 (2015).                      %
     %   T. Thonhauser et al., PRB 76, 125112 (2007).                       %
     %   K. Berland et al., Rep. Prog. Phys. 78, 066501 (2015).             %
     %   D.C. Langreth et al., J. Phys.: Condens. Matter 21, 084203 (2009). %
     %                                                                      %
     % If you are calculating stress with vdW-DF, please also cite:         %
     %                                                                      %
     %   R. Sabatini et al., J. Phys.: Condens. Matter 24, 424209 (2012).   %
     %                                                                      %
     %%%%%%%%%%%%%%%%%%%%%%%%%%%%%%%%%%%%%%%%%%%%%%%%%%%%%%%%%%%%%%%%%%%%%%%%

     %%%%%%%%%%%%%%%%%%%%%%%%%%%%%%%%%%%%%%%%%%%%%%%%%%%%%%%%%%%%%%%%%%%%%%%%
     %                                                                      %
     %  vdW-DF NEWS:                                                        %
     %                                                                      %
     %  * vdW-DF3 is now available. DOI: 10.1021/acs.jctc.0c00471           %
     %    use with input_dft = 'vdW-DF3-opt1' or 'vdW-DF3-opt2'             %
     %                                                                      %
     %  * Unscreened and range-separated vdW-DF hybrid functionals          %
     %    DOI: 10.1063/1.4986522 and 10.1088/1361-648X/ac2ad2               %
     %    use with input_dft = 'vdW-DF-cx0' (etc) and 'vdW-DF-ahcx'         %
     %                                                                      %
     %%%%%%%%%%%%%%%%%%%%%%%%%%%%%%%%%%%%%%%%%%%%%%%%%%%%%%%%%%%%%%%%%%%%%%%%


     Carrying out vdW-DF run using the following parameters:
     Nqs    =  20  Npoints =  1024  r_max =  100.000
     q_mesh =  0.00001000  0.04494208  0.09755937  0.15916263
               0.23128650  0.31572767  0.41458969  0.53033537
               0.66584808  0.82450364  1.01025438  1.22772762
               1.48234092  1.78043706  2.12944203  2.53805004
               3.01644009  3.57652955  4.23227104  5.00000000


     -----------------------------------------------
     Non-local corr. energy    =      81.30578570 Ry
     -----------------------------------------------

     Wavefunctions not found or not readable, recomputing them from scratch
     Starting wfcs are 1945 randomized atomic wfcs
     Checking if some PAW data can be deallocated... 
       PAW data deallocated on  151 nodes for type:  1
       PAW data deallocated on  105 nodes for type:  2

     total cpu time spent up to now is      119.6 secs

     Self-consistent Calculation

     iteration #  1     ecut=    70.00 Ry     beta= 0.70
     Davidson diagonalization with overlap

---- Real-time Memory Report at c_bands before calling an iterative solver
          1245 MiB given to the printing process from OS
             0 MiB allocation reported by mallinfo(arena+hblkhd)
       1913972 MiB available memory on the node where the printing process lives
------------------
     ethr =  1.00E-05,  avg # of iterations = 31.0


     -----------------------------------------------
     Non-local corr. energy    =      81.36790596 Ry
     -----------------------------------------------


     total cpu time spent up to now is     4039.8 secs

     total energy              =  -46589.83777573 Ry
     estimated scf accuracy    <       0.18900401 Ry

     iteration #  2     ecut=    70.00 Ry     beta= 0.70
     Davidson diagonalization with overlap

---- Real-time Memory Report at c_bands before calling an iterative solver
          3583 MiB given to the printing process from OS
             0 MiB allocation reported by mallinfo(arena+hblkhd)
       1914465 MiB available memory on the node where the printing process lives
------------------
     ethr =  7.03E-06,  avg # of iterations = 10.8


     -----------------------------------------------
     Non-local corr. energy    =      81.35816885 Ry
     -----------------------------------------------


     total cpu time spent up to now is     6365.8 secs

     total energy              =  -46589.70396082 Ry
     estimated scf accuracy    <       3.51316388 Ry

     iteration #  3     ecut=    70.00 Ry     beta= 0.70
     Davidson diagonalization with overlap

---- Real-time Memory Report at c_bands before calling an iterative solver
          3583 MiB given to the printing process from OS
             0 MiB allocation reported by mallinfo(arena+hblkhd)
       1894029 MiB available memory on the node where the printing process lives
------------------
     ethr =  7.03E-06,  avg # of iterations = 13.0


     -----------------------------------------------
     Non-local corr. energy    =      81.34960530 Ry
     -----------------------------------------------


     total cpu time spent up to now is     8649.0 secs

     total energy              =  -46589.95963126 Ry
     estimated scf accuracy    <       0.05979021 Ry

     iteration #  4     ecut=    70.00 Ry     beta= 0.70
     Davidson diagonalization with overlap

---- Real-time Memory Report at c_bands before calling an iterative solver
          3583 MiB given to the printing process from OS
             0 MiB allocation reported by mallinfo(arena+hblkhd)
       1893886 MiB available memory on the node where the printing process lives
------------------
     ethr =  2.22E-06,  avg # of iterations = 15.7


     -----------------------------------------------
     Non-local corr. energy    =      81.34189488 Ry
     -----------------------------------------------


     total cpu time spent up to now is    10735.3 secs

     total energy              =  -46589.96249002 Ry
     estimated scf accuracy    <       0.05324131 Ry

     iteration #  5     ecut=    70.00 Ry     beta= 0.70
     Davidson diagonalization with overlap

---- Real-time Memory Report at c_bands before calling an iterative solver
          3583 MiB given to the printing process from OS
             0 MiB allocation reported by mallinfo(arena+hblkhd)
       1893728 MiB available memory on the node where the printing process lives
------------------
     ethr =  1.98E-06,  avg # of iterations = 14.8


     -----------------------------------------------
     Non-local corr. energy    =      81.33178209 Ry
     -----------------------------------------------


     total cpu time spent up to now is    12271.1 secs

     total energy              =  -46589.96763347 Ry
     estimated scf accuracy    <       0.01148062 Ry

     iteration #  6     ecut=    70.00 Ry     beta= 0.70
     Davidson diagonalization with overlap

---- Real-time Memory Report at c_bands before calling an iterative solver
          3583 MiB given to the printing process from OS
             0 MiB allocation reported by mallinfo(arena+hblkhd)
       1893537 MiB available memory on the node where the printing process lives
------------------
     ethr =  4.27E-07,  avg # of iterations = 14.5


     -----------------------------------------------
     Non-local corr. energy    =      81.32842506 Ry
     -----------------------------------------------


     total cpu time spent up to now is    13999.9 secs

     total energy              =  -46589.96849718 Ry
     estimated scf accuracy    <       0.00105943 Ry

     iteration #  7     ecut=    70.00 Ry     beta= 0.70
     Davidson diagonalization with overlap

---- Real-time Memory Report at c_bands before calling an iterative solver
          3583 MiB given to the printing process from OS
             0 MiB allocation reported by mallinfo(arena+hblkhd)
       1893390 MiB available memory on the node where the printing process lives
------------------
     ethr =  3.94E-08,  avg # of iterations = 15.5


     -----------------------------------------------
     Non-local corr. energy    =      81.32976414 Ry
     -----------------------------------------------


     total cpu time spent up to now is    16797.6 secs

     total energy              =  -46589.96875569 Ry
     estimated scf accuracy    <       0.00037950 Ry

     iteration #  8     ecut=    70.00 Ry     beta= 0.70
     Davidson diagonalization with overlap

---- Real-time Memory Report at c_bands before calling an iterative solver
          3583 MiB given to the printing process from OS
             0 MiB allocation reported by mallinfo(arena+hblkhd)
       1893229 MiB available memory on the node where the printing process lives
------------------
     ethr =  1.41E-08,  avg # of iterations = 14.5


     -----------------------------------------------
     Non-local corr. energy    =      81.33218556 Ry
     -----------------------------------------------


     total cpu time spent up to now is    19834.5 secs

     total energy              =  -46589.96886384 Ry
     estimated scf accuracy    <       0.00012641 Ry

     iteration #  9     ecut=    70.00 Ry     beta= 0.70
     Davidson diagonalization with overlap

---- Real-time Memory Report at c_bands before calling an iterative solver
          3583 MiB given to the printing process from OS
             0 MiB allocation reported by mallinfo(arena+hblkhd)
       1893074 MiB available memory on the node where the printing process lives
------------------
     ethr =  4.70E-09,  avg # of iterations = 15.3


     -----------------------------------------------
     Non-local corr. energy    =      81.33515378 Ry
     -----------------------------------------------


     total cpu time spent up to now is    21911.6 secs

     total energy              =  -46589.96887177 Ry
     estimated scf accuracy    <       0.00003433 Ry

     iteration # 10     ecut=    70.00 Ry     beta= 0.70
     Davidson diagonalization with overlap

---- Real-time Memory Report at c_bands before calling an iterative solver
          3583 MiB given to the printing process from OS
             0 MiB allocation reported by mallinfo(arena+hblkhd)
       1892904 MiB available memory on the node where the printing process lives
------------------
     ethr =  1.28E-09,  avg # of iterations = 14.5


     -----------------------------------------------
     Non-local corr. energy    =      81.33648737 Ry
     -----------------------------------------------


     total cpu time spent up to now is    24108.9 secs

     total energy              =  -46589.96887257 Ry
     estimated scf accuracy    <       0.00004599 Ry

     iteration # 11     ecut=    70.00 Ry     beta= 0.70
     Davidson diagonalization with overlap

---- Real-time Memory Report at c_bands before calling an iterative solver
          3583 MiB given to the printing process from OS
             0 MiB allocation reported by mallinfo(arena+hblkhd)
       1892898 MiB available memory on the node where the printing process lives
------------------
     ethr =  1.28E-09,  avg # of iterations = 13.7


     -----------------------------------------------
     Non-local corr. energy    =      81.33599754 Ry
     -----------------------------------------------


     total cpu time spent up to now is    25747.6 secs

     total energy              =  -46589.96887680 Ry
     estimated scf accuracy    <       0.00000396 Ry

     iteration # 12     ecut=    70.00 Ry     beta= 0.70
     Davidson diagonalization with overlap

---- Real-time Memory Report at c_bands before calling an iterative solver
          3583 MiB given to the printing process from OS
             0 MiB allocation reported by mallinfo(arena+hblkhd)
       1892833 MiB available memory on the node where the printing process lives
------------------
     ethr =  1.47E-10,  avg # of iterations = 13.0


     -----------------------------------------------
     Non-local corr. energy    =      81.33486468 Ry
     -----------------------------------------------


     total cpu time spent up to now is    27945.6 secs

     total energy              =  -46589.96887778 Ry
     estimated scf accuracy    <       0.00000493 Ry

     iteration # 13     ecut=    70.00 Ry     beta= 0.70
     Davidson diagonalization with overlap

---- Real-time Memory Report at c_bands before calling an iterative solver
          3583 MiB given to the printing process from OS
             0 MiB allocation reported by mallinfo(arena+hblkhd)
       1892817 MiB available memory on the node where the printing process lives
------------------
     ethr =  1.47E-10,  avg # of iterations = 12.8


     -----------------------------------------------
     Non-local corr. energy    =      81.33443547 Ry
     -----------------------------------------------


     total cpu time spent up to now is    29084.6 secs

     total energy              =  -46589.96887772 Ry
     estimated scf accuracy    <       0.00000138 Ry

     iteration # 14     ecut=    70.00 Ry     beta= 0.70
     Davidson diagonalization with overlap

---- Real-time Memory Report at c_bands before calling an iterative solver
          3583 MiB given to the printing process from OS
             0 MiB allocation reported by mallinfo(arena+hblkhd)
       1892748 MiB available memory on the node where the printing process lives
------------------
     ethr =  5.12E-11,  avg # of iterations =  9.0


     -----------------------------------------------
     Non-local corr. energy    =      81.33442002 Ry
     -----------------------------------------------


     total cpu time spent up to now is    30872.8 secs

     total energy              =  -46589.96887805 Ry
     estimated scf accuracy    <       0.00000014 Ry

     iteration # 15     ecut=    70.00 Ry     beta= 0.70
     Davidson diagonalization with overlap

---- Real-time Memory Report at c_bands before calling an iterative solver
          3583 MiB given to the printing process from OS
             0 MiB allocation reported by mallinfo(arena+hblkhd)
       1892731 MiB available memory on the node where the printing process lives
------------------
     ethr =  5.03E-12,  avg # of iterations = 15.8


     -----------------------------------------------
     Non-local corr. energy    =      81.33446949 Ry
     -----------------------------------------------


     total cpu time spent up to now is    33338.5 secs

     total energy              =  -46589.96887806 Ry
     estimated scf accuracy    <       0.00000014 Ry

     iteration # 16     ecut=    70.00 Ry     beta= 0.70
     Davidson diagonalization with overlap

---- Real-time Memory Report at c_bands before calling an iterative solver
          3583 MiB given to the printing process from OS
             0 MiB allocation reported by mallinfo(arena+hblkhd)
       1892734 MiB available memory on the node where the printing process lives
------------------
     ethr =  5.03E-12,  avg # of iterations = 15.2


     -----------------------------------------------
     Non-local corr. energy    =      81.33453249 Ry
     -----------------------------------------------


     total cpu time spent up to now is    35372.7 secs

     End of self-consistent calculation

          k = 0.0000 0.0000 0.0000 (241213 PWs)   bands (ev):

   -11.8641  -7.0898  -7.0894  -7.0407  -6.8944  -6.8175  -6.8169  -6.7831
    -6.7334  -6.6928  -6.6922  -6.6624  -6.6467  -6.6458  -6.6448  -6.6433
    -6.6430  -6.6007  -6.5999  -6.5988  -6.5850  -6.5742  -6.5672  -6.5667
    -6.5490  -6.5408  -6.5408  -6.5390  -6.5166  -6.5162  -6.5062  -6.4819
    -6.4814  -6.4808  -6.4748  -6.4704  -6.4561  -6.4558  -6.4551  -6.4514
    -6.4510  -6.4503  -6.4494  -6.4384  -6.4368  -6.4356  -6.4160  -6.4152
    -6.4146  -6.4075  -6.4065  -6.4050  -6.3937  -6.3936  -6.3930  -6.3913
    -6.3910  -6.3905  -6.3875  -6.3858  -6.3812  -6.3806  -6.3776  -6.3734
    -6.3730  -6.3713  -6.3705  -6.3664  -6.3654  -6.3651  -6.3645  -6.3603
    -6.3576  -6.3571  -6.3512  -6.3507  -6.3505  -6.3503  -6.3494  -6.3492
    -6.3479  -6.3465  -6.3458  -6.3413  -6.3385  -6.3381  -6.3354  -6.3326
    -6.3307  -6.3304  -6.3282  -6.3278  -6.3271  -6.3201  -6.3195  -6.3176
    -6.3165  -6.3163  -6.3153  -6.3149  -6.3141  -6.3125  -6.3104  -6.3101
    -6.3091  -6.3086  -6.3044  -6.3035  -6.3034  -6.3016  -6.2995  -6.2986
    -6.2957  -6.2949  -6.2941  -6.2923  -6.2923  -6.2920  -6.2879  -6.2852
    -6.2851  -6.2847  -6.2847  -6.2836  -6.2813  -6.2804  -6.2801  -6.2734
    -6.2729  -6.2703  -6.2697  -6.2636  -6.2632  -6.2626  -6.2624  -6.2602
    -6.2601  -6.2565  -6.2550  -6.2530  -6.2525  -6.2521  -6.2515  -6.2505
    -6.2474  -6.2456  -6.2416  -6.2408  -6.2361  -6.2353  -5.8314  -5.7389
    -5.7389  -5.7306  -5.7240  -5.7151  -5.7150  -5.7150  -5.7148  -5.6964
    -5.6807  -5.6807  -5.6628  -5.6612  -5.6611  -5.6570  -5.6569  -5.6477
    -5.6463  -5.6460  -5.6336  -5.6283  -5.6170  -5.6168  -5.6121  -5.5962
    -5.5962  -5.5946  -5.5821  -5.5820  -5.5594  -5.5594  -5.5531  -5.5329
    -5.5327  -5.5259  -5.5206  -5.5205  -5.4987  -5.4619  -5.4617  -5.4592
    -5.3769  -5.3467  -5.3463  -5.3120  -5.3120  -5.3016  -5.3015  -5.2966
    -5.2906  -5.2905  -5.2874  -5.2872  -5.2848  -5.2847  -5.2826  -5.2824
    -5.2803  -5.2802  -5.2773  -5.2764  -5.2763  -5.2738  -5.2731  -5.2696
    -5.2696  -5.2678  -5.2678  -5.2657  -5.2651  -5.2642  -5.2641  -5.2612
    -5.2611  -5.2610  -5.2580  -5.2579  -5.2573  -5.2573  -5.2530  -5.2530
    -5.2518  -5.2517  -5.2506  -5.2496  -5.2495  -5.2444  -5.2436  -5.2436
    -5.2434  -5.2417  -5.2416  -5.2408  -5.2403  -5.2403  -5.2386  -5.2384
    -5.2376  -5.2360  -5.2346  -5.2343  -5.2341  -5.2341  -5.2318  -5.2318
    -5.2311  -5.2310  -5.2286  -5.2268  -5.2267  -5.2264  -5.2264  -5.2256
    -5.2226  -5.2201  -5.2197  -5.2197  -5.2196  -5.2196  -5.2184  -5.2184
    -5.2184  -5.2183  -5.2160  -5.2158  -5.2141  -5.2141  -5.2108  -5.2108
    -5.2100  -5.2096  -5.2087  -5.2085  -5.2085  -5.2085  -5.2040  -5.2039
    -5.2033  -5.2012  -5.2011  -5.2001  -5.1992  -5.1991  -5.1977  -5.1974
    -5.1957  -5.1956  -5.1945  -5.1941  -5.1941  -5.1926  -5.1925  -5.1920
    -5.1919  -5.1908  -5.1908  -5.1899  -5.1894  -5.1882  -5.1876  -5.1875
    -5.1853  -5.1853  -5.1832  -5.1820  -5.1800  -5.1799  -5.1789  -5.1789
    -5.1782  -5.1759  -5.1759  -5.1758  -5.1754  -5.1749  -5.1749  -5.1729
    -5.1725  -5.1725  -5.1709  -5.1708  -5.1707  -5.1687  -5.1686  -5.1677
    -5.1674  -5.1669  -5.1669  -5.1642  -5.1642  -5.1635  -5.1635  -5.1618
    -5.1614  -5.1606  -5.1599  -5.1598  -5.1579  -5.1579  -5.1567  -5.1567
    -5.1565  -5.1550  -5.1550  -5.1538  -5.1533  -5.1532  -5.1531  -5.1520
    -5.1520  -5.1512  -5.1500  -5.1500  -5.1498  -5.1494  -5.1488  -5.1487
    -5.1483  -5.1477  -5.1477  -5.1460  -5.1454  -5.1454  -5.1439  -5.1437
    -5.1437  -5.1425  -5.1411  -5.1410  -5.1410  -5.1408  -5.1407  -5.1401
    -5.1392  -5.1391  -5.1380  -5.1380  -5.1375  -5.1372  -5.1372  -5.1345
    -5.1345  -5.1340  -5.1340  -5.1337  -5.1337  -5.1322  -5.1321  -5.1320
    -5.1315  -5.1307  -5.1307  -5.1294  -5.1293  -5.1293  -5.1273  -5.1273
    -5.1262  -5.1262  -5.1259  -5.1248  -5.1247  -5.1240  -5.1232  -5.1232
    -5.1229  -5.1228  -5.1227  -5.1222  -5.1220  -5.1220  -5.1212  -5.1211
    -5.1210  -5.1182  -5.1180  -5.1180  -5.1172  -5.1154  -5.1142  -5.1142
    -5.1132  -5.1131  -5.1129  -5.1129  -5.1121  -5.1121  -5.1120  -5.1120
    -5.1111  -5.1108  -5.1108  -5.1098  -5.1084  -5.1081  -5.1070  -5.1070
    -5.1051  -5.1048  -5.1048  -5.1045  -5.1045  -5.1045  -5.1035  -5.1034
    -5.1022  -5.1017  -5.1017  -5.1004  -5.0997  -5.0997  -5.0997  -5.0988
    -5.0988  -5.0975  -5.0974  -5.0973  -5.0958  -5.0955  -5.0952  -5.0951
    -5.0947  -5.0947  -5.0924  -5.0923  -5.0919  -5.0915  -5.0903  -5.0903
    -5.0896  -5.0889  -5.0888  -5.0882  -5.0863  -5.0863  -5.0861  -5.0860
    -5.0845  -5.0845  -5.0828  -5.0822  -5.0821  -5.0815  -5.0809  -5.0808
    -5.0783  -5.0782  -5.0774  -5.0774  -5.0773  -5.0769  -5.0769  -5.0769
    -5.0752  -5.0746  -5.0741  -5.0730  -5.0728  -5.0728  -5.0718  -5.0718
    -5.0703  -5.0703  -5.0699  -5.0698  -5.0698  -5.0681  -5.0676  -5.0675
    -5.0655  -5.0655  -5.0638  -5.0622  -5.0622  -5.0614  -5.0610  -5.0610
    -5.0597  -5.0583  -5.0577  -5.0577  -5.0572  -5.0551  -5.0546  -5.0546
    -5.0529  -5.0529  -5.0520  -5.0519  -5.0507  -5.0505  -5.0478  -5.0478
    -5.0475  -5.0470  -5.0470  -5.0467  -5.0454  -5.0445  -5.0445  -5.0442
    -5.0434  -5.0429  -5.0428  -5.0428  -5.0420  -5.0419  -5.0398  -5.0397
    -5.0396  -5.0388  -5.0387  -5.0380  -5.0377  -5.0359  -5.0359  -5.0348
    -5.0345  -5.0345  -5.0336  -5.0336  -5.0324  -5.0324  -5.0314  -5.0299
    -5.0299  -5.0295  -5.0289  -5.0289  -5.0286  -5.0286  -5.0264  -5.0264
    -5.0260  -5.0256  -5.0239  -5.0239  -5.0236  -5.0236  -5.0234  -5.0228
    -5.0228  -5.0225  -5.0219  -5.0211  -5.0210  -5.0210  -5.0201  -5.0200
    -5.0178  -5.0174  -5.0173  -5.0172  -5.0155  -5.0155  -5.0145  -5.0145
    -5.0134  -5.0134  -5.0134  -5.0127  -5.0126  -5.0125  -5.0125  -5.0114
    -5.0103  -5.0102  -5.0100  -5.0085  -5.0084  -5.0084  -5.0084  -5.0083
    -5.0075  -5.0075  -5.0075  -5.0071  -5.0053  -5.0052  -5.0046  -5.0046
    -5.0037  -5.0032  -5.0031  -5.0031  -5.0005  -4.9995  -4.9994  -4.9991
    -4.9970  -4.9970  -4.9963  -4.9961  -4.9955  -4.9955  -4.9953  -4.9953
    -4.9942  -4.9922  -4.9922  -4.9914  -4.9914  -4.9906  -4.9883  -4.9883
    -4.9878  -4.9866  -4.9859  -4.9859  -4.9836  -4.9831  -4.9830  -4.9822
    -4.9822  -4.9811  -4.9811  -4.9806  -4.9799  -4.9799  -4.9795  -4.9795
    -4.9788  -4.9782  -4.9773  -4.9770  -4.9770  -4.9763  -4.9763  -4.9749
    -4.9740  -4.9734  -4.9734  -4.9724  -4.9723  -4.9719  -4.9702  -4.9702
    -4.9702  -4.9687  -4.9687  -4.9684  -4.9677  -4.9665  -4.9665  -4.9659
    -4.9654  -4.9637  -4.9637  -4.9618  -4.9604  -4.9604  -4.9601  -4.9589
    -4.9588  -4.9579  -4.9579  -4.9560  -4.9560  -4.9544  -4.9533  -4.9528
    -4.9528  -4.9505  -4.9504  -4.9502  -4.9498  -4.9480  -4.9479  -4.9479
    -4.9461  -4.9459  -4.9459  -4.9434  -4.9419  -4.9419  -4.9407  -4.9407
    -4.9395  -4.9393  -4.9393  -4.9369  -4.9368  -4.9356  -4.9355  -4.9333
    -4.9324  -4.9324  -4.9306  -4.9305  -4.9288  -4.9271  -4.9263  -4.9244
    -4.9244  -4.9230  -4.9216  -4.9216  -4.9189  -4.9160  -4.9160  -4.9097
    -4.9090  -4.9090  -4.9025  -4.9025  -4.9018  -4.8238  -4.7996  -4.7996
    -4.7596  -4.7595  -4.7485  -4.7484  -4.7438  -4.7438  -4.7324  -4.7269
    -4.6885  -4.3719  -4.3631  -4.3628  -4.3476  -4.3013  -4.2930  -4.2929
    -4.2443  -4.1267  -4.1111  -4.1110  -4.1070  -4.1067  -4.0935  -4.0932
    -4.0918  -4.0858  -4.0638  -4.0598  -4.0598  -4.0501  -4.0282  -4.0279
    -4.0171  -4.0143  -4.0142  -3.9848  -3.9848  -3.9760  -3.9410  -3.9407
    -3.9251  -3.9249  -3.9127  -3.9125  -3.9056  -3.8941  -3.8569  -3.8415
    -3.8413  -3.8322  -3.8062  -3.8027  -3.8026  -3.7962  -3.7960  -3.7952
    -3.7336  -3.7334  -3.6207  -3.5301  -3.4685  -3.4665  -3.4663  -3.4590
    -3.4310  -3.4309  -3.4270  -3.4170  -3.4169  -3.4161  -3.4109  -3.4105
    -3.3784  -3.3771  -3.3768  -3.3289  -3.3278  -3.3254  -3.3253  -3.3179
    -3.3057  -3.3056  -3.3004  -3.3003  -3.2914  -3.2913  -3.2834  -3.2759
    -3.2758  -3.2721  -3.2680  -3.2605  -3.2603  -3.2559  -3.2536  -3.2536
    -3.2434  -3.2397  -3.2396  -3.2322  -3.2320  -3.2304  -3.2257  -3.2255
    -3.1972  -3.1201  -3.1201  -3.1031  -3.0853  -3.0647  -3.0645  -3.0634
    -3.0540  -3.0538  -3.0478  -3.0287  -3.0287  -2.9854  -2.9851  -2.9641
    -2.9563  -2.9467  -2.9466  -2.9273  -2.9271  -2.9147  -2.8960  -2.8917
    -2.8915  -2.8865  -2.8767  -2.8766  -2.8626  -2.8601  -2.8600  -1.7538
     1.1656   1.1666   1.6551   2.1937   2.4483   2.4486   2.4881   2.4885
     2.5198   2.5922   2.5928   2.5960   2.5966   2.6060   2.6060   2.6120
     2.6201   2.6201   2.6207   2.6288   2.6318   2.6374   2.6387   2.6394
     2.6622   2.6711   2.6713   2.6764   2.6764   2.6769   2.6804   2.6807
     2.7293   2.7587   2.7597   2.8092   2.8150   2.8159   2.8344   2.9195
     2.9414   2.9496   2.9497   2.9527   2.9532   2.9592   2.9757   2.9759
[...]
Ga            3.2467402969        7.4947824043       10.5719628794
Ga            3.2453330411        7.4938129881       15.8589728319
Ga            1.6219638864       10.3026484755        5.2850735211
Ga            1.6217906529       10.3025484591       10.5704783623
Ga            1.6219373724       10.3026331676       15.8599912922
Ga            0.0007275695       13.1138702121        5.2866321683
Ga            0.0026687436       13.1136791581       10.5719628794
Ga            0.0011255766       13.1129451469       15.8589728319
Ga            9.7336955763        1.8741373159        5.2777039306
Ga            9.7334616257        1.8737342208       10.5732636921
Ga            9.7340061789        1.8755577972       15.8612801190
Ga            8.1125681134        4.6837960631        5.2840595477
Ga            8.1128994658        4.6839873695       10.5686697997
Ga            8.1108772463        4.6828198405       15.8601338755
Ga            6.4898959939        7.4925630024        5.2777039306
Ga            6.4894299280        7.4925619428       10.5732636921
Ga            6.4912814681        7.4921217515       15.8612801190
Ga            4.8677734028       10.3012528844        5.2864748829
Ga            4.8663158839       10.2992832361       10.5718507064
Ga            4.8668781234       10.3018603033       15.8588288783
Ga            3.2436600273       13.1142997682        5.2864748829
Ga            3.2412255024       13.1140223439       10.5718507064
Ga            3.2437384278       13.1132207240       15.8588288783
Ga           12.9774905552        1.8769353089        5.2859894351
Ga           12.9700962354        1.8757852308       10.5744397495
Ga           12.9890217987        1.8759057288       15.8599342095
Ga           11.3548047272        4.6838632781        5.2839760604
Ga           11.3542000499        4.6840831094       10.5686847690
Ga           11.3565864296        4.6827714554       15.8602112229
Ga            9.7337446302        7.4916217283        5.2839760604
Ga            9.7336326710        7.4909881468       10.5686847690
Ga            9.7336899353        7.4937106392       15.8602112229
Ga            8.1142166164       10.3003728623        5.2859894351
Ga            8.1095234596       10.2945442325       10.5744397495
Ga            8.1190905956       10.3108740021       15.8599342095
Ga            6.4887915987       13.1125127654        5.3084277397
Ga            6.4830002532       13.1091691305       10.5742349678
Ga            6.4848833604       13.1102563430       15.8475115855
N             1.6220943165        0.9365151193        4.7946635939
N             1.6218444575        0.9363708631        9.9254093182
N             1.6228883688        0.9369735656       15.1070977527
N             0.0081199709        3.7267215006        4.6348567176
N            -0.0014769952        3.7556766676        9.9299605145
N             0.0090472243        3.7270426956       15.2196806904
N            -1.6197293553        6.5488225639        4.6245538022
N            -1.6237666860        6.5572426303        9.9192542702
N            -1.6203365442        6.5458942164       15.2185948066
N            -3.2497877414        9.3721665079        4.6245538022
N            -3.2445144153        9.3644600438        9.9192542702
N            -3.2526273591        9.3731048407       15.2185948066
N            -4.8798742910       12.1929759096        4.6348567176
N            -4.8595968639       12.1701871097        9.9299605145
N            -4.8791325014       12.1936183371       15.2196806904
N             4.8450954933        0.9397156690        4.6347276548
N             4.8750941420        0.9328989954        9.9298072693
N             4.8455645186        0.9395386234       15.2196899444
N             3.2363666621        3.7261157401        4.6347276548
N             3.2454625740        3.7555036688        9.9298072693
N             3.2364478488        3.7266104507       15.2196899444
N             1.6223609886        6.5466790138        4.6326289165
N             1.6220923912        6.5590286635        9.9229442328
N             1.6224581061        6.5516395316       15.2085595777
N            -0.0015998351        9.3652793740        4.6289273993
N            -0.0003314317        9.3660116870        9.9190364806
N            -0.0015340252        9.3653173693       15.2090961499
N            -1.6305989383       12.1809708823        4.6326289165
N            -1.6200381267       12.1745634453        9.9229442328
N            -1.6262544452       12.1785747296       15.2085595777
N             8.1034768420        0.9381388612        4.6245786129
N             8.1124192830        0.9371290964        9.9192858875
N             8.1015979734        0.9400578552       15.2186442580
N             6.4851187859        3.7441836059        4.6307943910
N             6.4880012034        3.7458477704        9.9198657470
N             6.4837113074        3.7433709979       15.2129593218
N             4.8641917810        6.5487451674        4.6245786129
N             4.8677885196        6.5569944309        9.9192858875
N             4.8649142442        6.5461585224       15.2186442580
N             3.2462724506        9.3652693937        4.6290427209
N             3.2446014957        9.3659345937        9.9191496138
N             3.2462066058        9.3654943544       15.2092620925
N             1.6223276646       12.1780242719        4.6290427209
N             1.6220682673       12.1762445825        9.9191496138
N             1.6224895639       12.1778547683       15.2092620925
N            11.3638977000        0.9383518189        4.6244298667
N            11.3543334841        0.9373356867        9.9193052093
N            11.3658640216        0.9399416175       15.2181666663
N             9.7335567818        3.7469218641        4.6280648589
N             9.7334363013        3.7453568806        9.9180371125
N             9.7336083834        3.7466616528       15.2106733336
N             8.1117091849        6.5560443040        4.6280648589
N             8.1102936292        6.5567224566        9.9180371125
N             8.1115096362        6.5562190979       15.2106733336
N             6.4945866367        9.3722459786        4.6244298667
N             6.4889245325        9.3644711907        9.9193052093
N             6.4969466035        9.3731539638       15.2181666663
N             4.8753089563       12.1809639776        4.6324176999
N             4.8645727789       12.1747654427        9.9231135913
N             4.8719424606       12.1790203304       15.2087345579
N            14.6215888386        0.9398032094        4.6344645117
N            14.5915783381        0.9329534935        9.9295916041
N            14.6231800109        0.9400445494       15.2198857848
N            12.9818350166        3.7441514828        4.6303497752
N            12.9785645915        3.7460246485        9.9194488825
N            12.9834608067        3.7431358019       15.2126538660
N            11.3553710487        6.5560250610        4.6277655413
N            11.3565318283        6.5566952374        9.9177469209
N            11.3554868331        6.5560919091       15.2104099616
N             9.7334490819        9.3705209646        4.6303497752
N             9.7334360784        9.3667521106        9.9194488825
N             9.7333823714        9.3724367806       15.2126538660
N             8.1246891470       12.1927635671        4.6344645117
N             8.1037518688       12.1701985692        9.9295916041
N             8.1256937398       12.1940208928       15.2198857848
N             0.4048962899        1.6399024908        2.0105604761
N            -0.0120304616        1.8797774983        7.3125802181
N            -0.0081177612        1.8779614179       12.5466749083
N            -1.5666187119        4.6139100286        1.9915950190
N            -1.6205115230        4.6838912099        7.2713210787
N            -1.6231794303        4.6832601966       12.5711555151
N            -3.2408824864        7.4950828131        1.9896793278
N            -3.2441781173        7.4931800798        7.2674894829
N            -3.2441687537        7.4931854858       12.5690003884
N            -4.8989194232       10.3856241666        1.9915950190
N            -4.8652603479       10.3039610325        7.2713210787
N            -4.8671407751       10.3019660636       12.5711555151
N            -6.4887280009       13.5800100111        2.0105604761
N            -6.4894535264       13.0990033490        7.3125802181
N            -6.4890699479       13.1032998872       12.5466749083
N             2.8406296992        1.6400410004        2.0103703504
N             3.2558548171        1.8797713340        7.3132189451
N             3.2523468598        1.8777460138       12.5469725462
N             1.6229211353        4.6805374431        1.9764873584
N             1.6222078759        4.6824560062        7.2844471835
N             1.6221460417        4.6826077020       12.5731502914
N             0.0021295527        7.4866254055        1.9862108148
N            -0.0003007202        7.4922537539        7.2738925916
N            -0.0016834327        7.4915677565       12.5669264274
N            -1.6267007966       10.3078423276        1.9862108148
N            -1.6230416404       10.3029234753        7.2738925916
N            -1.6243270879       10.3020690098       12.5669264274
N            -3.2464484660       13.1145329936        1.9764873584
N            -3.2451435713       13.1129560113        7.2844471835
N            -3.2450431160       13.1128266134       12.5731502914
N             6.4017888103        1.8600910518        1.9920936938
N             6.4888317755        1.8712269276        7.2714456907
N             6.4894628856        1.8736329112       12.5714241588
N             4.8117781894        4.6140702320        1.9920936938
N             4.8649436234        4.6838837131        7.2714456907
N             4.8673428213        4.6832272787       12.5714241588
N             3.2431905986        7.4869860036        1.9860444110
N             3.2446400786        7.4923388966        7.2737028866
N             3.2461283371        7.4917317791       12.5667840683
N             1.6226010625       10.3030163493        1.9873900346
N             1.6222604027       10.3028196692        7.2734859291
N             1.6222901610       10.3028368502       12.5643966169
N            -0.0058579866       13.1145032295        1.9860444110
N            -0.0004975053       13.1130820695        7.2737028866
N            -0.0002791553       13.1146744980       12.5667840683
N             9.7343105187        1.8692276881        1.9899123280
N             9.7332173880        1.8724689318        7.2676944425
N             9.7332859280        1.8724998161       12.5691574397
N             8.0965143296        4.6745274067        1.9888328595
N             8.1103382568        4.6825086548        7.2724453791
N             8.1106143093        4.6826680337       12.5641314656
N             6.4859516027        7.4955503720        1.9899123280
N             6.4882120367        7.4929830713        7.2676944425
N             6.4882730533        7.4930269864       12.5691574397
N             4.8718559724       10.3076501354        1.9859385360
N             4.8672292784       10.3028180592        7.2736000789
N             4.8685423291       10.3021351863       12.5666685338
N             3.2512414940       13.1146367516        1.9859385360
N             3.2447434462       13.1130459552        7.2736000789
N             3.2448085863       13.1145245269       12.5666685338
N            13.0660588725        1.8603859762        1.9912248335
N            12.9779788214        1.8710894963        7.2717549219
N            12.9775877682        1.8737229510       12.5715250639
N            11.3708608009        4.6745392036        1.9889106651
N            11.3564780870        4.6825309506        7.2724105512
N            11.3559094789        4.6828270683       12.5641231876
N             9.7336977817        7.5101887333        1.9889106651
N             9.7334274807        7.4937370641        7.2724105512
N             9.7333996220        7.4930965763       12.5641231876
N             8.1441686325       10.3853499414        1.9912248335
N             8.1093981273       10.3037186195        7.2717549219
N             8.1114832393       10.3020632301       12.5715250639
N             6.4916519881       13.1141642120        1.9764219759
N             6.4891311531       13.1127088073        7.2839666402
N             6.4896820434       13.1130268639       12.5733705018
N             1.6223946360        0.9366885089        2.2539112620



     Writing config-only to output data dir ./GaN.save/
     NEW-OLD atomic charge density approx. for the potential

     Check: negative core charge=   -0.000003


     -----------------------------------------------
     Non-local corr. energy    =      81.33534629 Ry
     -----------------------------------------------


     total cpu time spent up to now is   148054.8 secs

     Self-consistent Calculation

     iteration #  1     ecut=    70.00 Ry     beta= 0.70
     Davidson diagonalization with overlap

---- Real-time Memory Report at c_bands before calling an iterative solver
          3601 MiB given to the printing process from OS
             0 MiB allocation reported by mallinfo(arena+hblkhd)
       1900794 MiB available memory on the node where the printing process lives
------------------
     ethr =  1.00E-06,  avg # of iterations =  4.0


     -----------------------------------------------
     Non-local corr. energy    =      81.33498749 Ry
     -----------------------------------------------


     total cpu time spent up to now is   148906.2 secs

     total energy              =  -46589.98571223 Ry
     estimated scf accuracy    <       0.00779473 Ry

     iteration #  2     ecut=    70.00 Ry     beta= 0.70
     Davidson diagonalization with overlap

---- Real-time Memory Report at c_bands before calling an iterative solver
          3601 MiB given to the printing process from OS
             0 MiB allocation reported by mallinfo(arena+hblkhd)
       1909803 MiB available memory on the node where the printing process lives
------------------
     ethr =  2.90E-07,  avg # of iterations = 16.0


     -----------------------------------------------
     Non-local corr. energy    =      81.33493685 Ry
     -----------------------------------------------


     total cpu time spent up to now is   151619.0 secs

     total energy              =  -46589.97927278 Ry
     estimated scf accuracy    <       0.04126259 Ry

     iteration #  3     ecut=    70.00 Ry     beta= 0.70
     Davidson diagonalization with overlap

---- Real-time Memory Report at c_bands before calling an iterative solver
          3601 MiB given to the printing process from OS
             0 MiB allocation reported by mallinfo(arena+hblkhd)
       1890806 MiB available memory on the node where the printing process lives
------------------
     ethr =  2.90E-07,  avg # of iterations = 16.3


     -----------------------------------------------
     Non-local corr. energy    =      81.33509942 Ry
     -----------------------------------------------


     total cpu time spent up to now is   154501.5 secs

     total energy              =  -46589.98608366 Ry
     estimated scf accuracy    <       0.03320140 Ry

     iteration #  4     ecut=    70.00 Ry     beta= 0.70
     Davidson diagonalization with overlap

---- Real-time Memory Report at c_bands before calling an iterative solver
          3601 MiB given to the printing process from OS
             0 MiB allocation reported by mallinfo(arena+hblkhd)
       1890776 MiB available memory on the node where the printing process lives
------------------

     Maximum CPU time exceeded

     max_seconds     =  154800.00
     elapsed seconds =  155182.79
     Calculation stopped in k-point loop, point #     1
     Calculation stopped in scf loop at iteration #     3

     Writing config to output data dir ./GaN.save/
 
     init_run     :    111.55s CPU    117.54s WALL (       1 calls)
     electrons    : 148664.45s CPU 150067.06s WALL (       5 calls)
     update_pot   :     10.27s CPU     10.51s WALL (       4 calls)
     forces       :    270.60s CPU    276.90s WALL (       4 calls)
     stress       :   5045.89s CPU   5123.82s WALL (       4 calls)

     Called by init_run:
     wfcinit      :    106.67s CPU    112.20s WALL (       1 calls)
     wfcinit:atom :      0.23s CPU      0.42s WALL (       2 calls)
     wfcinit:wfcr :    104.80s CPU    109.55s WALL (       2 calls)
     potinit      :      1.74s CPU      1.99s WALL (       1 calls)
     hinit0       :      1.25s CPU      1.32s WALL (       1 calls)

     Called by electrons:
     c_bands      : 147081.27s CPU 148464.92s WALL (      69 calls)
     sum_band     :   1438.16s CPU   1456.40s WALL (      68 calls)
     v_of_rho     :     66.12s CPU     69.01s WALL (      73 calls)
     v_h          :      0.66s CPU      0.67s WALL (      73 calls)
     v_xc         :     73.16s CPU     76.57s WALL (      81 calls)
     newd         :     17.81s CPU     18.16s WALL (      73 calls)
     PAW_pot      :     43.86s CPU     44.24s WALL (      77 calls)
     mix_rho      :      3.85s CPU      3.94s WALL (      68 calls)
     vdW_kernel   :      0.17s CPU      0.17s WALL (       1 calls)

     Called by c_bands:
     init_us_2    :     68.08s CPU     69.17s WALL (     299 calls)
     init_us_2:cp :     68.07s CPU     69.17s WALL (     299 calls)
     cegterg      : 122000.34s CPU 123196.95s WALL (     142 calls)

     Called by sum_band:
     sum_band:wei :      0.76s CPU      0.76s WALL (      68 calls)
     sum_band:loo :   1407.83s CPU   1419.72s WALL (      68 calls)
     sum_band:buf :     16.55s CPU     16.77s WALL (     136 calls)
     sum_band:ini :     35.33s CPU     35.77s WALL (     136 calls)
     sum_band:cal :   1025.49s CPU   1033.37s WALL (     144 calls)
     sum_band:bec :      8.55s CPU      8.66s WALL (     144 calls)
     addusdens    :     13.32s CPU     13.75s WALL (      68 calls)
     addusd:skk   :      2.85s CPU      2.94s WALL (     136 calls)
     addusd:dgemm :      6.58s CPU      6.87s WALL (     136 calls)
     addusd:qvan2 :      1.64s CPU      1.67s WALL (     136 calls)

     Called by *egterg:
     cdiaghg      : 101297.60s CPU 101975.85s WALL (    2068 calls)
     cegterg:over :   4244.37s CPU   4357.39s WALL (    1936 calls)
     cegterg:upda :   2722.28s CPU   2767.24s WALL (    1936 calls)
     cegterg:last :   1436.01s CPU   1447.03s WALL (     153 calls)
     h_psi        :   8312.87s CPU   8439.60s WALL (    2080 calls)
     s_psi        :   2962.97s CPU   3010.69s WALL (    2080 calls)
     g_psi        :      8.27s CPU      8.38s WALL (    1936 calls)

     Called by h_psi:
     h_psi:calbec :   3127.69s CPU   3152.33s WALL (    2080 calls)
     vloc_psi     :   2182.24s CPU   2206.85s WALL (    2080 calls)
     add_vuspsi   :   2968.18s CPU   3019.48s WALL (    2080 calls)

     General routines
     calbec       :   4578.93s CPU   4617.04s WALL (    2264 calls)
     fft          :     32.15s CPU     32.58s WALL (    5271 calls)
     ffts         :      1.25s CPU      1.26s WALL (     141 calls)
     fftw         :   2355.59s CPU   2381.99s WALL ( 1555988 calls)
     interpolate  :      0.93s CPU      0.94s WALL (      73 calls)
     davcio       :      0.00s CPU      0.07s WALL (       8 calls)
 
     Parallel routines

     PAW routines
     PAW_pot      :     43.86s CPU     44.24s WALL (      77 calls)
     PAW_symme    :      0.63s CPU      0.64s WALL (     144 calls)
 
     PWSCF        :   1d18h49m CPU   1d19h14m WALL

 
   This run was terminated on:   4:35:13  24Apr2024            

=------------------------------------------------------------------------------=
   JOB DONE.
=------------------------------------------------------------------------------=
