
     Program PWSCF v.7.1 starts on 24Apr2024 at  7: 1:16 

     This program is part of the open-source Quantum ESPRESSO suite
     for quantum simulation of materials; please cite
         "P. Giannozzi et al., J. Phys.:Condens. Matter 21 395502 (2009);
         "P. Giannozzi et al., J. Phys.:Condens. Matter 29 465901 (2017);
         "P. Giannozzi et al., J. Chem. Phys. 152 154105 (2020);
          URL http://www.quantum-espresso.org", 
     in publications or presentations arising from this work. More details at
     http://www.quantum-espresso.org/quote

     Parallel version (MPI & OpenMP), running on     256 processor cores
     Number of MPI processes:               256
     Threads/MPI process:                     1

     MPI processes distributed on     2 nodes
     1972302 MiB available memory on the printing compute node when the environment starts
 
     Reading input from espresso.pwi
Warning: card &CELL ignored
Warning: card    CELL_DYNAMICS    = 'BFGS' ignored
Warning: card / ignored

     Current dimensions of program PWSCF are:
     Max number of different atomic species (ntypx) = 10
     Max number of k-points (npk) =  40000
     Max angular momentum in pseudopotentials (lmaxx) =  4
     file Ga.pbe-dn-kjpaw_psl.1.0.0.UPF: wavefunction(s)  4S renormalized
     file N.pbe-n-kjpaw_psl.1.0.0.UPF: wavefunction(s)  2S renormalized

     **************************************************************************
     Initializing libbeef V0.1.2 with the BEEF-vdW functional.
     Citation: Wellendorff et al., PRB 85, 235149 (2012).
     **************************************************************************


     IMPORTANT: XC functional enforced from input :
     Exchange-correlation= BEEF-VDW
                           (   1   4  43  14   2   0   0)
     Any further DFT definition will be discarded
     Please, verify this is what you really want

 
     K-points division:     npool     =       4
     R & G space division:  proc/nbgrp/npool/nimage =      64
     Subspace diagonalization in iterative solution of the eigenvalue problem:
     a serial algorithm will be used

 
     Parallelization info
     --------------------
     sticks:   dense  smooth     PW     G-vecs:    dense   smooth      PW
     Min         354     283     73                42160    30167    3987
     Max         356     285     74                42163    30170    3996
     Sum       22693   18145   4705              2698283  1930731  255309
 
     Using Slab Decomposition
 


     bravais-lattice index     =            4
     lattice parameter (alat)  =      30.6565  a.u.
     unit-cell volume          =   24400.9461 (a.u.)^3
     number of atoms/cell      =          300
     number of atomic types    =            2
     number of electrons       =      2690.00
     number of Kohn-Sham states=         1614
     kinetic-energy cutoff     =      70.0000  Ry
     charge density cutoff     =     350.0000  Ry
     scf convergence threshold =      1.0E-07
     mixing beta               =       0.7000
     number of iterations used =            8  plain     mixing
     energy convergence thresh.=      1.0E-04
     force convergence thresh. =      1.0E-03
     Exchange-correlation= BEEF-VDW
                           (   1   4  43  14   2   0   0)
     nstep                     =           50


     celldm(1)=  30.656540  celldm(2)=   0.000000  celldm(3)=   0.977927
     celldm(4)=   0.000000  celldm(5)=   0.000000  celldm(6)=   0.000000

     crystal axes: (cart. coord. in units of alat)
               a(1) = (   1.000000   0.000000   0.000000 )  
               a(2) = (  -0.500000   0.866025   0.000000 )  
               a(3) = (   0.000000   0.000000   0.977927 )  

     reciprocal axes: (cart. coord. in units 2 pi/alat)
               b(1) = (  1.000000  0.577350 -0.000000 )  
               b(2) = (  0.000000  1.154701  0.000000 )  
               b(3) = (  0.000000 -0.000000  1.022571 )  


     PseudoPot. # 1 for Ga read from file:
     //group///packages/espresso/pseudo/psl_1.0.0/pslibrary.1.0.0/pbe/PSEUDOPOTENTIALS/Ga.pbe-dn-kjpaw_psl.1.0.0.UPF
     MD5 check sum: cd2a01e492f15b435d17032472d8505c
     Pseudo is Projector augmented-wave + core cor, Zval = 13.0
     Generated using 'atomic' code by A. Dal Corso  v.7.1
     Shape of augmentation charge: PSQ
     Using radial grid of 1205 points,  6 beta functions with: 
                l(1) =   0
                l(2) =   0
                l(3) =   1
                l(4) =   1
                l(5) =   2
                l(6) =   2
     Q(r) pseudized with 0 coefficients 


     PseudoPot. # 2 for N  read from file:
     //group///packages/espresso/pseudo/psl_1.0.0/pslibrary.1.0.0/pbe/PSEUDOPOTENTIALS/N.pbe-n-kjpaw_psl.1.0.0.UPF
     MD5 check sum: f77f775694dac7e2c3fe1c82443d1a16
     Pseudo is Projector augmented-wave + core cor, Zval =  5.0
     Generated using 'atomic' code by A. Dal Corso  v.7.1
     Shape of augmentation charge: PSQ
     Using radial grid of 1085 points,  4 beta functions with: 
                l(1) =   0
                l(2) =   0
                l(3) =   1
                l(4) =   1
     Q(r) pseudized with 0 coefficients 


     atomic species   valence    mass     pseudopotential
        Ga            13.00    69.72300     Ga( 1.00)
        N              5.00    14.00700     N ( 1.00)

      2 Sym. Ops. (no inversion) found


                                    s                        frac. trans.

      isym =  1     identity                                     

 cryst.   s( 1) = (     1          0          0      )
                  (     0          1          0      )
                  (     0          0          1      )

 cart.    s( 1) = (  1.0000000  0.0000000  0.0000000 )
                  (  0.0000000  1.0000000  0.0000000 )
                  (  0.0000000  0.0000000  1.0000000 )


      isym =  2     inv. 180 deg rotation - cryst. axis [0,1,0]  

 cryst.   s( 2) = (     1          1          0      )
                  (     0         -1          0      )
                  (     0          0          1      )

 cart.    s( 2) = (  0.5000000  0.8660254  0.0000000 )
                  (  0.8660254 -0.5000000  0.0000000 )
                  (  0.0000000  0.0000000  1.0000000 )


     point group C_s (m)    
     there are  2 classes
     the character table:

       E     s    
A'     1.00  1.00
A''    1.00 -1.00

     the symmetry operations in each class and the name of the first element:

     E        1
          identity                                               
     s        2
          inv. 180 deg rotation - cryst. axis [0,1,0]            

   Cartesian axes

     site n.     atom                  positions (alat units)
         1           Ga  tau(   1) = (   0.1000001   0.0577350   0.4886906  )
         2           Ga  tau(   2) = (   0.1000001   0.0577350   0.8146665  )
         3           Ga  tau(   3) = (   0.0000001   0.2309401   0.1627148  )
         4           Ga  tau(   4) = (   0.0000001   0.2309401   0.4886906  )
         5           Ga  tau(   5) = (   0.0000001   0.2309401   0.8146665  )
         6           Ga  tau(   6) = (  -0.0999999   0.4041451   0.1627148  )
         7           Ga  tau(   7) = (  -0.0999999   0.4041451   0.4886906  )
         8           Ga  tau(   8) = (  -0.0999999   0.4041451   0.8146665  )
         9           Ga  tau(   9) = (  -0.1999999   0.5773502   0.1627148  )
        10           Ga  tau(  10) = (  -0.1999999   0.5773502   0.4886906  )
        11           Ga  tau(  11) = (  -0.1999999   0.5773502   0.8146665  )
        12           Ga  tau(  12) = (  -0.2999999   0.7505553   0.1627148  )
        13           Ga  tau(  13) = (  -0.2999999   0.7505553   0.4886906  )
        14           Ga  tau(  14) = (  -0.2999999   0.7505553   0.8146665  )
        15           Ga  tau(  15) = (   0.3000001   0.0577350   0.1627148  )
        16           Ga  tau(  16) = (   0.3000001   0.0577350   0.4886906  )
        17           Ga  tau(  17) = (   0.3000001   0.0577350   0.8146665  )
        18           Ga  tau(  18) = (   0.2000001   0.2309401   0.1627148  )
        19           Ga  tau(  19) = (   0.2000001   0.2309401   0.4886906  )
        20           Ga  tau(  20) = (   0.2000001   0.2309401   0.8146665  )
        21           Ga  tau(  21) = (   0.1000001   0.4041451   0.1627148  )
        22           Ga  tau(  22) = (   0.1000001   0.4041451   0.4886906  )
        23           Ga  tau(  23) = (   0.1000001   0.4041451   0.8146665  )
        24           Ga  tau(  24) = (   0.0000001   0.5773502   0.1627148  )
        25           Ga  tau(  25) = (   0.0000001   0.5773502   0.4886906  )
        26           Ga  tau(  26) = (   0.0000001   0.5773502   0.8146665  )
        27           Ga  tau(  27) = (  -0.0999999   0.7505553   0.1627148  )
        28           Ga  tau(  28) = (  -0.0999999   0.7505553   0.4886906  )
        29           Ga  tau(  29) = (  -0.0999999   0.7505553   0.8146665  )
        30           Ga  tau(  30) = (   0.5000001   0.0577350   0.1627148  )
        31           Ga  tau(  31) = (   0.5000001   0.0577350   0.4886906  )
        32           Ga  tau(  32) = (   0.5000001   0.0577350   0.8146665  )
        33           Ga  tau(  33) = (   0.4000001   0.2309401   0.1627148  )
        34           Ga  tau(  34) = (   0.4000001   0.2309401   0.4886906  )
        35           Ga  tau(  35) = (   0.4000001   0.2309401   0.8146665  )
        36           Ga  tau(  36) = (   0.3000001   0.4041451   0.1627148  )
        37           Ga  tau(  37) = (   0.3000001   0.4041451   0.4886906  )
        38           Ga  tau(  38) = (   0.3000001   0.4041451   0.8146665  )
        39           Ga  tau(  39) = (   0.2000001   0.5773502   0.1627148  )
        40           Ga  tau(  40) = (   0.2000001   0.5773502   0.4886906  )
        41           Ga  tau(  41) = (   0.2000001   0.5773502   0.8146665  )
        42           Ga  tau(  42) = (   0.1000001   0.7505553   0.1627148  )
        43           Ga  tau(  43) = (   0.1000001   0.7505553   0.4886906  )
        44           Ga  tau(  44) = (   0.1000001   0.7505553   0.8146665  )
        45           Ga  tau(  45) = (   0.7000001   0.0577350   0.1627148  )
        46           Ga  tau(  46) = (   0.7000001   0.0577350   0.4886906  )
        47           Ga  tau(  47) = (   0.7000001   0.0577350   0.8146665  )
        48           Ga  tau(  48) = (   0.6000001   0.2309401   0.1627148  )
        49           Ga  tau(  49) = (   0.6000001   0.2309401   0.4886906  )
        50           Ga  tau(  50) = (   0.6000001   0.2309401   0.8146665  )
        51           Ga  tau(  51) = (   0.5000001   0.4041451   0.1627148  )
        52           Ga  tau(  52) = (   0.5000001   0.4041451   0.4886906  )
        53           Ga  tau(  53) = (   0.5000001   0.4041451   0.8146665  )
        54           Ga  tau(  54) = (   0.4000001   0.5773502   0.1627148  )
        55           Ga  tau(  55) = (   0.4000001   0.5773502   0.4886906  )
        56           Ga  tau(  56) = (   0.4000001   0.5773502   0.8146665  )
        57           Ga  tau(  57) = (   0.3000001   0.7505553   0.1627148  )
        58           Ga  tau(  58) = (   0.3000001   0.7505553   0.4886906  )
        59           Ga  tau(  59) = (   0.3000001   0.7505553   0.8146665  )
        60           Ga  tau(  60) = (   0.9000001   0.0577350   0.1627148  )
        61           Ga  tau(  61) = (   0.9000001   0.0577350   0.4886906  )
        62           Ga  tau(  62) = (   0.9000001   0.0577350   0.8146665  )
        63           Ga  tau(  63) = (   0.8000001   0.2309401   0.1627148  )
        64           Ga  tau(  64) = (   0.8000001   0.2309401   0.4886906  )
        65           Ga  tau(  65) = (   0.8000001   0.2309401   0.8146665  )
        66           Ga  tau(  66) = (   0.7000001   0.4041451   0.1627148  )
        67           Ga  tau(  67) = (   0.7000001   0.4041451   0.4886906  )
        68           Ga  tau(  68) = (   0.7000001   0.4041451   0.8146665  )
        69           Ga  tau(  69) = (   0.6000001   0.5773502   0.1627148  )
        70           Ga  tau(  70) = (   0.6000001   0.5773502   0.4886906  )
        71           Ga  tau(  71) = (   0.6000001   0.5773502   0.8146665  )
        72           Ga  tau(  72) = (   0.5000001   0.7505553   0.1627148  )
        73           Ga  tau(  73) = (   0.5000001   0.7505553   0.4886906  )
        74           Ga  tau(  74) = (   0.5000001   0.7505553   0.8146665  )
        75           Ga  tau(  75) = (  -0.0000001   0.1154701   0.3257027  )
        76           Ga  tau(  76) = (  -0.0000001   0.1154701   0.6516786  )
        77           Ga  tau(  77) = (  -0.0000001   0.1154701   0.9776544  )
        78           Ga  tau(  78) = (  -0.1000001   0.2886752   0.3257027  )
        79           Ga  tau(  79) = (  -0.1000001   0.2886752   0.6516786  )
        80           Ga  tau(  80) = (  -0.1000001   0.2886752   0.9776544  )
        81           Ga  tau(  81) = (  -0.2000001   0.4618803   0.3257027  )
        82           Ga  tau(  82) = (  -0.2000001   0.4618803   0.6516786  )
        83           Ga  tau(  83) = (  -0.2000001   0.4618803   0.9776544  )
        84           Ga  tau(  84) = (  -0.3000001   0.6350854   0.3257027  )
        85           Ga  tau(  85) = (  -0.3000001   0.6350854   0.6516786  )
        86           Ga  tau(  86) = (  -0.3000001   0.6350854   0.9776544  )
        87           Ga  tau(  87) = (  -0.4000001   0.8082905   0.3257027  )
        88           Ga  tau(  88) = (  -0.4000001   0.8082905   0.6516786  )
        89           Ga  tau(  89) = (  -0.4000001   0.8082905   0.9776544  )
        90           Ga  tau(  90) = (   0.1999999   0.1154701   0.3257027  )
        91           Ga  tau(  91) = (   0.1999999   0.1154701   0.6516786  )
        92           Ga  tau(  92) = (   0.1999999   0.1154701   0.9776544  )
        93           Ga  tau(  93) = (   0.0999999   0.2886752   0.3257027  )
        94           Ga  tau(  94) = (   0.0999999   0.2886752   0.6516786  )
        95           Ga  tau(  95) = (   0.0999999   0.2886752   0.9776544  )
        96           Ga  tau(  96) = (  -0.0000001   0.4618803   0.3257027  )
        97           Ga  tau(  97) = (  -0.0000001   0.4618803   0.6516786  )
        98           Ga  tau(  98) = (  -0.0000001   0.4618803   0.9776544  )
        99           Ga  tau(  99) = (  -0.1000001   0.6350854   0.3257027  )
       100           Ga  tau( 100) = (  -0.1000001   0.6350854   0.6516786  )
       101           Ga  tau( 101) = (  -0.1000001   0.6350854   0.9776544  )
       102           Ga  tau( 102) = (  -0.2000001   0.8082905   0.3257027  )
       103           Ga  tau( 103) = (  -0.2000001   0.8082905   0.6516786  )
       104           Ga  tau( 104) = (  -0.2000001   0.8082905   0.9776544  )
       105           Ga  tau( 105) = (   0.3999999   0.1154701   0.3257027  )
       106           Ga  tau( 106) = (   0.3999999   0.1154701   0.6516786  )
       107           Ga  tau( 107) = (   0.3999999   0.1154701   0.9776544  )
       108           Ga  tau( 108) = (   0.2999999   0.2886752   0.3257027  )
       109           Ga  tau( 109) = (   0.2999999   0.2886752   0.6516786  )
       110           Ga  tau( 110) = (   0.2999999   0.2886752   0.9776544  )
       111           Ga  tau( 111) = (   0.1999999   0.4618803   0.3257027  )
       112           Ga  tau( 112) = (   0.1999999   0.4618803   0.6516786  )
       113           Ga  tau( 113) = (   0.1999999   0.4618803   0.9776544  )
       114           Ga  tau( 114) = (   0.0999999   0.6350854   0.3257027  )
       115           Ga  tau( 115) = (   0.0999999   0.6350854   0.6516786  )
       116           Ga  tau( 116) = (   0.0999999   0.6350854   0.9776544  )
       117           Ga  tau( 117) = (  -0.0000001   0.8082905   0.3257027  )
       118           Ga  tau( 118) = (  -0.0000001   0.8082905   0.6516786  )
       119           Ga  tau( 119) = (  -0.0000001   0.8082905   0.9776544  )
       120           Ga  tau( 120) = (   0.5999999   0.1154701   0.3257027  )
       121           Ga  tau( 121) = (   0.5999999   0.1154701   0.6516786  )
       122           Ga  tau( 122) = (   0.5999999   0.1154701   0.9776544  )
       123           Ga  tau( 123) = (   0.4999999   0.2886752   0.3257027  )
       124           Ga  tau( 124) = (   0.4999999   0.2886752   0.6516786  )
       125           Ga  tau( 125) = (   0.4999999   0.2886752   0.9776544  )
       126           Ga  tau( 126) = (   0.3999999   0.4618803   0.3257027  )
       127           Ga  tau( 127) = (   0.3999999   0.4618803   0.6516786  )
       128           Ga  tau( 128) = (   0.3999999   0.4618803   0.9776544  )
       129           Ga  tau( 129) = (   0.2999999   0.6350854   0.3257027  )
       130           Ga  tau( 130) = (   0.2999999   0.6350854   0.6516786  )
       131           Ga  tau( 131) = (   0.2999999   0.6350854   0.9776544  )
       132           Ga  tau( 132) = (   0.1999999   0.8082905   0.3257027  )
       133           Ga  tau( 133) = (   0.1999999   0.8082905   0.6516786  )
       134           Ga  tau( 134) = (   0.1999999   0.8082905   0.9776544  )
       135           Ga  tau( 135) = (   0.7999999   0.1154701   0.3257027  )
       136           Ga  tau( 136) = (   0.7999999   0.1154701   0.6516786  )
       137           Ga  tau( 137) = (   0.7999999   0.1154701   0.9776544  )
       138           Ga  tau( 138) = (   0.6999999   0.2886752   0.3257027  )
       139           Ga  tau( 139) = (   0.6999999   0.2886752   0.6516786  )
       140           Ga  tau( 140) = (   0.6999999   0.2886752   0.9776544  )
       141           Ga  tau( 141) = (   0.5999999   0.4618803   0.3257027  )
       142           Ga  tau( 142) = (   0.5999999   0.4618803   0.6516786  )
       143           Ga  tau( 143) = (   0.5999999   0.4618803   0.9776544  )
       144           Ga  tau( 144) = (   0.4999999   0.6350854   0.3257027  )
       145           Ga  tau( 145) = (   0.4999999   0.6350854   0.6516786  )
       146           Ga  tau( 146) = (   0.4999999   0.6350854   0.9776544  )
       147           Ga  tau( 147) = (   0.3999999   0.8082905   0.3257027  )
       148           Ga  tau( 148) = (   0.3999999   0.8082905   0.6516786  )
       149           Ga  tau( 149) = (   0.3999999   0.8082905   0.9776544  )
       150           N   tau( 150) = (   0.1000001   0.0577350   0.2855019  )
       151           N   tau( 151) = (   0.1000001   0.0577350   0.6114777  )
       152           N   tau( 152) = (   0.1000001   0.0577350   0.9374535  )
       153           N   tau( 153) = (   0.0000001   0.2309401   0.2855019  )
       154           N   tau( 154) = (   0.0000001   0.2309401   0.6114777  )
       155           N   tau( 155) = (   0.0000001   0.2309401   0.9374535  )
       156           N   tau( 156) = (  -0.0999999   0.4041451   0.2855019  )
       157           N   tau( 157) = (  -0.0999999   0.4041451   0.6114777  )
       158           N   tau( 158) = (  -0.0999999   0.4041451   0.9374535  )
       159           N   tau( 159) = (  -0.1999999   0.5773502   0.2855019  )
       160           N   tau( 160) = (  -0.1999999   0.5773502   0.6114777  )
       161           N   tau( 161) = (  -0.1999999   0.5773502   0.9374535  )
       162           N   tau( 162) = (  -0.2999999   0.7505553   0.2855019  )
       163           N   tau( 163) = (  -0.2999999   0.7505553   0.6114777  )
       164           N   tau( 164) = (  -0.2999999   0.7505553   0.9374535  )
       165           N   tau( 165) = (   0.3000001   0.0577350   0.2855019  )
       166           N   tau( 166) = (   0.3000001   0.0577350   0.6114777  )
       167           N   tau( 167) = (   0.3000001   0.0577350   0.9374535  )
       168           N   tau( 168) = (   0.2000001   0.2309401   0.2855019  )
       169           N   tau( 169) = (   0.2000001   0.2309401   0.6114777  )
       170           N   tau( 170) = (   0.2000001   0.2309401   0.9374535  )
       171           N   tau( 171) = (   0.1000001   0.4041451   0.2855019  )
       172           N   tau( 172) = (   0.1000001   0.4041451   0.6114777  )
       173           N   tau( 173) = (   0.1000001   0.4041451   0.9374535  )
       174           N   tau( 174) = (   0.0000001   0.5773502   0.2855019  )
       175           N   tau( 175) = (   0.0000001   0.5773502   0.6114777  )
       176           N   tau( 176) = (   0.0000001   0.5773502   0.9374535  )
       177           N   tau( 177) = (  -0.0999999   0.7505553   0.2855019  )
       178           N   tau( 178) = (  -0.0999999   0.7505553   0.6114777  )
       179           N   tau( 179) = (  -0.0999999   0.7505553   0.9374535  )
       180           N   tau( 180) = (   0.5000001   0.0577350   0.2855019  )
       181           N   tau( 181) = (   0.5000001   0.0577350   0.6114777  )
       182           N   tau( 182) = (   0.5000001   0.0577350   0.9374535  )
       183           N   tau( 183) = (   0.4000001   0.2309401   0.2855019  )
       184           N   tau( 184) = (   0.4000001   0.2309401   0.6114777  )
       185           N   tau( 185) = (   0.4000001   0.2309401   0.9374535  )
       186           N   tau( 186) = (   0.3000001   0.4041451   0.2855019  )
       187           N   tau( 187) = (   0.3000001   0.4041451   0.6114777  )
       188           N   tau( 188) = (   0.3000001   0.4041451   0.9374535  )
       189           N   tau( 189) = (   0.2000001   0.5773502   0.2855019  )
       190           N   tau( 190) = (   0.2000001   0.5773502   0.6114777  )
       191           N   tau( 191) = (   0.2000001   0.5773502   0.9374535  )
       192           N   tau( 192) = (   0.1000001   0.7505553   0.2855019  )
       193           N   tau( 193) = (   0.1000001   0.7505553   0.6114777  )
       194           N   tau( 194) = (   0.1000001   0.7505553   0.9374535  )
       195           N   tau( 195) = (   0.7000001   0.0577350   0.2855019  )
       196           N   tau( 196) = (   0.7000001   0.0577350   0.6114777  )
       197           N   tau( 197) = (   0.7000001   0.0577350   0.9374535  )
       198           N   tau( 198) = (   0.6000001   0.2309401   0.2855019  )
       199           N   tau( 199) = (   0.6000001   0.2309401   0.6114777  )
       200           N   tau( 200) = (   0.6000001   0.2309401   0.9374535  )
       201           N   tau( 201) = (   0.5000001   0.4041451   0.2855019  )
       202           N   tau( 202) = (   0.5000001   0.4041451   0.6114777  )
       203           N   tau( 203) = (   0.5000001   0.4041451   0.9374535  )
       204           N   tau( 204) = (   0.4000001   0.5773502   0.2855019  )
       205           N   tau( 205) = (   0.4000001   0.5773502   0.6114777  )
       206           N   tau( 206) = (   0.4000001   0.5773502   0.9374535  )
       207           N   tau( 207) = (   0.3000001   0.7505553   0.2855019  )
       208           N   tau( 208) = (   0.3000001   0.7505553   0.6114777  )
       209           N   tau( 209) = (   0.3000001   0.7505553   0.9374535  )
       210           N   tau( 210) = (   0.9000001   0.0577350   0.2855019  )
       211           N   tau( 211) = (   0.9000001   0.0577350   0.6114777  )
       212           N   tau( 212) = (   0.9000001   0.0577350   0.9374535  )
       213           N   tau( 213) = (   0.8000001   0.2309401   0.2855019  )
       214           N   tau( 214) = (   0.8000001   0.2309401   0.6114777  )
       215           N   tau( 215) = (   0.8000001   0.2309401   0.9374535  )
       216           N   tau( 216) = (   0.7000001   0.4041451   0.2855019  )
       217           N   tau( 217) = (   0.7000001   0.4041451   0.6114777  )
       218           N   tau( 218) = (   0.7000001   0.4041451   0.9374535  )
       219           N   tau( 219) = (   0.6000001   0.5773502   0.2855019  )
       220           N   tau( 220) = (   0.6000001   0.5773502   0.6114777  )
       221           N   tau( 221) = (   0.6000001   0.5773502   0.9374535  )
       222           N   tau( 222) = (   0.5000001   0.7505553   0.2855019  )
       223           N   tau( 223) = (   0.5000001   0.7505553   0.6114777  )
       224           N   tau( 224) = (   0.5000001   0.7505553   0.9374535  )
       225           N   tau( 225) = (  -0.0000001   0.1154701   0.1225140  )
       226           N   tau( 226) = (  -0.0000001   0.1154701   0.4484898  )
       227           N   tau( 227) = (  -0.0000001   0.1154701   0.7744656  )
       228           N   tau( 228) = (  -0.1000001   0.2886752   0.1225140  )
       229           N   tau( 229) = (  -0.1000001   0.2886752   0.4484898  )
       230           N   tau( 230) = (  -0.1000001   0.2886752   0.7744656  )
       231           N   tau( 231) = (  -0.2000001   0.4618803   0.1225140  )
       232           N   tau( 232) = (  -0.2000001   0.4618803   0.4484898  )
       233           N   tau( 233) = (  -0.2000001   0.4618803   0.7744656  )
       234           N   tau( 234) = (  -0.3000001   0.6350854   0.1225140  )
       235           N   tau( 235) = (  -0.3000001   0.6350854   0.4484898  )
       236           N   tau( 236) = (  -0.3000001   0.6350854   0.7744656  )
       237           N   tau( 237) = (  -0.4000001   0.8082905   0.1225140  )
       238           N   tau( 238) = (  -0.4000001   0.8082905   0.4484898  )
       239           N   tau( 239) = (  -0.4000001   0.8082905   0.7744656  )
       240           N   tau( 240) = (   0.1999999   0.1154701   0.1225140  )
       241           N   tau( 241) = (   0.1999999   0.1154701   0.4484898  )
       242           N   tau( 242) = (   0.1999999   0.1154701   0.7744656  )
       243           N   tau( 243) = (   0.0999999   0.2886752   0.1225140  )
       244           N   tau( 244) = (   0.0999999   0.2886752   0.4484898  )
       245           N   tau( 245) = (   0.0999999   0.2886752   0.7744656  )
       246           N   tau( 246) = (  -0.0000001   0.4618803   0.1225140  )
       247           N   tau( 247) = (  -0.0000001   0.4618803   0.4484898  )
       248           N   tau( 248) = (  -0.0000001   0.4618803   0.7744656  )
       249           N   tau( 249) = (  -0.1000001   0.6350854   0.1225140  )
       250           N   tau( 250) = (  -0.1000001   0.6350854   0.4484898  )
       251           N   tau( 251) = (  -0.1000001   0.6350854   0.7744656  )
       252           N   tau( 252) = (  -0.2000001   0.8082905   0.1225140  )
       253           N   tau( 253) = (  -0.2000001   0.8082905   0.4484898  )
       254           N   tau( 254) = (  -0.2000001   0.8082905   0.7744656  )
       255           N   tau( 255) = (   0.3999999   0.1154701   0.1225140  )
       256           N   tau( 256) = (   0.3999999   0.1154701   0.4484898  )
       257           N   tau( 257) = (   0.3999999   0.1154701   0.7744656  )
       258           N   tau( 258) = (   0.2999999   0.2886752   0.1225140  )
       259           N   tau( 259) = (   0.2999999   0.2886752   0.4484898  )
       260           N   tau( 260) = (   0.2999999   0.2886752   0.7744656  )
       261           N   tau( 261) = (   0.1999999   0.4618803   0.1225140  )
       262           N   tau( 262) = (   0.1999999   0.4618803   0.4484898  )
       263           N   tau( 263) = (   0.1999999   0.4618803   0.7744656  )
       264           N   tau( 264) = (   0.0999999   0.6350854   0.1225140  )
       265           N   tau( 265) = (   0.0999999   0.6350854   0.4484898  )
       266           N   tau( 266) = (   0.0999999   0.6350854   0.7744656  )
       267           N   tau( 267) = (  -0.0000001   0.8082905   0.1225140  )
       268           N   tau( 268) = (  -0.0000001   0.8082905   0.4484898  )
       269           N   tau( 269) = (  -0.0000001   0.8082905   0.7744656  )
       270           N   tau( 270) = (   0.5999999   0.1154701   0.1225140  )
       271           N   tau( 271) = (   0.5999999   0.1154701   0.4484898  )
       272           N   tau( 272) = (   0.5999999   0.1154701   0.7744656  )
       273           N   tau( 273) = (   0.4999999   0.2886752   0.1225140  )
       274           N   tau( 274) = (   0.4999999   0.2886752   0.4484898  )
       275           N   tau( 275) = (   0.4999999   0.2886752   0.7744656  )
       276           N   tau( 276) = (   0.3999999   0.4618803   0.1225140  )
       277           N   tau( 277) = (   0.3999999   0.4618803   0.4484898  )
       278           N   tau( 278) = (   0.3999999   0.4618803   0.7744656  )
       279           N   tau( 279) = (   0.2999999   0.6350854   0.1225140  )
       280           N   tau( 280) = (   0.2999999   0.6350854   0.4484898  )
       281           N   tau( 281) = (   0.2999999   0.6350854   0.7744656  )
       282           N   tau( 282) = (   0.1999999   0.8082905   0.1225140  )
       283           N   tau( 283) = (   0.1999999   0.8082905   0.4484898  )
       284           N   tau( 284) = (   0.1999999   0.8082905   0.7744656  )
       285           N   tau( 285) = (   0.7999999   0.1154701   0.1225140  )
       286           N   tau( 286) = (   0.7999999   0.1154701   0.4484898  )
       287           N   tau( 287) = (   0.7999999   0.1154701   0.7744656  )
       288           N   tau( 288) = (   0.6999999   0.2886752   0.1225140  )
       289           N   tau( 289) = (   0.6999999   0.2886752   0.4484898  )
       290           N   tau( 290) = (   0.6999999   0.2886752   0.7744656  )
       291           N   tau( 291) = (   0.5999999   0.4618803   0.1225140  )
       292           N   tau( 292) = (   0.5999999   0.4618803   0.4484898  )
       293           N   tau( 293) = (   0.5999999   0.4618803   0.7744656  )
       294           N   tau( 294) = (   0.4999999   0.6350854   0.1225140  )
       295           N   tau( 295) = (   0.4999999   0.6350854   0.4484898  )
       296           N   tau( 296) = (   0.4999999   0.6350854   0.7744656  )
       297           N   tau( 297) = (   0.3999999   0.8082905   0.1225140  )
       298           N   tau( 298) = (   0.3999999   0.8082905   0.4484898  )
       299           N   tau( 299) = (   0.3999999   0.8082905   0.7744656  )
       300           N   tau( 300) = (   0.1000001   0.0577350   0.1627148  )

   Crystallographic axes

     site n.     atom                  positions (cryst. coord.)
         1           Ga  tau(   1) = (  0.1333334  0.0666666  0.4997208  )
         2           Ga  tau(   2) = (  0.1333334  0.0666666  0.8330541  )
         3           Ga  tau(   3) = (  0.1333334  0.2666666  0.1663874  )
         4           Ga  tau(   4) = (  0.1333334  0.2666666  0.4997208  )
         5           Ga  tau(   5) = (  0.1333334  0.2666666  0.8330541  )
         6           Ga  tau(   6) = (  0.1333334  0.4666666  0.1663874  )
         7           Ga  tau(   7) = (  0.1333334  0.4666666  0.4997208  )
         8           Ga  tau(   8) = (  0.1333334  0.4666666  0.8330541  )
         9           Ga  tau(   9) = (  0.1333334  0.6666666  0.1663874  )
        10           Ga  tau(  10) = (  0.1333334  0.6666666  0.4997208  )
        11           Ga  tau(  11) = (  0.1333334  0.6666666  0.8330541  )
        12           Ga  tau(  12) = (  0.1333334  0.8666666  0.1663874  )
        13           Ga  tau(  13) = (  0.1333334  0.8666666  0.4997208  )
        14           Ga  tau(  14) = (  0.1333334  0.8666666  0.8330541  )
        15           Ga  tau(  15) = (  0.3333334  0.0666666  0.1663874  )
        16           Ga  tau(  16) = (  0.3333334  0.0666666  0.4997208  )
        17           Ga  tau(  17) = (  0.3333334  0.0666666  0.8330541  )
        18           Ga  tau(  18) = (  0.3333334  0.2666666  0.1663874  )
        19           Ga  tau(  19) = (  0.3333334  0.2666666  0.4997208  )
        20           Ga  tau(  20) = (  0.3333334  0.2666666  0.8330541  )
        21           Ga  tau(  21) = (  0.3333334  0.4666666  0.1663874  )
        22           Ga  tau(  22) = (  0.3333334  0.4666666  0.4997208  )
        23           Ga  tau(  23) = (  0.3333334  0.4666666  0.8330541  )
        24           Ga  tau(  24) = (  0.3333334  0.6666666  0.1663874  )
        25           Ga  tau(  25) = (  0.3333334  0.6666666  0.4997208  )
        26           Ga  tau(  26) = (  0.3333334  0.6666666  0.8330541  )
        27           Ga  tau(  27) = (  0.3333334  0.8666666  0.1663874  )
        28           Ga  tau(  28) = (  0.3333334  0.8666666  0.4997208  )
        29           Ga  tau(  29) = (  0.3333334  0.8666666  0.8330541  )
        30           Ga  tau(  30) = (  0.5333334  0.0666666  0.1663874  )
        31           Ga  tau(  31) = (  0.5333334  0.0666666  0.4997208  )
        32           Ga  tau(  32) = (  0.5333334  0.0666666  0.8330541  )
        33           Ga  tau(  33) = (  0.5333334  0.2666666  0.1663874  )
        34           Ga  tau(  34) = (  0.5333334  0.2666666  0.4997208  )
        35           Ga  tau(  35) = (  0.5333334  0.2666666  0.8330541  )
        36           Ga  tau(  36) = (  0.5333334  0.4666666  0.1663874  )
        37           Ga  tau(  37) = (  0.5333334  0.4666666  0.4997208  )
        38           Ga  tau(  38) = (  0.5333334  0.4666666  0.8330541  )
        39           Ga  tau(  39) = (  0.5333334  0.6666666  0.1663874  )
        40           Ga  tau(  40) = (  0.5333334  0.6666666  0.4997208  )
        41           Ga  tau(  41) = (  0.5333334  0.6666666  0.8330541  )
        42           Ga  tau(  42) = (  0.5333334  0.8666666  0.1663874  )
        43           Ga  tau(  43) = (  0.5333334  0.8666666  0.4997208  )
        44           Ga  tau(  44) = (  0.5333334  0.8666666  0.8330541  )
        45           Ga  tau(  45) = (  0.7333334  0.0666666  0.1663874  )
        46           Ga  tau(  46) = (  0.7333334  0.0666666  0.4997208  )
        47           Ga  tau(  47) = (  0.7333334  0.0666666  0.8330541  )
        48           Ga  tau(  48) = (  0.7333334  0.2666666  0.1663874  )
        49           Ga  tau(  49) = (  0.7333334  0.2666666  0.4997208  )
        50           Ga  tau(  50) = (  0.7333334  0.2666666  0.8330541  )
        51           Ga  tau(  51) = (  0.7333334  0.4666666  0.1663874  )
        52           Ga  tau(  52) = (  0.7333334  0.4666666  0.4997208  )
        53           Ga  tau(  53) = (  0.7333334  0.4666666  0.8330541  )
        54           Ga  tau(  54) = (  0.7333334  0.6666666  0.1663874  )
        55           Ga  tau(  55) = (  0.7333334  0.6666666  0.4997208  )
        56           Ga  tau(  56) = (  0.7333334  0.6666666  0.8330541  )
        57           Ga  tau(  57) = (  0.7333334  0.8666666  0.1663874  )
        58           Ga  tau(  58) = (  0.7333334  0.8666666  0.4997208  )
        59           Ga  tau(  59) = (  0.7333334  0.8666666  0.8330541  )
        60           Ga  tau(  60) = (  0.9333334  0.0666666  0.1663874  )
        61           Ga  tau(  61) = (  0.9333334  0.0666666  0.4997208  )
        62           Ga  tau(  62) = (  0.9333334  0.0666666  0.8330541  )
        63           Ga  tau(  63) = (  0.9333334  0.2666666  0.1663874  )
        64           Ga  tau(  64) = (  0.9333334  0.2666666  0.4997208  )
        65           Ga  tau(  65) = (  0.9333334  0.2666666  0.8330541  )
        66           Ga  tau(  66) = (  0.9333334  0.4666666  0.1663874  )
        67           Ga  tau(  67) = (  0.9333334  0.4666666  0.4997208  )
        68           Ga  tau(  68) = (  0.9333334  0.4666666  0.8330541  )
        69           Ga  tau(  69) = (  0.9333334  0.6666666  0.1663874  )
        70           Ga  tau(  70) = (  0.9333334  0.6666666  0.4997208  )
        71           Ga  tau(  71) = (  0.9333334  0.6666666  0.8330541  )
        72           Ga  tau(  72) = (  0.9333334  0.8666666  0.1663874  )
        73           Ga  tau(  73) = (  0.9333334  0.8666666  0.4997208  )
        74           Ga  tau(  74) = (  0.9333334  0.8666666  0.8330541  )
        75           Ga  tau(  75) = (  0.0666666  0.1333334  0.3330541  )
        76           Ga  tau(  76) = (  0.0666666  0.1333334  0.6663874  )
        77           Ga  tau(  77) = (  0.0666666  0.1333334  0.9997208  )
        78           Ga  tau(  78) = (  0.0666666  0.3333334  0.3330541  )
        79           Ga  tau(  79) = (  0.0666666  0.3333334  0.6663874  )
        80           Ga  tau(  80) = (  0.0666666  0.3333334  0.9997208  )
        81           Ga  tau(  81) = (  0.0666666  0.5333334  0.3330541  )
        82           Ga  tau(  82) = (  0.0666666  0.5333334  0.6663874  )
        83           Ga  tau(  83) = (  0.0666666  0.5333334  0.9997208  )
        84           Ga  tau(  84) = (  0.0666666  0.7333334  0.3330541  )
        85           Ga  tau(  85) = (  0.0666666  0.7333334  0.6663874  )
        86           Ga  tau(  86) = (  0.0666666  0.7333334  0.9997208  )
        87           Ga  tau(  87) = (  0.0666666  0.9333334  0.3330541  )
        88           Ga  tau(  88) = (  0.0666666  0.9333334  0.6663874  )
        89           Ga  tau(  89) = (  0.0666666  0.9333334  0.9997208  )
        90           Ga  tau(  90) = (  0.2666666  0.1333334  0.3330541  )
        91           Ga  tau(  91) = (  0.2666666  0.1333334  0.6663874  )
        92           Ga  tau(  92) = (  0.2666666  0.1333334  0.9997208  )
        93           Ga  tau(  93) = (  0.2666666  0.3333334  0.3330541  )
        94           Ga  tau(  94) = (  0.2666666  0.3333334  0.6663874  )
        95           Ga  tau(  95) = (  0.2666666  0.3333334  0.9997208  )
        96           Ga  tau(  96) = (  0.2666666  0.5333334  0.3330541  )
        97           Ga  tau(  97) = (  0.2666666  0.5333334  0.6663874  )
        98           Ga  tau(  98) = (  0.2666666  0.5333334  0.9997208  )
        99           Ga  tau(  99) = (  0.2666666  0.7333334  0.3330541  )
       100           Ga  tau( 100) = (  0.2666666  0.7333334  0.6663874  )
       101           Ga  tau( 101) = (  0.2666666  0.7333334  0.9997208  )
       102           Ga  tau( 102) = (  0.2666666  0.9333334  0.3330541  )
       103           Ga  tau( 103) = (  0.2666666  0.9333334  0.6663874  )
       104           Ga  tau( 104) = (  0.2666666  0.9333334  0.9997208  )
       105           Ga  tau( 105) = (  0.4666666  0.1333334  0.3330541  )
       106           Ga  tau( 106) = (  0.4666666  0.1333334  0.6663874  )
       107           Ga  tau( 107) = (  0.4666666  0.1333334  0.9997208  )
       108           Ga  tau( 108) = (  0.4666666  0.3333334  0.3330541  )
       109           Ga  tau( 109) = (  0.4666666  0.3333334  0.6663874  )
       110           Ga  tau( 110) = (  0.4666666  0.3333334  0.9997208  )
       111           Ga  tau( 111) = (  0.4666666  0.5333334  0.3330541  )
       112           Ga  tau( 112) = (  0.4666666  0.5333334  0.6663874  )
       113           Ga  tau( 113) = (  0.4666666  0.5333334  0.9997208  )
       114           Ga  tau( 114) = (  0.4666666  0.7333334  0.3330541  )
       115           Ga  tau( 115) = (  0.4666666  0.7333334  0.6663874  )
       116           Ga  tau( 116) = (  0.4666666  0.7333334  0.9997208  )
       117           Ga  tau( 117) = (  0.4666666  0.9333334  0.3330541  )
       118           Ga  tau( 118) = (  0.4666666  0.9333334  0.6663874  )
       119           Ga  tau( 119) = (  0.4666666  0.9333334  0.9997208  )
       120           Ga  tau( 120) = (  0.6666666  0.1333334  0.3330541  )
       121           Ga  tau( 121) = (  0.6666666  0.1333334  0.6663874  )
       122           Ga  tau( 122) = (  0.6666666  0.1333334  0.9997208  )
       123           Ga  tau( 123) = (  0.6666666  0.3333334  0.3330541  )
       124           Ga  tau( 124) = (  0.6666666  0.3333334  0.6663874  )
       125           Ga  tau( 125) = (  0.6666666  0.3333334  0.9997208  )
       126           Ga  tau( 126) = (  0.6666666  0.5333334  0.3330541  )
       127           Ga  tau( 127) = (  0.6666666  0.5333334  0.6663874  )
       128           Ga  tau( 128) = (  0.6666666  0.5333334  0.9997208  )
       129           Ga  tau( 129) = (  0.6666666  0.7333334  0.3330541  )
       130           Ga  tau( 130) = (  0.6666666  0.7333334  0.6663874  )
       131           Ga  tau( 131) = (  0.6666666  0.7333334  0.9997208  )
       132           Ga  tau( 132) = (  0.6666666  0.9333334  0.3330541  )
       133           Ga  tau( 133) = (  0.6666666  0.9333334  0.6663874  )
       134           Ga  tau( 134) = (  0.6666666  0.9333334  0.9997208  )
       135           Ga  tau( 135) = (  0.8666666  0.1333334  0.3330541  )
       136           Ga  tau( 136) = (  0.8666666  0.1333334  0.6663874  )
       137           Ga  tau( 137) = (  0.8666666  0.1333334  0.9997208  )
       138           Ga  tau( 138) = (  0.8666666  0.3333334  0.3330541  )
       139           Ga  tau( 139) = (  0.8666666  0.3333334  0.6663874  )
       140           Ga  tau( 140) = (  0.8666666  0.3333334  0.9997208  )
       141           Ga  tau( 141) = (  0.8666666  0.5333334  0.3330541  )
       142           Ga  tau( 142) = (  0.8666666  0.5333334  0.6663874  )
       143           Ga  tau( 143) = (  0.8666666  0.5333334  0.9997208  )
       144           Ga  tau( 144) = (  0.8666666  0.7333334  0.3330541  )
       145           Ga  tau( 145) = (  0.8666666  0.7333334  0.6663874  )
       146           Ga  tau( 146) = (  0.8666666  0.7333334  0.9997208  )
       147           Ga  tau( 147) = (  0.8666666  0.9333334  0.3330541  )
       148           Ga  tau( 148) = (  0.8666666  0.9333334  0.6663874  )
       149           Ga  tau( 149) = (  0.8666666  0.9333334  0.9997208  )
       150           N   tau( 150) = (  0.1333334  0.0666666  0.2919459  )
       151           N   tau( 151) = (  0.1333334  0.0666666  0.6252792  )
       152           N   tau( 152) = (  0.1333334  0.0666666  0.9586126  )
       153           N   tau( 153) = (  0.1333334  0.2666666  0.2919459  )
       154           N   tau( 154) = (  0.1333334  0.2666666  0.6252792  )
       155           N   tau( 155) = (  0.1333334  0.2666666  0.9586126  )
       156           N   tau( 156) = (  0.1333334  0.4666666  0.2919459  )
       157           N   tau( 157) = (  0.1333334  0.4666666  0.6252792  )
       158           N   tau( 158) = (  0.1333334  0.4666666  0.9586126  )
       159           N   tau( 159) = (  0.1333334  0.6666666  0.2919459  )
       160           N   tau( 160) = (  0.1333334  0.6666666  0.6252792  )
       161           N   tau( 161) = (  0.1333334  0.6666666  0.9586126  )
       162           N   tau( 162) = (  0.1333334  0.8666666  0.2919459  )
       163           N   tau( 163) = (  0.1333334  0.8666666  0.6252792  )
       164           N   tau( 164) = (  0.1333334  0.8666666  0.9586126  )
       165           N   tau( 165) = (  0.3333334  0.0666666  0.2919459  )
       166           N   tau( 166) = (  0.3333334  0.0666666  0.6252792  )
       167           N   tau( 167) = (  0.3333334  0.0666666  0.9586126  )
       168           N   tau( 168) = (  0.3333334  0.2666666  0.2919459  )
       169           N   tau( 169) = (  0.3333334  0.2666666  0.6252792  )
       170           N   tau( 170) = (  0.3333334  0.2666666  0.9586126  )
       171           N   tau( 171) = (  0.3333334  0.4666666  0.2919459  )
       172           N   tau( 172) = (  0.3333334  0.4666666  0.6252792  )
       173           N   tau( 173) = (  0.3333334  0.4666666  0.9586126  )
       174           N   tau( 174) = (  0.3333334  0.6666666  0.2919459  )
       175           N   tau( 175) = (  0.3333334  0.6666666  0.6252792  )
       176           N   tau( 176) = (  0.3333334  0.6666666  0.9586126  )
       177           N   tau( 177) = (  0.3333334  0.8666666  0.2919459  )
       178           N   tau( 178) = (  0.3333334  0.8666666  0.6252792  )
       179           N   tau( 179) = (  0.3333334  0.8666666  0.9586126  )
       180           N   tau( 180) = (  0.5333334  0.0666666  0.2919459  )
       181           N   tau( 181) = (  0.5333334  0.0666666  0.6252792  )
       182           N   tau( 182) = (  0.5333334  0.0666666  0.9586126  )
       183           N   tau( 183) = (  0.5333334  0.2666666  0.2919459  )
       184           N   tau( 184) = (  0.5333334  0.2666666  0.6252792  )
       185           N   tau( 185) = (  0.5333334  0.2666666  0.9586126  )
       186           N   tau( 186) = (  0.5333334  0.4666666  0.2919459  )
       187           N   tau( 187) = (  0.5333334  0.4666666  0.6252792  )
       188           N   tau( 188) = (  0.5333334  0.4666666  0.9586126  )
       189           N   tau( 189) = (  0.5333334  0.6666666  0.2919459  )
       190           N   tau( 190) = (  0.5333334  0.6666666  0.6252792  )
       191           N   tau( 191) = (  0.5333334  0.6666666  0.9586126  )
       192           N   tau( 192) = (  0.5333334  0.8666666  0.2919459  )
       193           N   tau( 193) = (  0.5333334  0.8666666  0.6252792  )
       194           N   tau( 194) = (  0.5333334  0.8666666  0.9586126  )
       195           N   tau( 195) = (  0.7333334  0.0666666  0.2919459  )
       196           N   tau( 196) = (  0.7333334  0.0666666  0.6252792  )
       197           N   tau( 197) = (  0.7333334  0.0666666  0.9586126  )
       198           N   tau( 198) = (  0.7333334  0.2666666  0.2919459  )
       199           N   tau( 199) = (  0.7333334  0.2666666  0.6252792  )
       200           N   tau( 200) = (  0.7333334  0.2666666  0.9586126  )
       201           N   tau( 201) = (  0.7333334  0.4666666  0.2919459  )
       202           N   tau( 202) = (  0.7333334  0.4666666  0.6252792  )
       203           N   tau( 203) = (  0.7333334  0.4666666  0.9586126  )
       204           N   tau( 204) = (  0.7333334  0.6666666  0.2919459  )
       205           N   tau( 205) = (  0.7333334  0.6666666  0.6252792  )
       206           N   tau( 206) = (  0.7333334  0.6666666  0.9586126  )
       207           N   tau( 207) = (  0.7333334  0.8666666  0.2919459  )
       208           N   tau( 208) = (  0.7333334  0.8666666  0.6252792  )
       209           N   tau( 209) = (  0.7333334  0.8666666  0.9586126  )
       210           N   tau( 210) = (  0.9333334  0.0666666  0.2919459  )
       211           N   tau( 211) = (  0.9333334  0.0666666  0.6252792  )
       212           N   tau( 212) = (  0.9333334  0.0666666  0.9586126  )
       213           N   tau( 213) = (  0.9333334  0.2666666  0.2919459  )
       214           N   tau( 214) = (  0.9333334  0.2666666  0.6252792  )
       215           N   tau( 215) = (  0.9333334  0.2666666  0.9586126  )
       216           N   tau( 216) = (  0.9333334  0.4666666  0.2919459  )
       217           N   tau( 217) = (  0.9333334  0.4666666  0.6252792  )
       218           N   tau( 218) = (  0.9333334  0.4666666  0.9586126  )
       219           N   tau( 219) = (  0.9333334  0.6666666  0.2919459  )
       220           N   tau( 220) = (  0.9333334  0.6666666  0.6252792  )
       221           N   tau( 221) = (  0.9333334  0.6666666  0.9586126  )
       222           N   tau( 222) = (  0.9333334  0.8666666  0.2919459  )
       223           N   tau( 223) = (  0.9333334  0.8666666  0.6252792  )
       224           N   tau( 224) = (  0.9333334  0.8666666  0.9586126  )
       225           N   tau( 225) = (  0.0666666  0.1333334  0.1252792  )
       226           N   tau( 226) = (  0.0666666  0.1333334  0.4586126  )
       227           N   tau( 227) = (  0.0666666  0.1333334  0.7919459  )
       228           N   tau( 228) = (  0.0666666  0.3333334  0.1252792  )
       229           N   tau( 229) = (  0.0666666  0.3333334  0.4586126  )
       230           N   tau( 230) = (  0.0666666  0.3333334  0.7919459  )
       231           N   tau( 231) = (  0.0666666  0.5333334  0.1252792  )
       232           N   tau( 232) = (  0.0666666  0.5333334  0.4586126  )
       233           N   tau( 233) = (  0.0666666  0.5333334  0.7919459  )
       234           N   tau( 234) = (  0.0666666  0.7333334  0.1252792  )
       235           N   tau( 235) = (  0.0666666  0.7333334  0.4586126  )
       236           N   tau( 236) = (  0.0666666  0.7333334  0.7919459  )
       237           N   tau( 237) = (  0.0666666  0.9333334  0.1252792  )
       238           N   tau( 238) = (  0.0666666  0.9333334  0.4586126  )
       239           N   tau( 239) = (  0.0666666  0.9333334  0.7919459  )
       240           N   tau( 240) = (  0.2666666  0.1333334  0.1252792  )
       241           N   tau( 241) = (  0.2666666  0.1333334  0.4586126  )
       242           N   tau( 242) = (  0.2666666  0.1333334  0.7919459  )
       243           N   tau( 243) = (  0.2666666  0.3333334  0.1252792  )
       244           N   tau( 244) = (  0.2666666  0.3333334  0.4586126  )
       245           N   tau( 245) = (  0.2666666  0.3333334  0.7919459  )
       246           N   tau( 246) = (  0.2666666  0.5333334  0.1252792  )
       247           N   tau( 247) = (  0.2666666  0.5333334  0.4586126  )
       248           N   tau( 248) = (  0.2666666  0.5333334  0.7919459  )
       249           N   tau( 249) = (  0.2666666  0.7333334  0.1252792  )
       250           N   tau( 250) = (  0.2666666  0.7333334  0.4586126  )
       251           N   tau( 251) = (  0.2666666  0.7333334  0.7919459  )
       252           N   tau( 252) = (  0.2666666  0.9333334  0.1252792  )
       253           N   tau( 253) = (  0.2666666  0.9333334  0.4586126  )
       254           N   tau( 254) = (  0.2666666  0.9333334  0.7919459  )
       255           N   tau( 255) = (  0.4666666  0.1333334  0.1252792  )
       256           N   tau( 256) = (  0.4666666  0.1333334  0.4586126  )
       257           N   tau( 257) = (  0.4666666  0.1333334  0.7919459  )
       258           N   tau( 258) = (  0.4666666  0.3333334  0.1252792  )
       259           N   tau( 259) = (  0.4666666  0.3333334  0.4586126  )
       260           N   tau( 260) = (  0.4666666  0.3333334  0.7919459  )
       261           N   tau( 261) = (  0.4666666  0.5333334  0.1252792  )
       262           N   tau( 262) = (  0.4666666  0.5333334  0.4586126  )
       263           N   tau( 263) = (  0.4666666  0.5333334  0.7919459  )
       264           N   tau( 264) = (  0.4666666  0.7333334  0.1252792  )
       265           N   tau( 265) = (  0.4666666  0.7333334  0.4586126  )
       266           N   tau( 266) = (  0.4666666  0.7333334  0.7919459  )
       267           N   tau( 267) = (  0.4666666  0.9333334  0.1252792  )
       268           N   tau( 268) = (  0.4666666  0.9333334  0.4586126  )
       269           N   tau( 269) = (  0.4666666  0.9333334  0.7919459  )
       270           N   tau( 270) = (  0.6666666  0.1333334  0.1252792  )
       271           N   tau( 271) = (  0.6666666  0.1333334  0.4586126  )
       272           N   tau( 272) = (  0.6666666  0.1333334  0.7919459  )
       273           N   tau( 273) = (  0.6666666  0.3333334  0.1252792  )
       274           N   tau( 274) = (  0.6666666  0.3333334  0.4586126  )
       275           N   tau( 275) = (  0.6666666  0.3333334  0.7919459  )
       276           N   tau( 276) = (  0.6666666  0.5333334  0.1252792  )
       277           N   tau( 277) = (  0.6666666  0.5333334  0.4586126  )
       278           N   tau( 278) = (  0.6666666  0.5333334  0.7919459  )
       279           N   tau( 279) = (  0.6666666  0.7333334  0.1252792  )
       280           N   tau( 280) = (  0.6666666  0.7333334  0.4586126  )
       281           N   tau( 281) = (  0.6666666  0.7333334  0.7919459  )
       282           N   tau( 282) = (  0.6666666  0.9333334  0.1252792  )
       283           N   tau( 283) = (  0.6666666  0.9333334  0.4586126  )
       284           N   tau( 284) = (  0.6666666  0.9333334  0.7919459  )
       285           N   tau( 285) = (  0.8666666  0.1333334  0.1252792  )
       286           N   tau( 286) = (  0.8666666  0.1333334  0.4586126  )
       287           N   tau( 287) = (  0.8666666  0.1333334  0.7919459  )
       288           N   tau( 288) = (  0.8666666  0.3333334  0.1252792  )
       289           N   tau( 289) = (  0.8666666  0.3333334  0.4586126  )
       290           N   tau( 290) = (  0.8666666  0.3333334  0.7919459  )
       291           N   tau( 291) = (  0.8666666  0.5333334  0.1252792  )
       292           N   tau( 292) = (  0.8666666  0.5333334  0.4586126  )
       293           N   tau( 293) = (  0.8666666  0.5333334  0.7919459  )
       294           N   tau( 294) = (  0.8666666  0.7333334  0.1252792  )
       295           N   tau( 295) = (  0.8666666  0.7333334  0.4586126  )
       296           N   tau( 296) = (  0.8666666  0.7333334  0.7919459  )
       297           N   tau( 297) = (  0.8666666  0.9333334  0.1252792  )
       298           N   tau( 298) = (  0.8666666  0.9333334  0.4586126  )
       299           N   tau( 299) = (  0.8666666  0.9333334  0.7919459  )
       300           N   tau( 300) = (  0.1333334  0.0666666  0.1663874  )

     number of k points=     6  Gaussian smearing, width (Ry)=  0.0100
                       cart. coord. in units 2pi/alat
        k(    1) = (   0.0000000   0.0000000   0.0000000), wk =   0.2500000
        k(    2) = (   0.0000000   0.0000000  -0.5112854), wk =   0.2500000
        k(    3) = (   0.0000000  -0.5773503   0.0000000), wk =   0.5000000
        k(    4) = (   0.0000000  -0.5773503  -0.5112854), wk =   0.5000000
        k(    5) = (  -0.5000000  -0.2886751   0.0000000), wk =   0.2500000
        k(    6) = (  -0.5000000  -0.2886751  -0.5112854), wk =   0.2500000

                       cryst. coord.
        k(    1) = (   0.0000000   0.0000000   0.0000000), wk =   0.2500000
        k(    2) = (   0.0000000   0.0000000  -0.5000000), wk =   0.2500000
        k(    3) = (   0.0000000  -0.5000000   0.0000000), wk =   0.5000000
        k(    4) = (   0.0000000  -0.5000000  -0.5000000), wk =   0.5000000
        k(    5) = (  -0.5000000  -0.0000000   0.0000000), wk =   0.2500000
        k(    6) = (  -0.5000000  -0.0000000  -0.5000000), wk =   0.2500000

     Dense  grid:  2698283 G-vectors     FFT dimensions: ( 192, 192, 180)

     Smooth grid:  1930731 G-vectors     FFT dimensions: ( 180, 180, 160)

     Dynamical RAM for                 wfc:      92.85 MB

     Dynamical RAM for     wfc (w. buffer):     278.54 MB

     Dynamical RAM for           str. fact:       1.29 MB

     Dynamical RAM for           local pot:       0.00 MB

     Dynamical RAM for          nlocal pot:     223.77 MB

     Dynamical RAM for                qrad:       3.00 MB

     Dynamical RAM for          rho,v,vnew:       4.46 MB

     Dynamical RAM for               rhoin:       1.49 MB

     Dynamical RAM for            rho*nmix:      10.29 MB

     Dynamical RAM for           G-vectors:       2.64 MB

     Dynamical RAM for          h,s,v(r/c):    1907.96 MB

     Dynamical RAM for          <psi|beta>:      95.80 MB

     Dynamical RAM for                 psi:     371.39 MB

     Dynamical RAM for                hpsi:     371.39 MB

     Dynamical RAM for                spsi:     371.39 MB

     Dynamical RAM for      wfcinit/wfcrot:     245.33 MB

     Dynamical RAM for           addusdens:      54.68 MB

     Dynamical RAM for          addusforce:     103.36 MB

     Dynamical RAM for         addusstress:      32.57 MB

     Estimated static dynamical RAM per process >     521.34 MB

     Estimated max dynamical RAM per process >       3.56 GB

     Estimated total dynamical RAM >     910.46 GB

     Atomic positions and unit cell read from directory:
     ./GaN.save/
     Atomic positions from file used, from input discarded
 

     Check: negative core charge=   -0.000003

     The initial density is read from file :
     ./GaN.save/charge-density



     %%%%%%%%%%%%%%%%%%%%%%%%%%%%%%%%%%%%%%%%%%%%%%%%%%%%%%%%%%%%%%%%%%%%%%%%
     %                                                                      %
     % You are using vdW-DF, which was implemented by the Thonhauser group. %
     % Please cite the following two papers that made this development      %
     % possible and the two reviews that describe the various versions:     %
     %                                                                      %
     %   T. Thonhauser et al., PRL 115, 136402 (2015).                      %
     %   T. Thonhauser et al., PRB 76, 125112 (2007).                       %
     %   K. Berland et al., Rep. Prog. Phys. 78, 066501 (2015).             %
     %   D.C. Langreth et al., J. Phys.: Condens. Matter 21, 084203 (2009). %
     %                                                                      %
     % If you are calculating stress with vdW-DF, please also cite:         %
     %                                                                      %
     %   R. Sabatini et al., J. Phys.: Condens. Matter 24, 424209 (2012).   %
     %                                                                      %
     %%%%%%%%%%%%%%%%%%%%%%%%%%%%%%%%%%%%%%%%%%%%%%%%%%%%%%%%%%%%%%%%%%%%%%%%

     %%%%%%%%%%%%%%%%%%%%%%%%%%%%%%%%%%%%%%%%%%%%%%%%%%%%%%%%%%%%%%%%%%%%%%%%
     %                                                                      %
     %  vdW-DF NEWS:                                                        %
     %                                                                      %
     %  * vdW-DF3 is now available. DOI: 10.1021/acs.jctc.0c00471           %
     %    use with input_dft = 'vdW-DF3-opt1' or 'vdW-DF3-opt2'             %
     %                                                                      %
     %  * Unscreened and range-separated vdW-DF hybrid functionals          %
     %    DOI: 10.1063/1.4986522 and 10.1088/1361-648X/ac2ad2               %
     %    use with input_dft = 'vdW-DF-cx0' (etc) and 'vdW-DF-ahcx'         %
     %                                                                      %
     %%%%%%%%%%%%%%%%%%%%%%%%%%%%%%%%%%%%%%%%%%%%%%%%%%%%%%%%%%%%%%%%%%%%%%%%


     Carrying out vdW-DF run using the following parameters:
     Nqs    =  20  Npoints =  1024  r_max =  100.000
     q_mesh =  0.00001000  0.04494208  0.09755937  0.15916263
               0.23128650  0.31572767  0.41458969  0.53033537
               0.66584808  0.82450364  1.01025438  1.22772762
               1.48234092  1.78043706  2.12944203  2.53805004
               3.01644009  3.57652955  4.23227104  5.00000000


     -----------------------------------------------
     Non-local corr. energy    =      81.33509942 Ry
     -----------------------------------------------

     Starting wfcs from file
     Checking if some PAW data can be deallocated... 
       PAW data deallocated on  151 nodes for type:  1
       PAW data deallocated on  105 nodes for type:  2
     Calculation restarted from scf iteration #     4

     total cpu time spent up to now is        9.6 secs

     Self-consistent Calculation

     iteration #  4     ecut=    70.00 Ry     beta= 0.70
     Calculation restarted from kpoint #     2
     Davidson diagonalization with overlap

---- Real-time Memory Report at c_bands before calling an iterative solver
           452 MiB given to the printing process from OS
             0 MiB allocation reported by mallinfo(arena+hblkhd)
       1923561 MiB available memory on the node where the printing process lives
------------------
     ethr =  2.90E-07,  avg # of iterations = 17.2


     -----------------------------------------------
     Non-local corr. energy    =      81.33511108 Ry
     -----------------------------------------------


     total cpu time spent up to now is     1212.6 secs

     total energy              =  -46589.98825578 Ry
     estimated scf accuracy    <       0.00116983 Ry

     iteration #  5     ecut=    70.00 Ry     beta= 0.70
     Davidson diagonalization with overlap

---- Real-time Memory Report at c_bands before calling an iterative solver
          2679 MiB given to the printing process from OS
             0 MiB allocation reported by mallinfo(arena+hblkhd)
       1890555 MiB available memory on the node where the printing process lives
------------------
     ethr =  4.35E-08,  avg # of iterations = 17.5


     -----------------------------------------------
     Non-local corr. energy    =      81.33510653 Ry
     -----------------------------------------------


     total cpu time spent up to now is     3091.6 secs

     total energy              =  -46589.98831614 Ry
     estimated scf accuracy    <       0.00071408 Ry

     iteration #  6     ecut=    70.00 Ry     beta= 0.70
     Davidson diagonalization with overlap

---- Real-time Memory Report at c_bands before calling an iterative solver
          2679 MiB given to the printing process from OS
             0 MiB allocation reported by mallinfo(arena+hblkhd)
       1870110 MiB available memory on the node where the printing process lives
------------------
     ethr =  2.65E-08,  avg # of iterations =  7.5


     -----------------------------------------------
     Non-local corr. energy    =      81.33508175 Ry
     -----------------------------------------------


     total cpu time spent up to now is     4390.2 secs

     total energy              =  -46589.98837779 Ry
     estimated scf accuracy    <       0.00048245 Ry

     iteration #  7     ecut=    70.00 Ry     beta= 0.70
     Davidson diagonalization with overlap

---- Real-time Memory Report at c_bands before calling an iterative solver
          2679 MiB given to the printing process from OS
             0 MiB allocation reported by mallinfo(arena+hblkhd)
       1869954 MiB available memory on the node where the printing process lives
------------------
     ethr =  1.79E-08,  avg # of iterations = 12.5


     -----------------------------------------------
     Non-local corr. energy    =      81.33510718 Ry
     -----------------------------------------------


     total cpu time spent up to now is     5787.9 secs

     total energy              =  -46589.98842067 Ry
     estimated scf accuracy    <       0.00015335 Ry

     iteration #  8     ecut=    70.00 Ry     beta= 0.70
     Davidson diagonalization with overlap

---- Real-time Memory Report at c_bands before calling an iterative solver
          2679 MiB given to the printing process from OS
             0 MiB allocation reported by mallinfo(arena+hblkhd)
       1869783 MiB available memory on the node where the printing process lives
------------------
     ethr =  5.70E-09,  avg # of iterations = 16.3


     -----------------------------------------------
     Non-local corr. energy    =      81.33514165 Ry
     -----------------------------------------------


     total cpu time spent up to now is     7698.3 secs

     total energy              =  -46589.98843054 Ry
     estimated scf accuracy    <       0.00004436 Ry

     iteration #  9     ecut=    70.00 Ry     beta= 0.70
     Davidson diagonalization with overlap

---- Real-time Memory Report at c_bands before calling an iterative solver
          2679 MiB given to the printing process from OS
             0 MiB allocation reported by mallinfo(arena+hblkhd)
       1869664 MiB available memory on the node where the printing process lives
------------------
     ethr =  1.65E-09,  avg # of iterations = 15.8


     -----------------------------------------------
     Non-local corr. energy    =      81.33516319 Ry
     -----------------------------------------------


     total cpu time spent up to now is     9396.1 secs

     total energy              =  -46589.98843325 Ry
     estimated scf accuracy    <       0.00001621 Ry

     iteration # 10     ecut=    70.00 Ry     beta= 0.70
     Davidson diagonalization with overlap

---- Real-time Memory Report at c_bands before calling an iterative solver
          2679 MiB given to the printing process from OS
             0 MiB allocation reported by mallinfo(arena+hblkhd)
       1869516 MiB available memory on the node where the printing process lives
------------------
     ethr =  6.03E-10,  avg # of iterations = 13.5


     -----------------------------------------------
     Non-local corr. energy    =      81.33516771 Ry
     -----------------------------------------------


     total cpu time spent up to now is    11092.7 secs

     total energy              =  -46589.98843471 Ry
     estimated scf accuracy    <       0.00000342 Ry

     iteration # 11     ecut=    70.00 Ry     beta= 0.70
     Davidson diagonalization with overlap

---- Real-time Memory Report at c_bands before calling an iterative solver
          2679 MiB given to the printing process from OS
             0 MiB allocation reported by mallinfo(arena+hblkhd)
       1869479 MiB available memory on the node where the printing process lives
------------------
     ethr =  1.27E-10,  avg # of iterations = 12.7


     -----------------------------------------------
     Non-local corr. energy    =      81.33516542 Ry
     -----------------------------------------------


     total cpu time spent up to now is    14062.1 secs

     total energy              =  -46589.98843552 Ry
     estimated scf accuracy    <       0.00000026 Ry

     iteration # 12     ecut=    70.00 Ry     beta= 0.70
     Davidson diagonalization with overlap

---- Real-time Memory Report at c_bands before calling an iterative solver
          3069 MiB given to the printing process from OS
             0 MiB allocation reported by mallinfo(arena+hblkhd)
       1868968 MiB available memory on the node where the printing process lives
------------------
     ethr =  9.51E-12,  avg # of iterations = 16.8


     -----------------------------------------------
     Non-local corr. energy    =      81.33517709 Ry
     -----------------------------------------------


     total cpu time spent up to now is    16672.9 secs

     End of self-consistent calculation

          k = 0.0000 0.0000 0.0000 (241213 PWs)   bands (ev):

   -12.8749  -7.2276  -7.2252  -7.0659  -6.8997  -6.8289  -6.8286  -6.7810
    -6.7143  -6.6882  -6.6880  -6.6602  -6.6534  -6.6526  -6.6485  -6.6184
    -6.6171  -6.6048  -6.6042  -6.5892  -6.5888  -6.5565  -6.5527  -6.5517
    -6.5494  -6.5409  -6.5402  -6.5267  -6.5262  -6.5227  -6.5025  -6.4959
    -6.4956  -6.4844  -6.4741  -6.4687  -6.4683  -6.4667  -6.4646  -6.4642
    -6.4612  -6.4599  -6.4504  -6.4418  -6.4414  -6.4310  -6.4307  -6.4230
    -6.4166  -6.4160  -6.4155  -6.4114  -6.4109  -6.4075  -6.4037  -6.4006
    -6.3946  -6.3939  -6.3920  -6.3915  -6.3868  -6.3819  -6.3790  -6.3772
    -6.3768  -6.3752  -6.3750  -6.3748  -6.3739  -6.3733  -6.3659  -6.3630
    -6.3614  -6.3611  -6.3604  -6.3582  -6.3581  -6.3567  -6.3528  -6.3526
    -6.3466  -6.3459  -6.3458  -6.3440  -6.3436  -6.3429  -6.3415  -6.3401
    -6.3399  -6.3373  -6.3357  -6.3352  -6.3324  -6.3320  -6.3311  -6.3276
    -6.3253  -6.3253  -6.3252  -6.3243  -6.3241  -6.3226  -6.3186  -6.3175
    -6.3170  -6.3164  -6.3154  -6.3145  -6.3114  -6.3113  -6.3103  -6.3099
    -6.3068  -6.3056  -6.3042  -6.3028  -6.3026  -6.2973  -6.2968  -6.2953
    -6.2948  -6.2942  -6.2939  -6.2937  -6.2873  -6.2871  -6.2840  -6.2832
    -6.2803  -6.2798  -6.2783  -6.2771  -6.2765  -6.2742  -6.2724  -6.2717
    -6.2703  -6.2672  -6.2670  -6.2663  -6.2660  -6.2641  -6.2633  -6.2626
    -6.2607  -6.2566  -6.2560  -6.2514  -6.2506  -6.0029  -5.7625  -5.7245
    -5.7244  -5.6965  -5.6893  -5.6892  -5.6857  -5.6779  -5.6779  -5.6729
    -5.6465  -5.6463  -5.6433  -5.6433  -5.6407  -5.6301  -5.6299  -5.6272
    -5.6238  -5.6237  -5.6191  -5.6092  -5.6090  -5.6088  -5.5916  -5.5814
    -5.5814  -5.5552  -5.5534  -5.5531  -5.5249  -5.5247  -5.5092  -5.5091
    -5.5045  -5.4985  -5.4814  -5.4811  -5.4755  -5.4705  -5.4703  -5.4381
    -5.4158  -5.4155  -5.3846  -5.3193  -5.3191  -5.3066  -5.3065  -5.2987
    -5.2980  -5.2980  -5.2947  -5.2942  -5.2942  -5.2905  -5.2903  -5.2902
    -5.2870  -5.2830  -5.2828  -5.2803  -5.2803  -5.2800  -5.2786  -5.2786
    -5.2776  -5.2721  -5.2713  -5.2713  -5.2695  -5.2678  -5.2662  -5.2662
    -5.2628  -5.2626  -5.2614  -5.2609  -5.2609  -5.2577  -5.2576  -5.2542
    -5.2535  -5.2498  -5.2498  -5.2498  -5.2491  -5.2487  -5.2475  -5.2473
    -5.2454  -5.2454  -5.2447  -5.2445  -5.2445  -5.2413  -5.2413  -5.2387
    -5.2387  -5.2365  -5.2348  -5.2347  -5.2341  -5.2329  -5.2329  -5.2322
    -5.2289  -5.2289  -5.2288  -5.2280  -5.2280  -5.2260  -5.2252  -5.2250
    -5.2243  -5.2225  -5.2224  -5.2209  -5.2208  -5.2197  -5.2197  -5.2190
    -5.2153  -5.2153  -5.2153  -5.2136  -5.2135  -5.2126  -5.2121  -5.2118
    -5.2078  -5.2072  -5.2072  -5.2055  -5.2054  -5.2044  -5.2037  -5.2037
    -5.2037  -5.2030  -5.2029  -5.1994  -5.1994  -5.1983  -5.1983  -5.1983
    -5.1974  -5.1972  -5.1946  -5.1941  -5.1938  -5.1938  -5.1931  -5.1930
    -5.1897  -5.1897  -5.1896  -5.1865  -5.1865  -5.1851  -5.1851  -5.1840
    -5.1835  -5.1824  -5.1824  -5.1818  -5.1810  -5.1809  -5.1798  -5.1793
    -5.1793  -5.1786  -5.1768  -5.1768  -5.1756  -5.1755  -5.1754  -5.1750
    -5.1750  -5.1721  -5.1721  -5.1709  -5.1705  -5.1699  -5.1699  -5.1691
    -5.1684  -5.1680  -5.1679  -5.1667  -5.1666  -5.1664  -5.1664  -5.1653
    -5.1653  -5.1653  -5.1649  -5.1630  -5.1618  -5.1618  -5.1610  -5.1601
    -5.1600  -5.1590  -5.1589  -5.1588  -5.1564  -5.1564  -5.1560  -5.1554
    -5.1553  -5.1552  -5.1551  -5.1547  -5.1547  -5.1532  -5.1532  -5.1530
    -5.1523  -5.1523  -5.1514  -5.1512  -5.1512  -5.1476  -5.1476  -5.1470
    -5.1468  -5.1468  -5.1465  -5.1465  -5.1455  -5.1448  -5.1448  -5.1446
    -5.1444  -5.1425  -5.1425  -5.1418  -5.1416  -5.1405  -5.1404  -5.1397
    -5.1396  -5.1387  -5.1383  -5.1374  -5.1374  -5.1371  -5.1371  -5.1357
    -5.1351  -5.1342  -5.1342  -5.1335  -5.1334  -5.1329  -5.1329  -5.1324
    -5.1323  -5.1303  -5.1303  -5.1296  -5.1296  -5.1279  -5.1278  -5.1268
    -5.1268  -5.1264  -5.1259  -5.1258  -5.1258  -5.1248  -5.1248  -5.1240
    -5.1227  -5.1227  -5.1208  -5.1208  -5.1205  -5.1198  -5.1195  -5.1177
    -5.1177  -5.1176  -5.1169  -5.1160  -5.1160  -5.1154  -5.1154  -5.1147
    -5.1143  -5.1143  -5.1140  -5.1125  -5.1121  -5.1121  -5.1113  -5.1106
    -5.1104  -5.1104  -5.1089  -5.1089  -5.1077  -5.1077  -5.1071  -5.1064
    -5.1064  -5.1061  -5.1044  -5.1044  -5.1043  -5.1021  -5.1021  -5.1016
    -5.1010  -5.1009  -5.1003  -5.1002  -5.0991  -5.0981  -5.0972  -5.0972
    -5.0957  -5.0956  -5.0956  -5.0950  -5.0941  -5.0940  -5.0929  -5.0924
    -5.0923  -5.0923  -5.0915  -5.0915  -5.0889  -5.0880  -5.0880  -5.0868
    -5.0868  -5.0863  -5.0853  -5.0853  -5.0852  -5.0852  -5.0844  -5.0826
    -5.0825  -5.0804  -5.0800  -5.0795  -5.0794  -5.0771  -5.0771  -5.0771
    -5.0754  -5.0754  -5.0741  -5.0741  -5.0728  -5.0727  -5.0727  -5.0722
    -5.0712  -5.0712  -5.0686  -5.0686  -5.0682  -5.0668  -5.0665  -5.0664
    -5.0664  -5.0627  -5.0619  -5.0619  -5.0612  -5.0610  -5.0595  -5.0594
    -5.0593  -5.0591  -5.0590  -5.0589  -5.0586  -5.0585  -5.0578  -5.0578
    -5.0570  -5.0569  -5.0563  -5.0560  -5.0540  -5.0539  -5.0539  -5.0523
    -5.0523  -5.0523  -5.0517  -5.0508  -5.0508  -5.0498  -5.0498  -5.0482
    -5.0482  -5.0470  -5.0461  -5.0461  -5.0453  -5.0445  -5.0445  -5.0437
    -5.0432  -5.0432  -5.0432  -5.0417  -5.0416  -5.0403  -5.0397  -5.0397
    -5.0382  -5.0382  -5.0374  -5.0372  -5.0368  -5.0364  -5.0364  -5.0353
    -5.0352  -5.0340  -5.0340  -5.0332  -5.0329  -5.0329  -5.0320  -5.0316
    -5.0316  -5.0308  -5.0307  -5.0290  -5.0290  -5.0280  -5.0280  -5.0266
    -5.0264  -5.0253  -5.0253  -5.0237  -5.0237  -5.0235  -5.0235  -5.0234
    -5.0225  -5.0218  -5.0216  -5.0216  -5.0206  -5.0206  -5.0196  -5.0196
    -5.0195  -5.0191  -5.0189  -5.0189  -5.0189  -5.0176  -5.0170  -5.0169
    -5.0164  -5.0164  -5.0164  -5.0149  -5.0138  -5.0138  -5.0132  -5.0122
    -5.0122  -5.0117  -5.0112  -5.0087  -5.0087  -5.0084  -5.0084  -5.0081
    -5.0073  -5.0073  -5.0066  -5.0066  -5.0053  -5.0051  -5.0051  -5.0048
    -5.0036  -5.0011  -5.0011  -4.9993  -4.9988  -4.9988  -4.9987  -4.9979
    -4.9979  -4.9977  -4.9971  -4.9970  -4.9955  -4.9952  -4.9952  -4.9938
    -4.9938  -4.9932  -4.9926  -4.9921  -4.9921  -4.9916  -4.9901  -4.9901
    -4.9897  -4.9896  -4.9875  -4.9875  -4.9866  -4.9866  -4.9865  -4.9865
    -4.9838  -4.9838  -4.9832  -4.9807  -4.9797  -4.9796  -4.9796  -4.9778
    -4.9778  -4.9774  -4.9766  -4.9763  -4.9763  -4.9756  -4.9756  -4.9728
    -4.9728  -4.9720  -4.9717  -4.9711  -4.9711  -4.9678  -4.9676  -4.9675
    -4.9673  -4.9673  -4.9659  -4.9659  -4.9659  -4.9649  -4.9648  -4.9641
    -4.9641  -4.9632  -4.9615  -4.9606  -4.9606  -4.9604  -4.9598  -4.9576
    -4.9575  -4.9554  -4.9544  -4.9543  -4.9521  -4.9521  -4.9520  -4.9513
    -4.9509  -4.9499  -4.9499  -4.9490  -4.9489  -4.9489  -4.9474  -4.9468
    -4.9467  -4.9447  -4.9447  -4.9426  -4.9425  -4.9385  -4.9384  -4.9383
    -4.9379  -4.9366  -4.9349  -4.9340  -4.9340  -4.9334  -4.9333  -4.9307
    -4.9307  -4.9306  -4.9268  -4.9268  -4.9217  -4.9217  -4.9215  -4.9153
    -4.9152  -4.9138  -4.9065  -4.9044  -4.9044  -4.8094  -4.7905  -4.7904
    -4.7671  -4.7671  -4.7551  -4.7551  -4.7528  -4.7527  -4.7450  -4.7385
    -4.6766  -4.3660  -4.3653  -4.3650  -4.3516  -4.3015  -4.3014  -4.2927
    -4.2517  -4.1243  -4.1105  -4.1102  -4.1057  -4.1055  -4.0939  -4.0936
    -4.0923  -4.0877  -4.0650  -4.0609  -4.0608  -4.0423  -4.0308  -4.0306
    -4.0146  -4.0145  -4.0120  -3.9773  -3.9773  -3.9552  -3.9486  -3.9483
    -3.9329  -3.9327  -3.9249  -3.9247  -3.9191  -3.9081  -3.8623  -3.8333
    -3.8330  -3.8180  -3.8163  -3.8111  -3.8109  -3.8033  -3.8030  -3.8004
    -3.7423  -3.7422  -3.6093  -3.5201  -3.4778  -3.4630  -3.4628  -3.4619
    -3.4342  -3.4341  -3.4231  -3.4119  -3.4118  -3.4072  -3.4069  -3.4062
    -3.3920  -3.3918  -3.3592  -3.3359  -3.3359  -3.3351  -3.3239  -3.3080
    -3.3078  -3.3012  -3.3012  -3.3003  -3.2889  -3.2888  -3.2791  -3.2770
    -3.2755  -3.2735  -3.2734  -3.2720  -3.2719  -3.2621  -3.2568  -3.2567
    -3.2526  -3.2525  -3.2496  -3.2461  -3.2459  -3.2343  -3.2341  -3.2121
    -3.1990  -3.1309  -3.1308  -3.1052  -3.0845  -3.0773  -3.0772  -3.0687
    -3.0584  -3.0583  -3.0409  -3.0409  -3.0317  -2.9643  -2.9639  -2.9501
    -2.9479  -2.9477  -2.9314  -2.9312  -2.9262  -2.9090  -2.9051  -2.9049
    -2.9001  -2.8901  -2.8900  -2.8790  -2.8768  -2.8766  -2.8268  -1.2677
     1.0465   1.0476   1.5086   2.1581   2.4522   2.4523   2.5106   2.5194
     2.5198   2.5836   2.5841   2.5983   2.6021   2.6026   2.6103   2.6104
     2.6190   2.6201   2.6226   2.6285   2.6286   2.6297   2.6328   2.6335
     2.6487   2.6596   2.6607   2.6608   2.6621   2.6622   2.6871   2.6876
     2.7362   2.7891   2.7897   2.8062   2.8143   2.8151   2.8246   2.8823
     2.9314   2.9402   2.9402   2.9481   2.9538   2.9541   2.9889   2.9889
     2.9916   2.9954   3.0012   3.0015   3.0083   3.0085   3.0256   3.0420
     3.0425   3.1039   3.1088   3.1089   3.1242   3.1323   3.1327   3.2258
     3.2259   3.2285   3.2350   3.2352   3.2418   3.2483   3.2484   3.2500
     3.2517   3.2711   3.2712   3.2760   3.2788   3.2792   3.2822   3.2966
     3.2972   3.3013   3.3071   3.3075   3.3115   3.3843   3.3844   3.5331
     3.6165   3.6494   3.6679   3.6680   3.6920   3.6921   3.6964   3.7045
     3.7045   3.7139   3.7142   3.7190   3.7341   3.7344   3.7427   3.7505
     3.7513   3.7515   3.8520   3.9083   3.9151   3.9155   3.9412   3.9415
     3.9478   3.9700   3.9769   3.9772   3.9802   3.9804   3.9808   3.9949
     3.9951   4.0230   4.0540   4.0544   4.1356   4.4724   4.4995   4.4996
     4.5099   4.5373   4.5380   4.5570   4.5868   4.5869   4.5957   4.5959
     4.6094   4.6281   4.6319   4.6325   4.6541   4.6543   4.6841   4.7150
     4.7152   4.7274   4.7489   4.7489   4.9514   4.9515   4.9797   4.9880
     4.9881   5.0104   5.0129   5.0166   5.0168   5.0218   5.0499   5.1002
     5.1003   5.2477   5.4314   5.4315   5.4437   5.4437   5.4619   5.4661
     5.4711   5.4711   5.4866   5.4866   5.4880   5.4881   5.5064   5.5191
     5.5234   5.5236   5.5284   5.6621   5.6631   5.6634   5.6830   5.6961
     5.6961   5.7640   5.8341   5.8342   5.8385   5.8385   5.8626   5.8630
     5.8859   5.8904   5.9029   5.9030   5.9128   5.9129   5.9176   5.9280
     5.9369   5.9371   5.9578   5.9579   5.9732   5.9733   5.9801   5.9805
     5.9865   5.9946   5.9950   6.0010   6.0010   6.0031   6.0043   6.0045
     6.0081   6.0087   6.0125   6.0126   6.0181   6.0183   6.0213   6.0257
     6.0274   6.0275   6.0407   6.0408   6.0534   6.0543   6.0556   6.0559
     6.0652   6.0653   6.0663   6.0969   6.1295   6.1297   6.2165   6.2690
     6.2924   6.2979   6.2983   6.3233   6.3236   6.3248   6.3361   6.3362
     6.3519   6.3570   6.3571   6.3641   6.3641   6.3669   6.4035   6.4037
     6.4186   6.4382   6.4761   6.4763   6.4815   6.4873   6.4874   6.4941
     6.5239   6.5241   6.5391   6.5575   6.5578   6.5607   6.5880   6.6132
     6.6133   6.6173   6.6247   6.6320   6.6345   6.6347   6.6413   6.6482
     6.6483   6.6647   6.6684   6.6686   6.6732   6.6734   6.6839   6.6845
     6.6854   6.6876   6.6879   6.6923   6.6923   6.6932   6.7369   6.7370
     6.7584   6.7869   6.8142   6.8145   6.8387   6.8387   6.8468   6.8615
     6.8629   6.8631   6.8641   6.8814   6.8815   6.9169   6.9850   6.9855
     7.0291   7.0292   7.0808   7.1104   7.1106   7.1114   7.1200   7.1202
     7.1211   7.1483   7.1806   7.2198   7.2198   7.2513   7.2518   7.2675
     7.2948   7.2949   7.3031   7.3087   7.3107   7.3108   7.3140   7.3141
     7.3483   7.3484   7.3574   7.3744   7.3745   7.3823   7.3852   7.3852
     7.3888   7.3919   7.3984   7.3992   7.3994   7.4035   7.4036   7.4070
     7.4086   7.4088   7.4150   7.4154   7.4192   7.4209   7.4213   7.4228
     7.4282   7.4292   7.4425   7.4425   7.4525   7.4548   7.4570   7.4667
     7.4715   7.4718   7.4720   7.4730   7.4731   7.4749   7.4755   7.5084
     7.5226   7.5252   7.5252   7.5453   7.5457   7.5599   7.6015   7.6018
     7.6060   7.6273   7.6274   7.6452   7.6453   7.6480   7.6545   7.6725
     7.6725   7.6816   7.6898   7.6898   7.6916   7.7159   7.7159   7.7322
     7.7323   7.7411   7.7411   7.7459   7.7463   7.7490   7.7561   7.8408
     7.8410   7.8775   7.9068   7.9070   7.9163   7.9442   7.9444   7.9522
     8.0084   8.0085   8.0393   8.0394   8.0541   8.0541   8.0586   8.0675
     8.0829   8.0833   8.0865   8.0964   8.0967   8.0978   8.2880   8.2880
     8.3418   8.3420   8.3667   8.3864   8.3867   8.4229   8.4362   8.4365
     8.4513   8.4858   8.4859   8.5176   8.5177   8.5916   8.7679   8.7679
     8.7788   9.4644  10.2068  11.5293  11.8444  11.8453  12.0034  12.1359
    12.1360  12.1378  12.2200  12.3264  12.4431  12.4435  12.7110  12.8144
    12.8319  12.8320  12.8443  12.8655  12.8661  12.8842  12.9114  12.9118
    12.9192  12.9246  12.9253  12.9286  12.9317  12.9383  12.9384  12.9701
    12.9702  12.9854  12.9855  12.9859  13.0094  13.0796  13.2523  13.2528
    13.3729  13.5592  13.5593  13.6069  13.6074  13.6155  13.6603  13.7043
    13.7047  13.7089  13.7381  13.7386  13.8178  13.8448  13.8461  13.8461
    13.8560  13.8565  13.8776  13.8776  13.8779  13.8990  13.9045  13.9050
    13.9062  13.9062  13.9064  13.9135  13.9442  13.9454  13.9455  13.9648
    13.9650  13.9754  13.9999  14.0004  14.0047  14.0131  14.0131  14.0223
    14.0279  14.0314  14.0319  14.0347  14.0348  14.0504  14.0694  14.0695
    14.0874  14.0878  14.1018  14.1185  14.1188  14.1208  14.1273  14.1402
    14.1407  14.1540  14.1694  14.1694  14.1974  14.1977  14.2106  14.2281
    14.2289  14.2291  14.2555  14.2556  14.2595  14.3573  14.4075  14.4077
    14.4917  14.5137  14.5435  14.5436  14.6204  14.7119  14.7123  14.7746
    14.7748  14.8140  14.8144  14.8462  14.8491  14.9079  14.9119  14.9127
    14.9130  14.9399  14.9516  14.9520  15.0137  15.0139  15.0328  15.0541
    15.0543  15.0843  15.0846  15.0849  15.1025  15.1029  15.1248  15.1408
    15.1415  15.1505  15.1523  15.1527  15.1786  15.1787  15.1906  15.2863
    15.3048  15.3052  15.3259  15.3262  15.3407  15.3725  15.4152  15.4559
    15.4560  15.5477  15.6042  15.6050  15.7100  15.7104  15.7307  15.7461
    15.7484  15.7491  15.7848  15.7849  15.8001  15.8710  15.8889  15.8891
    15.9073  15.9073  15.9436  15.9524  15.9560  15.9561  15.9592  15.9771
[...]
N            12.9782667948        3.7461636344        9.9199099159
N            12.9820801070        3.7439127433       15.2120562712
N            11.3552752512        6.5559697523        4.6281973843
N            11.3564098518        6.5566248142        9.9179782950
N            11.3555882654        6.5561504711       15.2098301407
N             9.7333955508        9.3687773160        4.6326850373
N             9.7334075453        9.3664247181        9.9199099159
N             9.7333648725        9.3708525889       15.2120562712
N             8.1230057869       12.1904317280        4.6400658654
N             8.1041833621       12.1702164452        9.9288204463
N             8.1201309603       12.1890330337       15.2186985869
N             0.4040517634        1.6405121593        2.0099822506
N            -0.0104368491        1.8789937116        7.3066082082
N            -0.0106650059        1.8794648877       12.5503887751
N            -1.5709782079        4.6197067766        1.9925695818
N            -1.6209353042        4.6839787289        7.2735487894
N            -1.6241896224        4.6843232295       12.5702795326
N            -3.2417988283        7.4945537629        1.9888888268
N            -3.2441504482        7.4931960545        7.2685607433
N            -3.2443464205        7.4930829098       12.5685892627
N            -4.8960790401       10.3789503583        1.9925695818
N            -4.8653964448       10.3035502677        7.2735487894
N            -4.8667252577       10.3005596952       12.5702795326
N            -6.4886222757       13.5789737955        2.0099822506
N            -6.4893354994       13.1007753513        7.3066082082
N            -6.4890415273       13.1003421737       12.5503887751
N             2.8409969224        1.6402530168        2.0098837833
N             3.2543680527        1.8789129501        7.3071537882
N             3.2550517881        1.8793077050       12.5506812067
N             1.6229356221        4.6963746283        1.9760134454
N             1.6221483973        4.6829106852        7.2865195329
N             1.6222252171        4.6846199330       12.5715731227
N             0.0004024654        7.4890888349        1.9857726648
N            -0.0003338527        7.4923772438        7.2750066174
N            -0.0019263911        7.4919863138       12.5664950939
N            -1.6254309479       10.3051149113        1.9857726648
N            -1.6229512613       10.3028330367        7.2750066174
N            -1.6240860858       10.3016493230       12.5664950939
N            -3.2327258179       13.1066269469        1.9760134454
N            -3.2447795471       13.1126771619        7.2865195329
N            -3.2432608851       13.1118890658       12.5715731227
N             6.4095250894        1.8612674250        1.9929112181
N             6.4890908556        1.8714576533        7.2736811380
N             6.4909866863        1.8740381052       12.5704684501
N             4.8166650981        4.6201818596        1.9929112181
N             4.8652729777        4.6839927202        7.2736811380
N             4.8684556299        4.6843443318       12.5704684501
N             3.2450610970        7.4894565877        1.9855328630
N             3.2445781373        7.4924649765        7.2748309662
N             3.2463180441        7.4921811995       12.5662888759
N             1.6224618057       10.3029359493        1.9870923193
N             1.6221785647       10.3027724201        7.2739477942
N             1.6222202718       10.3027964997       12.5638225601
N            -0.0027831488       13.1148878366        1.9855328630
N            -0.0004192876       13.1129653869        7.2748309662
N             0.0002049078       13.1146140789       12.5662888759
N             9.7343663409        1.8704214281        1.9890373655
N             9.7332123103        1.8723770541        7.2688195288
N             9.7332856847        1.8726649144       12.5687017517
N             8.0974582816        4.6750723976        1.9886214689
N             8.1103432533        4.6825115395        7.2732897385
N             8.1108490194        4.6828035437       12.5639163950
N             6.4870133230        7.4950018454        1.9890373655
N             6.4881299294        7.4930246127        7.2688195288
N             6.4884159109        7.4929442266       12.5687017517
N             4.8703013902       10.3048835476        1.9854835873
N             4.8669955745       10.3027198034        7.2748236846
N             4.8681721408       10.3017133989       12.5662192417
N             3.2480682675       13.1146737379        1.9854835873
N             3.2445415023       13.1128926896        7.2748236846
N             3.2442582135       13.1144148282       12.5662192417
N            13.0592031175        1.8609164281        1.9924560420
N            12.9776897309        1.8713271922        7.2740204527
N            12.9761364205        1.8740279707       12.5706394656
N            11.3703310568        4.6749551058        1.9887679702
N            11.3564283610        4.6825380744        7.2732696846
N            11.3557499272        4.6829439842       12.5639341629
N             9.7337930915        7.5095220104        1.9887679702
N             9.7334087870        7.4936904383        7.2732696846
N             9.7334210984        7.4928999425       12.5639341629
N             8.1412001398       10.3791474574        1.9924560420
N             8.1094594327       10.3033494118        7.2740204527
N             8.1110217204       10.3006538163       12.5706394656
N             6.4782199793       13.1064092381        1.9759542542
N             6.4887473716       13.1124872309        7.2862569477
N             6.4878793392       13.1119860721       12.5717627086
N             1.6228527771        0.9369530168        2.2292353713



     Writing config-only to output data dir ./GaN.save/
     NEW-OLD atomic charge density approx. for the potential

     Check: negative core charge=   -0.000003


     -----------------------------------------------
     Non-local corr. energy    =      81.33541525 Ry
     -----------------------------------------------


     total cpu time spent up to now is   130711.5 secs

     Self-consistent Calculation

     iteration #  1     ecut=    70.00 Ry     beta= 0.70
     Davidson diagonalization with overlap

---- Real-time Memory Report at c_bands before calling an iterative solver
          3513 MiB given to the printing process from OS
             0 MiB allocation reported by mallinfo(arena+hblkhd)
       1876483 MiB available memory on the node where the printing process lives
------------------
     ethr =  1.00E-06,  avg # of iterations =  3.0


     -----------------------------------------------
     Non-local corr. energy    =      81.33501641 Ry
     -----------------------------------------------


     total cpu time spent up to now is   131392.1 secs

     total energy              =  -46589.98865626 Ry
     estimated scf accuracy    <       0.00482279 Ry

     iteration #  2     ecut=    70.00 Ry     beta= 0.70
     Davidson diagonalization with overlap

---- Real-time Memory Report at c_bands before calling an iterative solver
          3513 MiB given to the printing process from OS
             0 MiB allocation reported by mallinfo(arena+hblkhd)
       1885141 MiB available memory on the node where the printing process lives
------------------
     ethr =  1.79E-07,  avg # of iterations = 15.8


     -----------------------------------------------
     Non-local corr. energy    =      81.33523455 Ry
     -----------------------------------------------


     total cpu time spent up to now is   134177.9 secs

     total energy              =  -46589.98891390 Ry
     estimated scf accuracy    <       0.00325440 Ry

     iteration #  3     ecut=    70.00 Ry     beta= 0.70
     Davidson diagonalization with overlap

---- Real-time Memory Report at c_bands before calling an iterative solver
          3513 MiB given to the printing process from OS
             0 MiB allocation reported by mallinfo(arena+hblkhd)
       1866639 MiB available memory on the node where the printing process lives
------------------
     ethr =  1.21E-07,  avg # of iterations = 17.0


     -----------------------------------------------
     Non-local corr. energy    =      81.33519489 Ry
     -----------------------------------------------


     total cpu time spent up to now is   137182.5 secs

     total energy              =  -46589.98833520 Ry
     estimated scf accuracy    <       0.02021655 Ry

     iteration #  4     ecut=    70.00 Ry     beta= 0.70
     Davidson diagonalization with overlap

---- Real-time Memory Report at c_bands before calling an iterative solver
          3513 MiB given to the printing process from OS
             0 MiB allocation reported by mallinfo(arena+hblkhd)
       1866620 MiB available memory on the node where the printing process lives
------------------
     ethr =  1.21E-07,  avg # of iterations = 14.8


     -----------------------------------------------
     Non-local corr. energy    =      81.33517748 Ry
     -----------------------------------------------


     total cpu time spent up to now is   139159.6 secs

     total energy              =  -46589.99006392 Ry
     estimated scf accuracy    <       0.00066986 Ry

     iteration #  5     ecut=    70.00 Ry     beta= 0.70
     Davidson diagonalization with overlap

---- Real-time Memory Report at c_bands before calling an iterative solver
          3513 MiB given to the printing process from OS
             0 MiB allocation reported by mallinfo(arena+hblkhd)
       1866591 MiB available memory on the node where the printing process lives
------------------
     ethr =  2.49E-08,  avg # of iterations = 16.8


     -----------------------------------------------
     Non-local corr. energy    =      81.33520392 Ry
     -----------------------------------------------


     total cpu time spent up to now is   141017.6 secs

     total energy              =  -46589.99013796 Ry
     estimated scf accuracy    <       0.00035982 Ry

     iteration #  6     ecut=    70.00 Ry     beta= 0.70
     Davidson diagonalization with overlap

---- Real-time Memory Report at c_bands before calling an iterative solver
          3513 MiB given to the printing process from OS
             0 MiB allocation reported by mallinfo(arena+hblkhd)
       1866520 MiB available memory on the node where the printing process lives
------------------
     ethr =  1.34E-08,  avg # of iterations =  2.7


     -----------------------------------------------
     Non-local corr. energy    =      81.33525090 Ry
     -----------------------------------------------


     total cpu time spent up to now is   141416.7 secs

     total energy              =  -46589.99018886 Ry
     estimated scf accuracy    <       0.00022886 Ry

     iteration #  7     ecut=    70.00 Ry     beta= 0.70
     Davidson diagonalization with overlap

---- Real-time Memory Report at c_bands before calling an iterative solver
          3513 MiB given to the printing process from OS
             0 MiB allocation reported by mallinfo(arena+hblkhd)
       1866455 MiB available memory on the node where the printing process lives
------------------
     ethr =  8.51E-09,  avg # of iterations = 11.5


     -----------------------------------------------
     Non-local corr. energy    =      81.33529449 Ry
     -----------------------------------------------


     total cpu time spent up to now is   142807.9 secs

     total energy              =  -46589.99020773 Ry
     estimated scf accuracy    <       0.00006130 Ry

     iteration #  8     ecut=    70.00 Ry     beta= 0.70
     Davidson diagonalization with overlap

---- Real-time Memory Report at c_bands before calling an iterative solver
          3513 MiB given to the printing process from OS
             0 MiB allocation reported by mallinfo(arena+hblkhd)
       1863587 MiB available memory on the node where the printing process lives
------------------
     ethr =  2.28E-09,  avg # of iterations = 15.3


     -----------------------------------------------
     Non-local corr. energy    =      81.33529486 Ry
     -----------------------------------------------


     total cpu time spent up to now is   144565.0 secs

     total energy              =  -46589.99021061 Ry
     estimated scf accuracy    <       0.00000685 Ry

     iteration #  9     ecut=    70.00 Ry     beta= 0.70
     Davidson diagonalization with overlap

---- Real-time Memory Report at c_bands before calling an iterative solver
          3513 MiB given to the printing process from OS
             0 MiB allocation reported by mallinfo(arena+hblkhd)
       1866214 MiB available memory on the node where the printing process lives
------------------
     ethr =  2.55E-10,  avg # of iterations = 14.5


     -----------------------------------------------
     Non-local corr. energy    =      81.33529444 Ry
     -----------------------------------------------


     total cpu time spent up to now is   147773.4 secs

     total energy              =  -46589.99021237 Ry
     estimated scf accuracy    <       0.00000152 Ry

     iteration # 10     ecut=    70.00 Ry     beta= 0.70
     Davidson diagonalization with overlap

---- Real-time Memory Report at c_bands before calling an iterative solver
          3513 MiB given to the printing process from OS
             0 MiB allocation reported by mallinfo(arena+hblkhd)
       1866085 MiB available memory on the node where the printing process lives
------------------
     ethr =  5.63E-11,  avg # of iterations = 16.2


     -----------------------------------------------
     Non-local corr. energy    =      81.33529639 Ry
     -----------------------------------------------


     total cpu time spent up to now is   149531.0 secs

     total energy              =  -46589.99021243 Ry
     estimated scf accuracy    <       0.00000021 Ry

     iteration # 11     ecut=    70.00 Ry     beta= 0.70
     Davidson diagonalization with overlap

---- Real-time Memory Report at c_bands before calling an iterative solver
          3513 MiB given to the printing process from OS
             0 MiB allocation reported by mallinfo(arena+hblkhd)
       1866065 MiB available memory on the node where the printing process lives
------------------
     ethr =  7.67E-12,  avg # of iterations = 15.7


     -----------------------------------------------
     Non-local corr. energy    =      81.33530214 Ry
     -----------------------------------------------


     total cpu time spent up to now is   151796.1 secs

     total energy              =  -46589.99021246 Ry
     estimated scf accuracy    <       0.00000007 Ry

     iteration # 12     ecut=    70.00 Ry     beta= 0.70
     Davidson diagonalization with overlap

---- Real-time Memory Report at c_bands before calling an iterative solver
          3513 MiB given to the printing process from OS
             0 MiB allocation reported by mallinfo(arena+hblkhd)
       1865998 MiB available memory on the node where the printing process lives
------------------
     ethr =  2.45E-12,  avg # of iterations = 16.2


     -----------------------------------------------
     Non-local corr. energy    =      81.33530611 Ry
     -----------------------------------------------


     total cpu time spent up to now is   154093.0 secs

     total energy              =  -46589.99021247 Ry
     estimated scf accuracy    <          6.7E-09 Ry

     iteration # 13     ecut=    70.00 Ry     beta= 0.70
     Davidson diagonalization with overlap

---- Real-time Memory Report at c_bands before calling an iterative solver
          3513 MiB given to the printing process from OS
             0 MiB allocation reported by mallinfo(arena+hblkhd)
       1866031 MiB available memory on the node where the printing process lives
------------------

     Maximum CPU time exceeded

     max_seconds     =  154800.00
     elapsed seconds =  155232.44
     Calculation stopped in k-point loop, point #     1
     Calculation stopped in scf loop at iteration #    12

     Writing config to output data dir ./GaN.save/
 
     init_run     :      7.42s CPU      7.89s WALL (       1 calls)
     electrons    : 147398.86s CPU 148756.92s WALL (       6 calls)
     update_pot   :     15.06s CPU     15.35s WALL (       5 calls)
     forces       :    327.28s CPU    332.54s WALL (       5 calls)
     stress       :   6336.24s CPU   6402.34s WALL (       5 calls)

     Called by init_run:
     wfcinit      :      0.68s CPU      0.77s WALL (       1 calls)
     potinit      :      1.75s CPU      1.90s WALL (       1 calls)
     hinit0       :      1.41s CPU      1.50s WALL (       1 calls)

     Called by electrons:
     c_bands      : 145571.54s CPU 146905.25s WALL (      77 calls)
     sum_band     :   1669.86s CPU   1690.93s WALL (      76 calls)
     v_of_rho     :     77.34s CPU     80.66s WALL (      82 calls)
     v_h          :      0.75s CPU      0.76s WALL (      82 calls)
     v_xc         :     86.10s CPU     89.96s WALL (      92 calls)
     newd         :     17.25s CPU     17.55s WALL (      82 calls)
     PAW_pot      :     50.24s CPU     50.68s WALL (      87 calls)
     mix_rho      :      4.26s CPU      4.55s WALL (      76 calls)
     vdW_kernel   :      0.16s CPU      0.17s WALL (       1 calls)

     Called by c_bands:
     init_us_2    :     79.13s CPU     80.18s WALL (     334 calls)
     init_us_2:cp :     79.13s CPU     80.17s WALL (     334 calls)
     cegterg      : 110229.65s CPU 111314.50s WALL (     152 calls)

     Called by sum_band:
     sum_band:wei :      0.49s CPU      0.50s WALL (      76 calls)
     sum_band:loo :   1643.38s CPU   1657.32s WALL (      76 calls)
     sum_band:buf :     18.68s CPU     18.94s WALL (     152 calls)
     sum_band:ini :     39.17s CPU     39.66s WALL (     152 calls)
     sum_band:cal :   1184.50s CPU   1193.24s WALL (     162 calls)
     sum_band:bec :      9.75s CPU      9.88s WALL (     162 calls)
     addusdens    :     15.32s CPU     15.80s WALL (      76 calls)
     addusd:skk   :      3.11s CPU      3.22s WALL (     152 calls)
     addusd:dgemm :      7.38s CPU      7.69s WALL (     152 calls)
     addusd:qvan2 :      1.82s CPU      1.85s WALL (     152 calls)

     Called by *egterg:
     cdiaghg      :  90582.25s CPU  91178.78s WALL (    1938 calls)
     cegterg:over :   3865.67s CPU   3968.66s WALL (    1796 calls)
     cegterg:upda :   2418.74s CPU   2457.90s WALL (    1796 calls)
     cegterg:last :   1199.41s CPU   1208.88s WALL (     154 calls)
     h_psi        :   8130.48s CPU   8255.07s WALL (    1948 calls)
     s_psi        :   2886.09s CPU   2932.14s WALL (    1948 calls)
     g_psi        :      8.10s CPU      8.20s WALL (    1796 calls)

     Called by h_psi:
     h_psi:calbec :   3049.49s CPU   3072.38s WALL (    1948 calls)
     vloc_psi     :   2156.11s CPU   2180.12s WALL (    1948 calls)
     add_vuspsi   :   2891.13s CPU   2941.91s WALL (    1948 calls)

     General routines
     calbec       :   4791.44s CPU   4827.37s WALL (    2160 calls)
     fft          :     38.66s CPU     39.19s WALL (    6006 calls)
     ffts         :      1.99s CPU      2.00s WALL (     158 calls)
     fftw         :   2414.27s CPU   2441.71s WALL ( 1549310 calls)
     interpolate  :      1.11s CPU      1.12s WALL (      82 calls)
     davcio       :      0.00s CPU      0.96s WALL (      28 calls)
 
     Parallel routines

     PAW routines
     PAW_pot      :     50.24s CPU     50.68s WALL (      87 calls)
     PAW_symme    :      0.55s CPU      0.57s WALL (     162 calls)
 
     PWSCF        :   1d18h49m CPU   1d19h13m WALL

 
   This run was terminated on:   2:14:58  26Apr2024            

=------------------------------------------------------------------------------=
   JOB DONE.
=------------------------------------------------------------------------------=
