
     Program PWSCF v.7.1 starts on  2May2024 at 13:16:27 

     This program is part of the open-source Quantum ESPRESSO suite
     for quantum simulation of materials; please cite
         "P. Giannozzi et al., J. Phys.:Condens. Matter 21 395502 (2009);
         "P. Giannozzi et al., J. Phys.:Condens. Matter 29 465901 (2017);
         "P. Giannozzi et al., J. Chem. Phys. 152 154105 (2020);
          URL http://www.quantum-espresso.org", 
     in publications or presentations arising from this work. More details at
     http://www.quantum-espresso.org/quote

     Parallel version (MPI & OpenMP), running on     256 processor cores
     Number of MPI processes:               256
     Threads/MPI process:                     1

     MPI processes distributed on     2 nodes
     1977587 MiB available memory on the printing compute node when the environment starts
 
     Reading input from espresso.pwi
Warning: card &CELL ignored
Warning: card    CELL_DYNAMICS    = 'BFGS' ignored
Warning: card / ignored

     Current dimensions of program PWSCF are:
     Max number of different atomic species (ntypx) = 10
     Max number of k-points (npk) =  40000
     Max angular momentum in pseudopotentials (lmaxx) =  4
     file Ga.pbe-dn-kjpaw_psl.1.0.0.UPF: wavefunction(s)  4S renormalized
     file N.pbe-n-kjpaw_psl.1.0.0.UPF: wavefunction(s)  2S renormalized

     **************************************************************************
     Initializing libbeef V0.1.2 with the BEEF-vdW functional.
     Citation: Wellendorff et al., PRB 85, 235149 (2012).
     **************************************************************************


     IMPORTANT: XC functional enforced from input :
     Exchange-correlation= BEEF-VDW
                           (   1   4  43  14   2   0   0)
     Any further DFT definition will be discarded
     Please, verify this is what you really want

 
     K-points division:     npool     =       4
     R & G space division:  proc/nbgrp/npool/nimage =      64
     Subspace diagonalization in iterative solution of the eigenvalue problem:
     a serial algorithm will be used

 
     Parallelization info
     --------------------
     sticks:   dense  smooth     PW     G-vecs:    dense   smooth      PW
     Min         354     283     73                42160    30167    3987
     Max         356     285     74                42163    30170    3996
     Sum       22693   18145   4705              2698283  1930731  255309
 
     Using Slab Decomposition
 


     bravais-lattice index     =            4
     lattice parameter (alat)  =      30.6565  a.u.
     unit-cell volume          =   24400.9461 (a.u.)^3
     number of atoms/cell      =          300
     number of atomic types    =            2
     number of electrons       =      2690.00
     number of Kohn-Sham states=         1614
     kinetic-energy cutoff     =      70.0000  Ry
     charge density cutoff     =     350.0000  Ry
     scf convergence threshold =      1.0E-07
     mixing beta               =       0.7000
     number of iterations used =            8  plain     mixing
     Exchange-correlation= BEEF-VDW
                           (   1   4  43  14   2   0   0)

     celldm(1)=  30.656540  celldm(2)=   0.000000  celldm(3)=   0.977927
     celldm(4)=   0.000000  celldm(5)=   0.000000  celldm(6)=   0.000000

     crystal axes: (cart. coord. in units of alat)
               a(1) = (   1.000000   0.000000   0.000000 )  
               a(2) = (  -0.500000   0.866025   0.000000 )  
               a(3) = (   0.000000   0.000000   0.977927 )  

     reciprocal axes: (cart. coord. in units 2 pi/alat)
               b(1) = (  1.000000  0.577350 -0.000000 )  
               b(2) = (  0.000000  1.154701  0.000000 )  
               b(3) = (  0.000000 -0.000000  1.022571 )  


     PseudoPot. # 1 for Ga read from file:
     //group///packages/espresso/pseudo/psl_1.0.0/pslibrary.1.0.0/pbe/PSEUDOPOTENTIALS/Ga.pbe-dn-kjpaw_psl.1.0.0.UPF
     MD5 check sum: cd2a01e492f15b435d17032472d8505c
     Pseudo is Projector augmented-wave + core cor, Zval = 13.0
     Generated using 'atomic' code by A. Dal Corso  v.7.1
     Shape of augmentation charge: PSQ
     Using radial grid of 1205 points,  6 beta functions with: 
                l(1) =   0
                l(2) =   0
                l(3) =   1
                l(4) =   1
                l(5) =   2
                l(6) =   2
     Q(r) pseudized with 0 coefficients 


     PseudoPot. # 2 for N  read from file:
     //group///packages/espresso/pseudo/psl_1.0.0/pslibrary.1.0.0/pbe/PSEUDOPOTENTIALS/N.pbe-n-kjpaw_psl.1.0.0.UPF
     MD5 check sum: f77f775694dac7e2c3fe1c82443d1a16
     Pseudo is Projector augmented-wave + core cor, Zval =  5.0
     Generated using 'atomic' code by A. Dal Corso  v.7.1
     Shape of augmentation charge: PSQ
     Using radial grid of 1085 points,  4 beta functions with: 
                l(1) =   0
                l(2) =   0
                l(3) =   1
                l(4) =   1
     Q(r) pseudized with 0 coefficients 


     atomic species   valence    mass     pseudopotential
        Ga            13.00    69.72300     Ga( 1.00)
        N              5.00    14.00700     N ( 1.00)

      2 Sym. Ops. (no inversion) found


                                    s                        frac. trans.

      isym =  1     identity                                     

 cryst.   s( 1) = (     1          0          0      )
                  (     0          1          0      )
                  (     0          0          1      )

 cart.    s( 1) = (  1.0000000  0.0000000  0.0000000 )
                  (  0.0000000  1.0000000  0.0000000 )
                  (  0.0000000  0.0000000  1.0000000 )


      isym =  2     inv. 180 deg rotation - cryst. axis [0,1,0]  

 cryst.   s( 2) = (     1          1          0      )
                  (     0         -1          0      )
                  (     0          0          1      )

 cart.    s( 2) = (  0.5000000  0.8660254  0.0000000 )
                  (  0.8660254 -0.5000000  0.0000000 )
                  (  0.0000000  0.0000000  1.0000000 )


     point group C_s (m)    
     there are  2 classes
     the character table:

       E     s    
A'     1.00  1.00
A''    1.00 -1.00

     the symmetry operations in each class and the name of the first element:

     E        1
          identity                                               
     s        2
          inv. 180 deg rotation - cryst. axis [0,1,0]            

   Cartesian axes

     site n.     atom                  positions (alat units)
         1           Ga  tau(   1) = (   0.1000001   0.0577350   0.4886906  )
         2           Ga  tau(   2) = (   0.1000001   0.0577350   0.8146665  )
         3           Ga  tau(   3) = (   0.0000001   0.2309401   0.1627148  )
         4           Ga  tau(   4) = (   0.0000001   0.2309401   0.4886906  )
         5           Ga  tau(   5) = (   0.0000001   0.2309401   0.8146665  )
         6           Ga  tau(   6) = (  -0.0999999   0.4041451   0.1627148  )
         7           Ga  tau(   7) = (  -0.0999999   0.4041451   0.4886906  )
         8           Ga  tau(   8) = (  -0.0999999   0.4041451   0.8146665  )
         9           Ga  tau(   9) = (  -0.1999999   0.5773502   0.1627148  )
        10           Ga  tau(  10) = (  -0.1999999   0.5773502   0.4886906  )
        11           Ga  tau(  11) = (  -0.1999999   0.5773502   0.8146665  )
        12           Ga  tau(  12) = (  -0.2999999   0.7505553   0.1627148  )
        13           Ga  tau(  13) = (  -0.2999999   0.7505553   0.4886906  )
        14           Ga  tau(  14) = (  -0.2999999   0.7505553   0.8146665  )
        15           Ga  tau(  15) = (   0.3000001   0.0577350   0.1627148  )
        16           Ga  tau(  16) = (   0.3000001   0.0577350   0.4886906  )
        17           Ga  tau(  17) = (   0.3000001   0.0577350   0.8146665  )
        18           Ga  tau(  18) = (   0.2000001   0.2309401   0.1627148  )
        19           Ga  tau(  19) = (   0.2000001   0.2309401   0.4886906  )
        20           Ga  tau(  20) = (   0.2000001   0.2309401   0.8146665  )
        21           Ga  tau(  21) = (   0.1000001   0.4041451   0.1627148  )
        22           Ga  tau(  22) = (   0.1000001   0.4041451   0.4886906  )
        23           Ga  tau(  23) = (   0.1000001   0.4041451   0.8146665  )
        24           Ga  tau(  24) = (   0.0000001   0.5773502   0.1627148  )
        25           Ga  tau(  25) = (   0.0000001   0.5773502   0.4886906  )
        26           Ga  tau(  26) = (   0.0000001   0.5773502   0.8146665  )
        27           Ga  tau(  27) = (  -0.0999999   0.7505553   0.1627148  )
        28           Ga  tau(  28) = (  -0.0999999   0.7505553   0.4886906  )
        29           Ga  tau(  29) = (  -0.0999999   0.7505553   0.8146665  )
        30           Ga  tau(  30) = (   0.5000001   0.0577350   0.1627148  )
        31           Ga  tau(  31) = (   0.5000001   0.0577350   0.4886906  )
        32           Ga  tau(  32) = (   0.5000001   0.0577350   0.8146665  )
        33           Ga  tau(  33) = (   0.4000001   0.2309401   0.1627148  )
        34           Ga  tau(  34) = (   0.4000001   0.2309401   0.4886906  )
        35           Ga  tau(  35) = (   0.4000001   0.2309401   0.8146665  )
        36           Ga  tau(  36) = (   0.3000001   0.4041451   0.1627148  )
        37           Ga  tau(  37) = (   0.3000001   0.4041451   0.4886906  )
        38           Ga  tau(  38) = (   0.3000001   0.4041451   0.8146665  )
        39           Ga  tau(  39) = (   0.2000001   0.5773502   0.1627148  )
        40           Ga  tau(  40) = (   0.2000001   0.5773502   0.4886906  )
        41           Ga  tau(  41) = (   0.2000001   0.5773502   0.8146665  )
        42           Ga  tau(  42) = (   0.1000001   0.7505553   0.1627148  )
        43           Ga  tau(  43) = (   0.1000001   0.7505553   0.4886906  )
        44           Ga  tau(  44) = (   0.1000001   0.7505553   0.8146665  )
        45           Ga  tau(  45) = (   0.7000001   0.0577350   0.1627148  )
        46           Ga  tau(  46) = (   0.7000001   0.0577350   0.4886906  )
        47           Ga  tau(  47) = (   0.7000001   0.0577350   0.8146665  )
        48           Ga  tau(  48) = (   0.6000001   0.2309401   0.1627148  )
        49           Ga  tau(  49) = (   0.6000001   0.2309401   0.4886906  )
        50           Ga  tau(  50) = (   0.6000001   0.2309401   0.8146665  )
        51           Ga  tau(  51) = (   0.5000001   0.4041451   0.1627148  )
        52           Ga  tau(  52) = (   0.5000001   0.4041451   0.4886906  )
        53           Ga  tau(  53) = (   0.5000001   0.4041451   0.8146665  )
        54           Ga  tau(  54) = (   0.4000001   0.5773502   0.1627148  )
        55           Ga  tau(  55) = (   0.4000001   0.5773502   0.4886906  )
        56           Ga  tau(  56) = (   0.4000001   0.5773502   0.8146665  )
        57           Ga  tau(  57) = (   0.3000001   0.7505553   0.1627148  )
        58           Ga  tau(  58) = (   0.3000001   0.7505553   0.4886906  )
        59           Ga  tau(  59) = (   0.3000001   0.7505553   0.8146665  )
        60           Ga  tau(  60) = (   0.9000001   0.0577350   0.1627148  )
        61           Ga  tau(  61) = (   0.9000001   0.0577350   0.4886906  )
        62           Ga  tau(  62) = (   0.9000001   0.0577350   0.8146665  )
        63           Ga  tau(  63) = (   0.8000001   0.2309401   0.1627148  )
        64           Ga  tau(  64) = (   0.8000001   0.2309401   0.4886906  )
        65           Ga  tau(  65) = (   0.8000001   0.2309401   0.8146665  )
        66           Ga  tau(  66) = (   0.7000001   0.4041451   0.1627148  )
        67           Ga  tau(  67) = (   0.7000001   0.4041451   0.4886906  )
        68           Ga  tau(  68) = (   0.7000001   0.4041451   0.8146665  )
        69           Ga  tau(  69) = (   0.6000001   0.5773502   0.1627148  )
        70           Ga  tau(  70) = (   0.6000001   0.5773502   0.4886906  )
        71           Ga  tau(  71) = (   0.6000001   0.5773502   0.8146665  )
        72           Ga  tau(  72) = (   0.5000001   0.7505553   0.1627148  )
        73           Ga  tau(  73) = (   0.5000001   0.7505553   0.4886906  )
        74           Ga  tau(  74) = (   0.5000001   0.7505553   0.8146665  )
        75           Ga  tau(  75) = (  -0.0000001   0.1154701   0.3257027  )
        76           Ga  tau(  76) = (  -0.0000001   0.1154701   0.6516786  )
        77           Ga  tau(  77) = (  -0.0000001   0.1154701   0.9776544  )
        78           Ga  tau(  78) = (  -0.1000001   0.2886752   0.3257027  )
        79           Ga  tau(  79) = (  -0.1000001   0.2886752   0.6516786  )
        80           Ga  tau(  80) = (  -0.1000001   0.2886752   0.9776544  )
        81           Ga  tau(  81) = (  -0.2000001   0.4618803   0.3257027  )
        82           Ga  tau(  82) = (  -0.2000001   0.4618803   0.6516786  )
        83           Ga  tau(  83) = (  -0.2000001   0.4618803   0.9776544  )
        84           Ga  tau(  84) = (  -0.3000001   0.6350854   0.3257027  )
        85           Ga  tau(  85) = (  -0.3000001   0.6350854   0.6516786  )
        86           Ga  tau(  86) = (  -0.3000001   0.6350854   0.9776544  )
        87           Ga  tau(  87) = (  -0.4000001   0.8082905   0.3257027  )
        88           Ga  tau(  88) = (  -0.4000001   0.8082905   0.6516786  )
        89           Ga  tau(  89) = (  -0.4000001   0.8082905   0.9776544  )
        90           Ga  tau(  90) = (   0.1999999   0.1154701   0.3257027  )
        91           Ga  tau(  91) = (   0.1999999   0.1154701   0.6516786  )
        92           Ga  tau(  92) = (   0.1999999   0.1154701   0.9776544  )
        93           Ga  tau(  93) = (   0.0999999   0.2886752   0.3257027  )
        94           Ga  tau(  94) = (   0.0999999   0.2886752   0.6516786  )
        95           Ga  tau(  95) = (   0.0999999   0.2886752   0.9776544  )
        96           Ga  tau(  96) = (  -0.0000001   0.4618803   0.3257027  )
        97           Ga  tau(  97) = (  -0.0000001   0.4618803   0.6516786  )
        98           Ga  tau(  98) = (  -0.0000001   0.4618803   0.9776544  )
        99           Ga  tau(  99) = (  -0.1000001   0.6350854   0.3257027  )
       100           Ga  tau( 100) = (  -0.1000001   0.6350854   0.6516786  )
       101           Ga  tau( 101) = (  -0.1000001   0.6350854   0.9776544  )
       102           Ga  tau( 102) = (  -0.2000001   0.8082905   0.3257027  )
       103           Ga  tau( 103) = (  -0.2000001   0.8082905   0.6516786  )
       104           Ga  tau( 104) = (  -0.2000001   0.8082905   0.9776544  )
       105           Ga  tau( 105) = (   0.3999999   0.1154701   0.3257027  )
       106           Ga  tau( 106) = (   0.3999999   0.1154701   0.6516786  )
       107           Ga  tau( 107) = (   0.3999999   0.1154701   0.9776544  )
       108           Ga  tau( 108) = (   0.2999999   0.2886752   0.3257027  )
       109           Ga  tau( 109) = (   0.2999999   0.2886752   0.6516786  )
       110           Ga  tau( 110) = (   0.2999999   0.2886752   0.9776544  )
       111           Ga  tau( 111) = (   0.1999999   0.4618803   0.3257027  )
       112           Ga  tau( 112) = (   0.1999999   0.4618803   0.6516786  )
       113           Ga  tau( 113) = (   0.1999999   0.4618803   0.9776544  )
       114           Ga  tau( 114) = (   0.0999999   0.6350854   0.3257027  )
       115           Ga  tau( 115) = (   0.0999999   0.6350854   0.6516786  )
       116           Ga  tau( 116) = (   0.0999999   0.6350854   0.9776544  )
       117           Ga  tau( 117) = (  -0.0000001   0.8082905   0.3257027  )
       118           Ga  tau( 118) = (  -0.0000001   0.8082905   0.6516786  )
       119           Ga  tau( 119) = (  -0.0000001   0.8082905   0.9776544  )
       120           Ga  tau( 120) = (   0.5999999   0.1154701   0.3257027  )
       121           Ga  tau( 121) = (   0.5999999   0.1154701   0.6516786  )
       122           Ga  tau( 122) = (   0.5999999   0.1154701   0.9776544  )
       123           Ga  tau( 123) = (   0.4999999   0.2886752   0.3257027  )
       124           Ga  tau( 124) = (   0.4999999   0.2886752   0.6516786  )
       125           Ga  tau( 125) = (   0.4999999   0.2886752   0.9776544  )
       126           Ga  tau( 126) = (   0.3999999   0.4618803   0.3257027  )
       127           Ga  tau( 127) = (   0.3999999   0.4618803   0.6516786  )
       128           Ga  tau( 128) = (   0.3999999   0.4618803   0.9776544  )
       129           Ga  tau( 129) = (   0.2999999   0.6350854   0.3257027  )
       130           Ga  tau( 130) = (   0.2999999   0.6350854   0.6516786  )
       131           Ga  tau( 131) = (   0.2999999   0.6350854   0.9776544  )
       132           Ga  tau( 132) = (   0.1999999   0.8082905   0.3257027  )
       133           Ga  tau( 133) = (   0.1999999   0.8082905   0.6516786  )
       134           Ga  tau( 134) = (   0.1999999   0.8082905   0.9776544  )
       135           Ga  tau( 135) = (   0.7999999   0.1154701   0.3257027  )
       136           Ga  tau( 136) = (   0.7999999   0.1154701   0.6516786  )
       137           Ga  tau( 137) = (   0.7999999   0.1154701   0.9776544  )
       138           Ga  tau( 138) = (   0.6999999   0.2886752   0.3257027  )
       139           Ga  tau( 139) = (   0.6999999   0.2886752   0.6516786  )
       140           Ga  tau( 140) = (   0.6999999   0.2886752   0.9776544  )
       141           Ga  tau( 141) = (   0.5999999   0.4618803   0.3257027  )
       142           Ga  tau( 142) = (   0.5999999   0.4618803   0.6516786  )
       143           Ga  tau( 143) = (   0.5999999   0.4618803   0.9776544  )
       144           Ga  tau( 144) = (   0.4999999   0.6350854   0.3257027  )
       145           Ga  tau( 145) = (   0.4999999   0.6350854   0.6516786  )
       146           Ga  tau( 146) = (   0.4999999   0.6350854   0.9776544  )
       147           Ga  tau( 147) = (   0.3999999   0.8082905   0.3257027  )
       148           Ga  tau( 148) = (   0.3999999   0.8082905   0.6516786  )
       149           Ga  tau( 149) = (   0.3999999   0.8082905   0.9776544  )
       150           N   tau( 150) = (   0.1000001   0.0577350   0.2855019  )
       151           N   tau( 151) = (   0.1000001   0.0577350   0.6114777  )
       152           N   tau( 152) = (   0.1000001   0.0577350   0.9374535  )
       153           N   tau( 153) = (   0.0000001   0.2309401   0.2855019  )
       154           N   tau( 154) = (   0.0000001   0.2309401   0.6114777  )
       155           N   tau( 155) = (   0.0000001   0.2309401   0.9374535  )
       156           N   tau( 156) = (  -0.0999999   0.4041451   0.2855019  )
       157           N   tau( 157) = (  -0.0999999   0.4041451   0.6114777  )
       158           N   tau( 158) = (  -0.0999999   0.4041451   0.9374535  )
       159           N   tau( 159) = (  -0.1999999   0.5773502   0.2855019  )
       160           N   tau( 160) = (  -0.1999999   0.5773502   0.6114777  )
       161           N   tau( 161) = (  -0.1999999   0.5773502   0.9374535  )
       162           N   tau( 162) = (  -0.2999999   0.7505553   0.2855019  )
       163           N   tau( 163) = (  -0.2999999   0.7505553   0.6114777  )
       164           N   tau( 164) = (  -0.2999999   0.7505553   0.9374535  )
       165           N   tau( 165) = (   0.3000001   0.0577350   0.2855019  )
       166           N   tau( 166) = (   0.3000001   0.0577350   0.6114777  )
       167           N   tau( 167) = (   0.3000001   0.0577350   0.9374535  )
       168           N   tau( 168) = (   0.2000001   0.2309401   0.2855019  )
       169           N   tau( 169) = (   0.2000001   0.2309401   0.6114777  )
       170           N   tau( 170) = (   0.2000001   0.2309401   0.9374535  )
       171           N   tau( 171) = (   0.1000001   0.4041451   0.2855019  )
       172           N   tau( 172) = (   0.1000001   0.4041451   0.6114777  )
       173           N   tau( 173) = (   0.1000001   0.4041451   0.9374535  )
       174           N   tau( 174) = (   0.0000001   0.5773502   0.2855019  )
       175           N   tau( 175) = (   0.0000001   0.5773502   0.6114777  )
       176           N   tau( 176) = (   0.0000001   0.5773502   0.9374535  )
       177           N   tau( 177) = (  -0.0999999   0.7505553   0.2855019  )
       178           N   tau( 178) = (  -0.0999999   0.7505553   0.6114777  )
       179           N   tau( 179) = (  -0.0999999   0.7505553   0.9374535  )
       180           N   tau( 180) = (   0.5000001   0.0577350   0.2855019  )
       181           N   tau( 181) = (   0.5000001   0.0577350   0.6114777  )
       182           N   tau( 182) = (   0.5000001   0.0577350   0.9374535  )
       183           N   tau( 183) = (   0.4000001   0.2309401   0.2855019  )
       184           N   tau( 184) = (   0.4000001   0.2309401   0.6114777  )
       185           N   tau( 185) = (   0.4000001   0.2309401   0.9374535  )
       186           N   tau( 186) = (   0.3000001   0.4041451   0.2855019  )
       187           N   tau( 187) = (   0.3000001   0.4041451   0.6114777  )
       188           N   tau( 188) = (   0.3000001   0.4041451   0.9374535  )
       189           N   tau( 189) = (   0.2000001   0.5773502   0.2855019  )
       190           N   tau( 190) = (   0.2000001   0.5773502   0.6114777  )
       191           N   tau( 191) = (   0.2000001   0.5773502   0.9374535  )
       192           N   tau( 192) = (   0.1000001   0.7505553   0.2855019  )
       193           N   tau( 193) = (   0.1000001   0.7505553   0.6114777  )
       194           N   tau( 194) = (   0.1000001   0.7505553   0.9374535  )
       195           N   tau( 195) = (   0.7000001   0.0577350   0.2855019  )
       196           N   tau( 196) = (   0.7000001   0.0577350   0.6114777  )
       197           N   tau( 197) = (   0.7000001   0.0577350   0.9374535  )
       198           N   tau( 198) = (   0.6000001   0.2309401   0.2855019  )
       199           N   tau( 199) = (   0.6000001   0.2309401   0.6114777  )
       200           N   tau( 200) = (   0.6000001   0.2309401   0.9374535  )
       201           N   tau( 201) = (   0.5000001   0.4041451   0.2855019  )
       202           N   tau( 202) = (   0.5000001   0.4041451   0.6114777  )
       203           N   tau( 203) = (   0.5000001   0.4041451   0.9374535  )
       204           N   tau( 204) = (   0.4000001   0.5773502   0.2855019  )
       205           N   tau( 205) = (   0.4000001   0.5773502   0.6114777  )
       206           N   tau( 206) = (   0.4000001   0.5773502   0.9374535  )
       207           N   tau( 207) = (   0.3000001   0.7505553   0.2855019  )
       208           N   tau( 208) = (   0.3000001   0.7505553   0.6114777  )
       209           N   tau( 209) = (   0.3000001   0.7505553   0.9374535  )
       210           N   tau( 210) = (   0.9000001   0.0577350   0.2855019  )
       211           N   tau( 211) = (   0.9000001   0.0577350   0.6114777  )
       212           N   tau( 212) = (   0.9000001   0.0577350   0.9374535  )
       213           N   tau( 213) = (   0.8000001   0.2309401   0.2855019  )
       214           N   tau( 214) = (   0.8000001   0.2309401   0.6114777  )
       215           N   tau( 215) = (   0.8000001   0.2309401   0.9374535  )
       216           N   tau( 216) = (   0.7000001   0.4041451   0.2855019  )
       217           N   tau( 217) = (   0.7000001   0.4041451   0.6114777  )
       218           N   tau( 218) = (   0.7000001   0.4041451   0.9374535  )
       219           N   tau( 219) = (   0.6000001   0.5773502   0.2855019  )
       220           N   tau( 220) = (   0.6000001   0.5773502   0.6114777  )
       221           N   tau( 221) = (   0.6000001   0.5773502   0.9374535  )
       222           N   tau( 222) = (   0.5000001   0.7505553   0.2855019  )
       223           N   tau( 223) = (   0.5000001   0.7505553   0.6114777  )
       224           N   tau( 224) = (   0.5000001   0.7505553   0.9374535  )
       225           N   tau( 225) = (  -0.0000001   0.1154701   0.1225140  )
       226           N   tau( 226) = (  -0.0000001   0.1154701   0.4484898  )
       227           N   tau( 227) = (  -0.0000001   0.1154701   0.7744656  )
       228           N   tau( 228) = (  -0.1000001   0.2886752   0.1225140  )
       229           N   tau( 229) = (  -0.1000001   0.2886752   0.4484898  )
       230           N   tau( 230) = (  -0.1000001   0.2886752   0.7744656  )
       231           N   tau( 231) = (  -0.2000001   0.4618803   0.1225140  )
       232           N   tau( 232) = (  -0.2000001   0.4618803   0.4484898  )
       233           N   tau( 233) = (  -0.2000001   0.4618803   0.7744656  )
       234           N   tau( 234) = (  -0.3000001   0.6350854   0.1225140  )
       235           N   tau( 235) = (  -0.3000001   0.6350854   0.4484898  )
       236           N   tau( 236) = (  -0.3000001   0.6350854   0.7744656  )
       237           N   tau( 237) = (  -0.4000001   0.8082905   0.1225140  )
       238           N   tau( 238) = (  -0.4000001   0.8082905   0.4484898  )
       239           N   tau( 239) = (  -0.4000001   0.8082905   0.7744656  )
       240           N   tau( 240) = (   0.1999999   0.1154701   0.1225140  )
       241           N   tau( 241) = (   0.1999999   0.1154701   0.4484898  )
       242           N   tau( 242) = (   0.1999999   0.1154701   0.7744656  )
       243           N   tau( 243) = (   0.0999999   0.2886752   0.1225140  )
       244           N   tau( 244) = (   0.0999999   0.2886752   0.4484898  )
       245           N   tau( 245) = (   0.0999999   0.2886752   0.7744656  )
       246           N   tau( 246) = (  -0.0000001   0.4618803   0.1225140  )
       247           N   tau( 247) = (  -0.0000001   0.4618803   0.4484898  )
       248           N   tau( 248) = (  -0.0000001   0.4618803   0.7744656  )
       249           N   tau( 249) = (  -0.1000001   0.6350854   0.1225140  )
       250           N   tau( 250) = (  -0.1000001   0.6350854   0.4484898  )
       251           N   tau( 251) = (  -0.1000001   0.6350854   0.7744656  )
       252           N   tau( 252) = (  -0.2000001   0.8082905   0.1225140  )
       253           N   tau( 253) = (  -0.2000001   0.8082905   0.4484898  )
       254           N   tau( 254) = (  -0.2000001   0.8082905   0.7744656  )
       255           N   tau( 255) = (   0.3999999   0.1154701   0.1225140  )
       256           N   tau( 256) = (   0.3999999   0.1154701   0.4484898  )
       257           N   tau( 257) = (   0.3999999   0.1154701   0.7744656  )
       258           N   tau( 258) = (   0.2999999   0.2886752   0.1225140  )
       259           N   tau( 259) = (   0.2999999   0.2886752   0.4484898  )
       260           N   tau( 260) = (   0.2999999   0.2886752   0.7744656  )
       261           N   tau( 261) = (   0.1999999   0.4618803   0.1225140  )
       262           N   tau( 262) = (   0.1999999   0.4618803   0.4484898  )
       263           N   tau( 263) = (   0.1999999   0.4618803   0.7744656  )
       264           N   tau( 264) = (   0.0999999   0.6350854   0.1225140  )
       265           N   tau( 265) = (   0.0999999   0.6350854   0.4484898  )
       266           N   tau( 266) = (   0.0999999   0.6350854   0.7744656  )
       267           N   tau( 267) = (  -0.0000001   0.8082905   0.1225140  )
       268           N   tau( 268) = (  -0.0000001   0.8082905   0.4484898  )
       269           N   tau( 269) = (  -0.0000001   0.8082905   0.7744656  )
       270           N   tau( 270) = (   0.5999999   0.1154701   0.1225140  )
       271           N   tau( 271) = (   0.5999999   0.1154701   0.4484898  )
       272           N   tau( 272) = (   0.5999999   0.1154701   0.7744656  )
       273           N   tau( 273) = (   0.4999999   0.2886752   0.1225140  )
       274           N   tau( 274) = (   0.4999999   0.2886752   0.4484898  )
       275           N   tau( 275) = (   0.4999999   0.2886752   0.7744656  )
       276           N   tau( 276) = (   0.3999999   0.4618803   0.1225140  )
       277           N   tau( 277) = (   0.3999999   0.4618803   0.4484898  )
       278           N   tau( 278) = (   0.3999999   0.4618803   0.7744656  )
       279           N   tau( 279) = (   0.2999999   0.6350854   0.1225140  )
       280           N   tau( 280) = (   0.2999999   0.6350854   0.4484898  )
       281           N   tau( 281) = (   0.2999999   0.6350854   0.7744656  )
       282           N   tau( 282) = (   0.1999999   0.8082905   0.1225140  )
       283           N   tau( 283) = (   0.1999999   0.8082905   0.4484898  )
       284           N   tau( 284) = (   0.1999999   0.8082905   0.7744656  )
       285           N   tau( 285) = (   0.7999999   0.1154701   0.1225140  )
       286           N   tau( 286) = (   0.7999999   0.1154701   0.4484898  )
       287           N   tau( 287) = (   0.7999999   0.1154701   0.7744656  )
       288           N   tau( 288) = (   0.6999999   0.2886752   0.1225140  )
       289           N   tau( 289) = (   0.6999999   0.2886752   0.4484898  )
       290           N   tau( 290) = (   0.6999999   0.2886752   0.7744656  )
       291           N   tau( 291) = (   0.5999999   0.4618803   0.1225140  )
       292           N   tau( 292) = (   0.5999999   0.4618803   0.4484898  )
       293           N   tau( 293) = (   0.5999999   0.4618803   0.7744656  )
       294           N   tau( 294) = (   0.4999999   0.6350854   0.1225140  )
       295           N   tau( 295) = (   0.4999999   0.6350854   0.4484898  )
       296           N   tau( 296) = (   0.4999999   0.6350854   0.7744656  )
       297           N   tau( 297) = (   0.3999999   0.8082905   0.1225140  )
       298           N   tau( 298) = (   0.3999999   0.8082905   0.4484898  )
       299           N   tau( 299) = (   0.3999999   0.8082905   0.7744656  )
       300           N   tau( 300) = (   0.1000001   0.0577350   0.1627148  )

   Crystallographic axes

     site n.     atom                  positions (cryst. coord.)
         1           Ga  tau(   1) = (  0.1333334  0.0666666  0.4997208  )
         2           Ga  tau(   2) = (  0.1333334  0.0666666  0.8330541  )
         3           Ga  tau(   3) = (  0.1333334  0.2666666  0.1663874  )
         4           Ga  tau(   4) = (  0.1333334  0.2666666  0.4997208  )
         5           Ga  tau(   5) = (  0.1333334  0.2666666  0.8330541  )
         6           Ga  tau(   6) = (  0.1333334  0.4666666  0.1663874  )
         7           Ga  tau(   7) = (  0.1333334  0.4666666  0.4997208  )
         8           Ga  tau(   8) = (  0.1333334  0.4666666  0.8330541  )
         9           Ga  tau(   9) = (  0.1333334  0.6666666  0.1663874  )
        10           Ga  tau(  10) = (  0.1333334  0.6666666  0.4997208  )
        11           Ga  tau(  11) = (  0.1333334  0.6666666  0.8330541  )
        12           Ga  tau(  12) = (  0.1333334  0.8666666  0.1663874  )
        13           Ga  tau(  13) = (  0.1333334  0.8666666  0.4997208  )
        14           Ga  tau(  14) = (  0.1333334  0.8666666  0.8330541  )
        15           Ga  tau(  15) = (  0.3333334  0.0666666  0.1663874  )
        16           Ga  tau(  16) = (  0.3333334  0.0666666  0.4997208  )
        17           Ga  tau(  17) = (  0.3333334  0.0666666  0.8330541  )
        18           Ga  tau(  18) = (  0.3333334  0.2666666  0.1663874  )
        19           Ga  tau(  19) = (  0.3333334  0.2666666  0.4997208  )
        20           Ga  tau(  20) = (  0.3333334  0.2666666  0.8330541  )
        21           Ga  tau(  21) = (  0.3333334  0.4666666  0.1663874  )
        22           Ga  tau(  22) = (  0.3333334  0.4666666  0.4997208  )
        23           Ga  tau(  23) = (  0.3333334  0.4666666  0.8330541  )
        24           Ga  tau(  24) = (  0.3333334  0.6666666  0.1663874  )
        25           Ga  tau(  25) = (  0.3333334  0.6666666  0.4997208  )
        26           Ga  tau(  26) = (  0.3333334  0.6666666  0.8330541  )
        27           Ga  tau(  27) = (  0.3333334  0.8666666  0.1663874  )
        28           Ga  tau(  28) = (  0.3333334  0.8666666  0.4997208  )
        29           Ga  tau(  29) = (  0.3333334  0.8666666  0.8330541  )
        30           Ga  tau(  30) = (  0.5333334  0.0666666  0.1663874  )
        31           Ga  tau(  31) = (  0.5333334  0.0666666  0.4997208  )
        32           Ga  tau(  32) = (  0.5333334  0.0666666  0.8330541  )
        33           Ga  tau(  33) = (  0.5333334  0.2666666  0.1663874  )
        34           Ga  tau(  34) = (  0.5333334  0.2666666  0.4997208  )
        35           Ga  tau(  35) = (  0.5333334  0.2666666  0.8330541  )
        36           Ga  tau(  36) = (  0.5333334  0.4666666  0.1663874  )
        37           Ga  tau(  37) = (  0.5333334  0.4666666  0.4997208  )
        38           Ga  tau(  38) = (  0.5333334  0.4666666  0.8330541  )
        39           Ga  tau(  39) = (  0.5333334  0.6666666  0.1663874  )
        40           Ga  tau(  40) = (  0.5333334  0.6666666  0.4997208  )
        41           Ga  tau(  41) = (  0.5333334  0.6666666  0.8330541  )
        42           Ga  tau(  42) = (  0.5333334  0.8666666  0.1663874  )
        43           Ga  tau(  43) = (  0.5333334  0.8666666  0.4997208  )
        44           Ga  tau(  44) = (  0.5333334  0.8666666  0.8330541  )
        45           Ga  tau(  45) = (  0.7333334  0.0666666  0.1663874  )
        46           Ga  tau(  46) = (  0.7333334  0.0666666  0.4997208  )
        47           Ga  tau(  47) = (  0.7333334  0.0666666  0.8330541  )
        48           Ga  tau(  48) = (  0.7333334  0.2666666  0.1663874  )
        49           Ga  tau(  49) = (  0.7333334  0.2666666  0.4997208  )
        50           Ga  tau(  50) = (  0.7333334  0.2666666  0.8330541  )
        51           Ga  tau(  51) = (  0.7333334  0.4666666  0.1663874  )
        52           Ga  tau(  52) = (  0.7333334  0.4666666  0.4997208  )
        53           Ga  tau(  53) = (  0.7333334  0.4666666  0.8330541  )
        54           Ga  tau(  54) = (  0.7333334  0.6666666  0.1663874  )
        55           Ga  tau(  55) = (  0.7333334  0.6666666  0.4997208  )
        56           Ga  tau(  56) = (  0.7333334  0.6666666  0.8330541  )
        57           Ga  tau(  57) = (  0.7333334  0.8666666  0.1663874  )
        58           Ga  tau(  58) = (  0.7333334  0.8666666  0.4997208  )
        59           Ga  tau(  59) = (  0.7333334  0.8666666  0.8330541  )
        60           Ga  tau(  60) = (  0.9333334  0.0666666  0.1663874  )
        61           Ga  tau(  61) = (  0.9333334  0.0666666  0.4997208  )
        62           Ga  tau(  62) = (  0.9333334  0.0666666  0.8330541  )
        63           Ga  tau(  63) = (  0.9333334  0.2666666  0.1663874  )
        64           Ga  tau(  64) = (  0.9333334  0.2666666  0.4997208  )
        65           Ga  tau(  65) = (  0.9333334  0.2666666  0.8330541  )
        66           Ga  tau(  66) = (  0.9333334  0.4666666  0.1663874  )
        67           Ga  tau(  67) = (  0.9333334  0.4666666  0.4997208  )
        68           Ga  tau(  68) = (  0.9333334  0.4666666  0.8330541  )
        69           Ga  tau(  69) = (  0.9333334  0.6666666  0.1663874  )
        70           Ga  tau(  70) = (  0.9333334  0.6666666  0.4997208  )
        71           Ga  tau(  71) = (  0.9333334  0.6666666  0.8330541  )
        72           Ga  tau(  72) = (  0.9333334  0.8666666  0.1663874  )
        73           Ga  tau(  73) = (  0.9333334  0.8666666  0.4997208  )
        74           Ga  tau(  74) = (  0.9333334  0.8666666  0.8330541  )
        75           Ga  tau(  75) = (  0.0666666  0.1333334  0.3330541  )
        76           Ga  tau(  76) = (  0.0666666  0.1333334  0.6663874  )
        77           Ga  tau(  77) = (  0.0666666  0.1333334  0.9997208  )
        78           Ga  tau(  78) = (  0.0666666  0.3333334  0.3330541  )
        79           Ga  tau(  79) = (  0.0666666  0.3333334  0.6663874  )
        80           Ga  tau(  80) = (  0.0666666  0.3333334  0.9997208  )
        81           Ga  tau(  81) = (  0.0666666  0.5333334  0.3330541  )
        82           Ga  tau(  82) = (  0.0666666  0.5333334  0.6663874  )
        83           Ga  tau(  83) = (  0.0666666  0.5333334  0.9997208  )
        84           Ga  tau(  84) = (  0.0666666  0.7333334  0.3330541  )
        85           Ga  tau(  85) = (  0.0666666  0.7333334  0.6663874  )
        86           Ga  tau(  86) = (  0.0666666  0.7333334  0.9997208  )
        87           Ga  tau(  87) = (  0.0666666  0.9333334  0.3330541  )
        88           Ga  tau(  88) = (  0.0666666  0.9333334  0.6663874  )
        89           Ga  tau(  89) = (  0.0666666  0.9333334  0.9997208  )
        90           Ga  tau(  90) = (  0.2666666  0.1333334  0.3330541  )
        91           Ga  tau(  91) = (  0.2666666  0.1333334  0.6663874  )
        92           Ga  tau(  92) = (  0.2666666  0.1333334  0.9997208  )
        93           Ga  tau(  93) = (  0.2666666  0.3333334  0.3330541  )
        94           Ga  tau(  94) = (  0.2666666  0.3333334  0.6663874  )
        95           Ga  tau(  95) = (  0.2666666  0.3333334  0.9997208  )
        96           Ga  tau(  96) = (  0.2666666  0.5333334  0.3330541  )
        97           Ga  tau(  97) = (  0.2666666  0.5333334  0.6663874  )
        98           Ga  tau(  98) = (  0.2666666  0.5333334  0.9997208  )
        99           Ga  tau(  99) = (  0.2666666  0.7333334  0.3330541  )
       100           Ga  tau( 100) = (  0.2666666  0.7333334  0.6663874  )
       101           Ga  tau( 101) = (  0.2666666  0.7333334  0.9997208  )
       102           Ga  tau( 102) = (  0.2666666  0.9333334  0.3330541  )
       103           Ga  tau( 103) = (  0.2666666  0.9333334  0.6663874  )
       104           Ga  tau( 104) = (  0.2666666  0.9333334  0.9997208  )
       105           Ga  tau( 105) = (  0.4666666  0.1333334  0.3330541  )
       106           Ga  tau( 106) = (  0.4666666  0.1333334  0.6663874  )
       107           Ga  tau( 107) = (  0.4666666  0.1333334  0.9997208  )
       108           Ga  tau( 108) = (  0.4666666  0.3333334  0.3330541  )
       109           Ga  tau( 109) = (  0.4666666  0.3333334  0.6663874  )
       110           Ga  tau( 110) = (  0.4666666  0.3333334  0.9997208  )
       111           Ga  tau( 111) = (  0.4666666  0.5333334  0.3330541  )
       112           Ga  tau( 112) = (  0.4666666  0.5333334  0.6663874  )
       113           Ga  tau( 113) = (  0.4666666  0.5333334  0.9997208  )
       114           Ga  tau( 114) = (  0.4666666  0.7333334  0.3330541  )
       115           Ga  tau( 115) = (  0.4666666  0.7333334  0.6663874  )
       116           Ga  tau( 116) = (  0.4666666  0.7333334  0.9997208  )
       117           Ga  tau( 117) = (  0.4666666  0.9333334  0.3330541  )
       118           Ga  tau( 118) = (  0.4666666  0.9333334  0.6663874  )
       119           Ga  tau( 119) = (  0.4666666  0.9333334  0.9997208  )
       120           Ga  tau( 120) = (  0.6666666  0.1333334  0.3330541  )
       121           Ga  tau( 121) = (  0.6666666  0.1333334  0.6663874  )
       122           Ga  tau( 122) = (  0.6666666  0.1333334  0.9997208  )
       123           Ga  tau( 123) = (  0.6666666  0.3333334  0.3330541  )
       124           Ga  tau( 124) = (  0.6666666  0.3333334  0.6663874  )
       125           Ga  tau( 125) = (  0.6666666  0.3333334  0.9997208  )
       126           Ga  tau( 126) = (  0.6666666  0.5333334  0.3330541  )
       127           Ga  tau( 127) = (  0.6666666  0.5333334  0.6663874  )
       128           Ga  tau( 128) = (  0.6666666  0.5333334  0.9997208  )
       129           Ga  tau( 129) = (  0.6666666  0.7333334  0.3330541  )
       130           Ga  tau( 130) = (  0.6666666  0.7333334  0.6663874  )
       131           Ga  tau( 131) = (  0.6666666  0.7333334  0.9997208  )
       132           Ga  tau( 132) = (  0.6666666  0.9333334  0.3330541  )
       133           Ga  tau( 133) = (  0.6666666  0.9333334  0.6663874  )
       134           Ga  tau( 134) = (  0.6666666  0.9333334  0.9997208  )
       135           Ga  tau( 135) = (  0.8666666  0.1333334  0.3330541  )
       136           Ga  tau( 136) = (  0.8666666  0.1333334  0.6663874  )
       137           Ga  tau( 137) = (  0.8666666  0.1333334  0.9997208  )
       138           Ga  tau( 138) = (  0.8666666  0.3333334  0.3330541  )
       139           Ga  tau( 139) = (  0.8666666  0.3333334  0.6663874  )
       140           Ga  tau( 140) = (  0.8666666  0.3333334  0.9997208  )
       141           Ga  tau( 141) = (  0.8666666  0.5333334  0.3330541  )
       142           Ga  tau( 142) = (  0.8666666  0.5333334  0.6663874  )
       143           Ga  tau( 143) = (  0.8666666  0.5333334  0.9997208  )
       144           Ga  tau( 144) = (  0.8666666  0.7333334  0.3330541  )
       145           Ga  tau( 145) = (  0.8666666  0.7333334  0.6663874  )
       146           Ga  tau( 146) = (  0.8666666  0.7333334  0.9997208  )
       147           Ga  tau( 147) = (  0.8666666  0.9333334  0.3330541  )
       148           Ga  tau( 148) = (  0.8666666  0.9333334  0.6663874  )
       149           Ga  tau( 149) = (  0.8666666  0.9333334  0.9997208  )
       150           N   tau( 150) = (  0.1333334  0.0666666  0.2919459  )
       151           N   tau( 151) = (  0.1333334  0.0666666  0.6252792  )
       152           N   tau( 152) = (  0.1333334  0.0666666  0.9586126  )
       153           N   tau( 153) = (  0.1333334  0.2666666  0.2919459  )
       154           N   tau( 154) = (  0.1333334  0.2666666  0.6252792  )
       155           N   tau( 155) = (  0.1333334  0.2666666  0.9586126  )
       156           N   tau( 156) = (  0.1333334  0.4666666  0.2919459  )
       157           N   tau( 157) = (  0.1333334  0.4666666  0.6252792  )
       158           N   tau( 158) = (  0.1333334  0.4666666  0.9586126  )
       159           N   tau( 159) = (  0.1333334  0.6666666  0.2919459  )
       160           N   tau( 160) = (  0.1333334  0.6666666  0.6252792  )
       161           N   tau( 161) = (  0.1333334  0.6666666  0.9586126  )
       162           N   tau( 162) = (  0.1333334  0.8666666  0.2919459  )
       163           N   tau( 163) = (  0.1333334  0.8666666  0.6252792  )
       164           N   tau( 164) = (  0.1333334  0.8666666  0.9586126  )
       165           N   tau( 165) = (  0.3333334  0.0666666  0.2919459  )
       166           N   tau( 166) = (  0.3333334  0.0666666  0.6252792  )
       167           N   tau( 167) = (  0.3333334  0.0666666  0.9586126  )
       168           N   tau( 168) = (  0.3333334  0.2666666  0.2919459  )
       169           N   tau( 169) = (  0.3333334  0.2666666  0.6252792  )
       170           N   tau( 170) = (  0.3333334  0.2666666  0.9586126  )
       171           N   tau( 171) = (  0.3333334  0.4666666  0.2919459  )
       172           N   tau( 172) = (  0.3333334  0.4666666  0.6252792  )
       173           N   tau( 173) = (  0.3333334  0.4666666  0.9586126  )
       174           N   tau( 174) = (  0.3333334  0.6666666  0.2919459  )
       175           N   tau( 175) = (  0.3333334  0.6666666  0.6252792  )
       176           N   tau( 176) = (  0.3333334  0.6666666  0.9586126  )
       177           N   tau( 177) = (  0.3333334  0.8666666  0.2919459  )
       178           N   tau( 178) = (  0.3333334  0.8666666  0.6252792  )
       179           N   tau( 179) = (  0.3333334  0.8666666  0.9586126  )
       180           N   tau( 180) = (  0.5333334  0.0666666  0.2919459  )
       181           N   tau( 181) = (  0.5333334  0.0666666  0.6252792  )
       182           N   tau( 182) = (  0.5333334  0.0666666  0.9586126  )
       183           N   tau( 183) = (  0.5333334  0.2666666  0.2919459  )
       184           N   tau( 184) = (  0.5333334  0.2666666  0.6252792  )
       185           N   tau( 185) = (  0.5333334  0.2666666  0.9586126  )
       186           N   tau( 186) = (  0.5333334  0.4666666  0.2919459  )
       187           N   tau( 187) = (  0.5333334  0.4666666  0.6252792  )
       188           N   tau( 188) = (  0.5333334  0.4666666  0.9586126  )
       189           N   tau( 189) = (  0.5333334  0.6666666  0.2919459  )
       190           N   tau( 190) = (  0.5333334  0.6666666  0.6252792  )
       191           N   tau( 191) = (  0.5333334  0.6666666  0.9586126  )
       192           N   tau( 192) = (  0.5333334  0.8666666  0.2919459  )
       193           N   tau( 193) = (  0.5333334  0.8666666  0.6252792  )
       194           N   tau( 194) = (  0.5333334  0.8666666  0.9586126  )
       195           N   tau( 195) = (  0.7333334  0.0666666  0.2919459  )
       196           N   tau( 196) = (  0.7333334  0.0666666  0.6252792  )
       197           N   tau( 197) = (  0.7333334  0.0666666  0.9586126  )
       198           N   tau( 198) = (  0.7333334  0.2666666  0.2919459  )
       199           N   tau( 199) = (  0.7333334  0.2666666  0.6252792  )
       200           N   tau( 200) = (  0.7333334  0.2666666  0.9586126  )
       201           N   tau( 201) = (  0.7333334  0.4666666  0.2919459  )
       202           N   tau( 202) = (  0.7333334  0.4666666  0.6252792  )
       203           N   tau( 203) = (  0.7333334  0.4666666  0.9586126  )
       204           N   tau( 204) = (  0.7333334  0.6666666  0.2919459  )
       205           N   tau( 205) = (  0.7333334  0.6666666  0.6252792  )
       206           N   tau( 206) = (  0.7333334  0.6666666  0.9586126  )
       207           N   tau( 207) = (  0.7333334  0.8666666  0.2919459  )
       208           N   tau( 208) = (  0.7333334  0.8666666  0.6252792  )
       209           N   tau( 209) = (  0.7333334  0.8666666  0.9586126  )
       210           N   tau( 210) = (  0.9333334  0.0666666  0.2919459  )
       211           N   tau( 211) = (  0.9333334  0.0666666  0.6252792  )
       212           N   tau( 212) = (  0.9333334  0.0666666  0.9586126  )
       213           N   tau( 213) = (  0.9333334  0.2666666  0.2919459  )
       214           N   tau( 214) = (  0.9333334  0.2666666  0.6252792  )
       215           N   tau( 215) = (  0.9333334  0.2666666  0.9586126  )
       216           N   tau( 216) = (  0.9333334  0.4666666  0.2919459  )
       217           N   tau( 217) = (  0.9333334  0.4666666  0.6252792  )
       218           N   tau( 218) = (  0.9333334  0.4666666  0.9586126  )
       219           N   tau( 219) = (  0.9333334  0.6666666  0.2919459  )
       220           N   tau( 220) = (  0.9333334  0.6666666  0.6252792  )
       221           N   tau( 221) = (  0.9333334  0.6666666  0.9586126  )
       222           N   tau( 222) = (  0.9333334  0.8666666  0.2919459  )
       223           N   tau( 223) = (  0.9333334  0.8666666  0.6252792  )
       224           N   tau( 224) = (  0.9333334  0.8666666  0.9586126  )
       225           N   tau( 225) = (  0.0666666  0.1333334  0.1252792  )
       226           N   tau( 226) = (  0.0666666  0.1333334  0.4586126  )
       227           N   tau( 227) = (  0.0666666  0.1333334  0.7919459  )
       228           N   tau( 228) = (  0.0666666  0.3333334  0.1252792  )
       229           N   tau( 229) = (  0.0666666  0.3333334  0.4586126  )
       230           N   tau( 230) = (  0.0666666  0.3333334  0.7919459  )
       231           N   tau( 231) = (  0.0666666  0.5333334  0.1252792  )
       232           N   tau( 232) = (  0.0666666  0.5333334  0.4586126  )
       233           N   tau( 233) = (  0.0666666  0.5333334  0.7919459  )
       234           N   tau( 234) = (  0.0666666  0.7333334  0.1252792  )
       235           N   tau( 235) = (  0.0666666  0.7333334  0.4586126  )
       236           N   tau( 236) = (  0.0666666  0.7333334  0.7919459  )
       237           N   tau( 237) = (  0.0666666  0.9333334  0.1252792  )
       238           N   tau( 238) = (  0.0666666  0.9333334  0.4586126  )
       239           N   tau( 239) = (  0.0666666  0.9333334  0.7919459  )
       240           N   tau( 240) = (  0.2666666  0.1333334  0.1252792  )
       241           N   tau( 241) = (  0.2666666  0.1333334  0.4586126  )
       242           N   tau( 242) = (  0.2666666  0.1333334  0.7919459  )
       243           N   tau( 243) = (  0.2666666  0.3333334  0.1252792  )
       244           N   tau( 244) = (  0.2666666  0.3333334  0.4586126  )
       245           N   tau( 245) = (  0.2666666  0.3333334  0.7919459  )
       246           N   tau( 246) = (  0.2666666  0.5333334  0.1252792  )
       247           N   tau( 247) = (  0.2666666  0.5333334  0.4586126  )
       248           N   tau( 248) = (  0.2666666  0.5333334  0.7919459  )
       249           N   tau( 249) = (  0.2666666  0.7333334  0.1252792  )
       250           N   tau( 250) = (  0.2666666  0.7333334  0.4586126  )
       251           N   tau( 251) = (  0.2666666  0.7333334  0.7919459  )
       252           N   tau( 252) = (  0.2666666  0.9333334  0.1252792  )
       253           N   tau( 253) = (  0.2666666  0.9333334  0.4586126  )
       254           N   tau( 254) = (  0.2666666  0.9333334  0.7919459  )
       255           N   tau( 255) = (  0.4666666  0.1333334  0.1252792  )
       256           N   tau( 256) = (  0.4666666  0.1333334  0.4586126  )
       257           N   tau( 257) = (  0.4666666  0.1333334  0.7919459  )
       258           N   tau( 258) = (  0.4666666  0.3333334  0.1252792  )
       259           N   tau( 259) = (  0.4666666  0.3333334  0.4586126  )
       260           N   tau( 260) = (  0.4666666  0.3333334  0.7919459  )
       261           N   tau( 261) = (  0.4666666  0.5333334  0.1252792  )
       262           N   tau( 262) = (  0.4666666  0.5333334  0.4586126  )
       263           N   tau( 263) = (  0.4666666  0.5333334  0.7919459  )
       264           N   tau( 264) = (  0.4666666  0.7333334  0.1252792  )
       265           N   tau( 265) = (  0.4666666  0.7333334  0.4586126  )
       266           N   tau( 266) = (  0.4666666  0.7333334  0.7919459  )
       267           N   tau( 267) = (  0.4666666  0.9333334  0.1252792  )
       268           N   tau( 268) = (  0.4666666  0.9333334  0.4586126  )
       269           N   tau( 269) = (  0.4666666  0.9333334  0.7919459  )
       270           N   tau( 270) = (  0.6666666  0.1333334  0.1252792  )
       271           N   tau( 271) = (  0.6666666  0.1333334  0.4586126  )
       272           N   tau( 272) = (  0.6666666  0.1333334  0.7919459  )
       273           N   tau( 273) = (  0.6666666  0.3333334  0.1252792  )
       274           N   tau( 274) = (  0.6666666  0.3333334  0.4586126  )
       275           N   tau( 275) = (  0.6666666  0.3333334  0.7919459  )
       276           N   tau( 276) = (  0.6666666  0.5333334  0.1252792  )
       277           N   tau( 277) = (  0.6666666  0.5333334  0.4586126  )
       278           N   tau( 278) = (  0.6666666  0.5333334  0.7919459  )
       279           N   tau( 279) = (  0.6666666  0.7333334  0.1252792  )
       280           N   tau( 280) = (  0.6666666  0.7333334  0.4586126  )
       281           N   tau( 281) = (  0.6666666  0.7333334  0.7919459  )
       282           N   tau( 282) = (  0.6666666  0.9333334  0.1252792  )
       283           N   tau( 283) = (  0.6666666  0.9333334  0.4586126  )
       284           N   tau( 284) = (  0.6666666  0.9333334  0.7919459  )
       285           N   tau( 285) = (  0.8666666  0.1333334  0.1252792  )
       286           N   tau( 286) = (  0.8666666  0.1333334  0.4586126  )
       287           N   tau( 287) = (  0.8666666  0.1333334  0.7919459  )
       288           N   tau( 288) = (  0.8666666  0.3333334  0.1252792  )
       289           N   tau( 289) = (  0.8666666  0.3333334  0.4586126  )
       290           N   tau( 290) = (  0.8666666  0.3333334  0.7919459  )
       291           N   tau( 291) = (  0.8666666  0.5333334  0.1252792  )
       292           N   tau( 292) = (  0.8666666  0.5333334  0.4586126  )
       293           N   tau( 293) = (  0.8666666  0.5333334  0.7919459  )
       294           N   tau( 294) = (  0.8666666  0.7333334  0.1252792  )
       295           N   tau( 295) = (  0.8666666  0.7333334  0.4586126  )
       296           N   tau( 296) = (  0.8666666  0.7333334  0.7919459  )
       297           N   tau( 297) = (  0.8666666  0.9333334  0.1252792  )
       298           N   tau( 298) = (  0.8666666  0.9333334  0.4586126  )
       299           N   tau( 299) = (  0.8666666  0.9333334  0.7919459  )
       300           N   tau( 300) = (  0.1333334  0.0666666  0.1663874  )

     number of k points=     6  Gaussian smearing, width (Ry)=  0.0100
                       cart. coord. in units 2pi/alat
        k(    1) = (   0.0000000   0.0000000   0.0000000), wk =   0.2500000
        k(    2) = (   0.0000000   0.0000000  -0.5112854), wk =   0.2500000
        k(    3) = (   0.0000000  -0.5773503   0.0000000), wk =   0.5000000
        k(    4) = (   0.0000000  -0.5773503  -0.5112854), wk =   0.5000000
        k(    5) = (  -0.5000000  -0.2886751   0.0000000), wk =   0.2500000
        k(    6) = (  -0.5000000  -0.2886751  -0.5112854), wk =   0.2500000

                       cryst. coord.
        k(    1) = (   0.0000000   0.0000000   0.0000000), wk =   0.2500000
        k(    2) = (   0.0000000   0.0000000  -0.5000000), wk =   0.2500000
        k(    3) = (   0.0000000  -0.5000000   0.0000000), wk =   0.5000000
        k(    4) = (   0.0000000  -0.5000000  -0.5000000), wk =   0.5000000
        k(    5) = (  -0.5000000  -0.0000000   0.0000000), wk =   0.2500000
        k(    6) = (  -0.5000000  -0.0000000  -0.5000000), wk =   0.2500000

     Dense  grid:  2698283 G-vectors     FFT dimensions: ( 192, 192, 180)

     Smooth grid:  1930731 G-vectors     FFT dimensions: ( 180, 180, 160)

     Dynamical RAM for                 wfc:      92.85 MB

     Dynamical RAM for     wfc (w. buffer):     278.54 MB

     Dynamical RAM for           str. fact:       1.29 MB

     Dynamical RAM for           local pot:       0.00 MB

     Dynamical RAM for          nlocal pot:     223.77 MB

     Dynamical RAM for                qrad:       3.00 MB

     Dynamical RAM for          rho,v,vnew:       4.46 MB

     Dynamical RAM for               rhoin:       1.49 MB

     Dynamical RAM for            rho*nmix:      10.29 MB

     Dynamical RAM for           G-vectors:       2.64 MB

     Dynamical RAM for          h,s,v(r/c):    1907.96 MB

     Dynamical RAM for          <psi|beta>:      95.80 MB

     Dynamical RAM for                 psi:     371.39 MB

     Dynamical RAM for                hpsi:     371.39 MB

     Dynamical RAM for                spsi:     371.39 MB

     Dynamical RAM for      wfcinit/wfcrot:     245.33 MB

     Dynamical RAM for           addusdens:      54.68 MB

     Dynamical RAM for          addusforce:     103.36 MB

     Dynamical RAM for         addusstress:      32.57 MB

     Estimated static dynamical RAM per process >     521.34 MB

     Estimated max dynamical RAM per process >       3.56 GB

     Estimated total dynamical RAM >     910.46 GB

     Atomic positions and unit cell read from directory:
     ./GaN.save/
     Atomic positions from file used, from input discarded
 

     Check: negative core charge=   -0.000003

     The initial density is read from file :
     ./GaN.save/charge-density



     %%%%%%%%%%%%%%%%%%%%%%%%%%%%%%%%%%%%%%%%%%%%%%%%%%%%%%%%%%%%%%%%%%%%%%%%
     %                                                                      %
     % You are using vdW-DF, which was implemented by the Thonhauser group. %
     % Please cite the following two papers that made this development      %
     % possible and the two reviews that describe the various versions:     %
     %                                                                      %
     %   T. Thonhauser et al., PRL 115, 136402 (2015).                      %
     %   T. Thonhauser et al., PRB 76, 125112 (2007).                       %
     %   K. Berland et al., Rep. Prog. Phys. 78, 066501 (2015).             %
     %   D.C. Langreth et al., J. Phys.: Condens. Matter 21, 084203 (2009). %
     %                                                                      %
     % If you are calculating stress with vdW-DF, please also cite:         %
     %                                                                      %
     %   R. Sabatini et al., J. Phys.: Condens. Matter 24, 424209 (2012).   %
     %                                                                      %
     %%%%%%%%%%%%%%%%%%%%%%%%%%%%%%%%%%%%%%%%%%%%%%%%%%%%%%%%%%%%%%%%%%%%%%%%

     %%%%%%%%%%%%%%%%%%%%%%%%%%%%%%%%%%%%%%%%%%%%%%%%%%%%%%%%%%%%%%%%%%%%%%%%
     %                                                                      %
     %  vdW-DF NEWS:                                                        %
     %                                                                      %
     %  * vdW-DF3 is now available. DOI: 10.1021/acs.jctc.0c00471           %
     %    use with input_dft = 'vdW-DF3-opt1' or 'vdW-DF3-opt2'             %
     %                                                                      %
     %  * Unscreened and range-separated vdW-DF hybrid functionals          %
     %    DOI: 10.1063/1.4986522 and 10.1088/1361-648X/ac2ad2               %
     %    use with input_dft = 'vdW-DF-cx0' (etc) and 'vdW-DF-ahcx'         %
     %                                                                      %
     %%%%%%%%%%%%%%%%%%%%%%%%%%%%%%%%%%%%%%%%%%%%%%%%%%%%%%%%%%%%%%%%%%%%%%%%


     Carrying out vdW-DF run using the following parameters:
     Nqs    =  20  Npoints =  1024  r_max =  100.000
     q_mesh =  0.00001000  0.04494208  0.09755937  0.15916263
               0.23128650  0.31572767  0.41458969  0.53033537
               0.66584808  0.82450364  1.01025438  1.22772762
               1.48234092  1.78043706  2.12944203  2.53805004
               3.01644009  3.57652955  4.23227104  5.00000000


     -----------------------------------------------
     Non-local corr. energy    =      81.33528916 Ry
     -----------------------------------------------

     Starting wfcs from file
     Checking if some PAW data can be deallocated... 
       PAW data deallocated on  151 nodes for type:  1
       PAW data deallocated on  105 nodes for type:  2

     total cpu time spent up to now is       38.5 secs

     Self-consistent Calculation

     iteration #  1     ecut=    70.00 Ry     beta= 0.70
     Davidson diagonalization with overlap

---- Real-time Memory Report at c_bands before calling an iterative solver
           545 MiB given to the printing process from OS
             0 MiB allocation reported by mallinfo(arena+hblkhd)
       1903213 MiB available memory on the node where the printing process lives
------------------
     ethr =  1.00E-05,  avg # of iterations =  1.0

     Threshold (ethr) on eigenvalues was too large:
     Diagonalizing with lowered threshold

     Davidson diagonalization with overlap

---- Real-time Memory Report at c_bands before calling an iterative solver
          2315 MiB given to the printing process from OS
             0 MiB allocation reported by mallinfo(arena+hblkhd)
       1873026 MiB available memory on the node where the printing process lives
------------------
     ethr =  1.24E-13,  avg # of iterations = 18.3


     -----------------------------------------------
     Non-local corr. energy    =      81.33528703 Ry
     -----------------------------------------------


     total cpu time spent up to now is     3256.5 secs

     End of self-consistent calculation

          k = 0.0000 0.0000 0.0000 (241213 PWs)   bands (ev):

   -12.9010  -7.2184  -7.2167  -7.0476  -6.9049  -6.8413  -6.8404  -6.7875
    -6.7148  -6.6900  -6.6897  -6.6614  -6.6552  -6.6546  -6.6488  -6.6195
    -6.6192  -6.6066  -6.6055  -6.5910  -6.5908  -6.5560  -6.5557  -6.5557
    -6.5489  -6.5443  -6.5432  -6.5270  -6.5267  -6.5260  -6.5057  -6.5006
    -6.5004  -6.4919  -6.4754  -6.4727  -6.4717  -6.4663  -6.4659  -6.4657
    -6.4571  -6.4560  -6.4511  -6.4443  -6.4439  -6.4332  -6.4330  -6.4218
    -6.4190  -6.4171  -6.4170  -6.4141  -6.4136  -6.4100  -6.4070  -6.4012
    -6.3981  -6.3970  -6.3928  -6.3923  -6.3869  -6.3830  -6.3804  -6.3791
    -6.3779  -6.3771  -6.3765  -6.3758  -6.3754  -6.3752  -6.3670  -6.3643
    -6.3619  -6.3612  -6.3594  -6.3585  -6.3576  -6.3564  -6.3540  -6.3540
    -6.3480  -6.3468  -6.3459  -6.3452  -6.3443  -6.3436  -6.3414  -6.3408
    -6.3404  -6.3399  -6.3360  -6.3351  -6.3313  -6.3310  -6.3305  -6.3270
    -6.3253  -6.3250  -6.3246  -6.3243  -6.3233  -6.3211  -6.3177  -6.3172
    -6.3169  -6.3162  -6.3152  -6.3135  -6.3122  -6.3120  -6.3096  -6.3092
    -6.3056  -6.3041  -6.3031  -6.3020  -6.3018  -6.2974  -6.2967  -6.2949
    -6.2942  -6.2928  -6.2928  -6.2921  -6.2870  -6.2869  -6.2828  -6.2822
    -6.2796  -6.2790  -6.2768  -6.2761  -6.2756  -6.2735  -6.2718  -6.2709
    -6.2689  -6.2657  -6.2656  -6.2652  -6.2649  -6.2627  -6.2619  -6.2615
    -6.2587  -6.2547  -6.2541  -6.2493  -6.2485  -6.0637  -5.7651  -5.7331
    -5.7326  -5.7108  -5.7004  -5.7002  -5.6978  -5.6909  -5.6905  -5.6829
    -5.6577  -5.6574  -5.6548  -5.6546  -5.6492  -5.6434  -5.6430  -5.6414
    -5.6354  -5.6350  -5.6292  -5.6223  -5.6213  -5.6208  -5.6049  -5.5923
    -5.5921  -5.5679  -5.5660  -5.5650  -5.5326  -5.5324  -5.5164  -5.5161
    -5.5112  -5.5054  -5.4891  -5.4887  -5.4830  -5.4828  -5.4821  -5.4456
    -5.4265  -5.4262  -5.3853  -5.3186  -5.3185  -5.3079  -5.3078  -5.3011
    -5.2996  -5.2994  -5.2976  -5.2946  -5.2945  -5.2924  -5.2924  -5.2921
    -5.2898  -5.2841  -5.2839  -5.2813  -5.2811  -5.2811  -5.2806  -5.2803
    -5.2802  -5.2733  -5.2733  -5.2723  -5.2706  -5.2695  -5.2671  -5.2670
    -5.2654  -5.2650  -5.2624  -5.2617  -5.2616  -5.2590  -5.2590  -5.2567
    -5.2545  -5.2511  -5.2506  -5.2506  -5.2505  -5.2496  -5.2482  -5.2482
    -5.2468  -5.2467  -5.2459  -5.2459  -5.2454  -5.2419  -5.2419  -5.2395
    -5.2395  -5.2376  -5.2360  -5.2359  -5.2342  -5.2341  -5.2341  -5.2319
    -5.2304  -5.2303  -5.2302  -5.2293  -5.2292  -5.2279  -5.2263  -5.2261
    -5.2248  -5.2238  -5.2237  -5.2219  -5.2217  -5.2203  -5.2202  -5.2197
    -5.2163  -5.2161  -5.2160  -5.2139  -5.2138  -5.2135  -5.2119  -5.2117
    -5.2083  -5.2075  -5.2074  -5.2064  -5.2064  -5.2051  -5.2040  -5.2038
    -5.2036  -5.2029  -5.2028  -5.1997  -5.1997  -5.1985  -5.1983  -5.1982
    -5.1977  -5.1965  -5.1954  -5.1947  -5.1942  -5.1942  -5.1935  -5.1935
    -5.1901  -5.1896  -5.1895  -5.1870  -5.1869  -5.1852  -5.1852  -5.1839
    -5.1829  -5.1826  -5.1825  -5.1811  -5.1810  -5.1809  -5.1797  -5.1785
    -5.1784  -5.1784  -5.1766  -5.1765  -5.1763  -5.1746  -5.1746  -5.1743
    -5.1742  -5.1716  -5.1715  -5.1713  -5.1709  -5.1698  -5.1697  -5.1693
    -5.1687  -5.1672  -5.1671  -5.1659  -5.1658  -5.1653  -5.1652  -5.1646
    -5.1646  -5.1643  -5.1642  -5.1612  -5.1609  -5.1608  -5.1598  -5.1592
    -5.1592  -5.1584  -5.1584  -5.1577  -5.1561  -5.1560  -5.1550  -5.1548
    -5.1547  -5.1547  -5.1540  -5.1538  -5.1538  -5.1523  -5.1522  -5.1522
    -5.1513  -5.1513  -5.1504  -5.1500  -5.1500  -5.1466  -5.1465  -5.1462
    -5.1461  -5.1460  -5.1452  -5.1451  -5.1450  -5.1443  -5.1443  -5.1436
    -5.1432  -5.1416  -5.1416  -5.1415  -5.1415  -5.1393  -5.1393  -5.1389
    -5.1389  -5.1378  -5.1368  -5.1361  -5.1360  -5.1358  -5.1358  -5.1356
    -5.1342  -5.1333  -5.1333  -5.1326  -5.1326  -5.1320  -5.1319  -5.1313
    -5.1311  -5.1293  -5.1293  -5.1288  -5.1288  -5.1272  -5.1268  -5.1264
    -5.1263  -5.1258  -5.1250  -5.1250  -5.1242  -5.1242  -5.1242  -5.1227
    -5.1222  -5.1221  -5.1202  -5.1201  -5.1193  -5.1191  -5.1185  -5.1169
    -5.1167  -5.1167  -5.1152  -5.1152  -5.1150  -5.1144  -5.1144  -5.1142
    -5.1134  -5.1134  -5.1133  -5.1111  -5.1111  -5.1109  -5.1106  -5.1099
    -5.1098  -5.1097  -5.1084  -5.1083  -5.1070  -5.1066  -5.1066  -5.1051
    -5.1049  -5.1049  -5.1043  -5.1039  -5.1039  -5.1019  -5.1018  -5.1003
    -5.1000  -5.1000  -5.0992  -5.0991  -5.0988  -5.0978  -5.0966  -5.0966
    -5.0953  -5.0953  -5.0947  -5.0945  -5.0934  -5.0934  -5.0922  -5.0922
    -5.0921  -5.0918  -5.0916  -5.0915  -5.0877  -5.0867  -5.0866  -5.0854
    -5.0854  -5.0849  -5.0845  -5.0844  -5.0844  -5.0843  -5.0825  -5.0819
    -5.0819  -5.0801  -5.0792  -5.0791  -5.0790  -5.0762  -5.0759  -5.0759
    -5.0746  -5.0746  -5.0733  -5.0732  -5.0721  -5.0721  -5.0720  -5.0711
    -5.0700  -5.0700  -5.0681  -5.0680  -5.0668  -5.0666  -5.0657  -5.0652
    -5.0652  -5.0618  -5.0606  -5.0606  -5.0602  -5.0600  -5.0586  -5.0585
    -5.0580  -5.0579  -5.0579  -5.0579  -5.0574  -5.0574  -5.0568  -5.0568
    -5.0553  -5.0553  -5.0549  -5.0545  -5.0532  -5.0532  -5.0528  -5.0511
    -5.0511  -5.0510  -5.0504  -5.0499  -5.0499  -5.0488  -5.0487  -5.0468
    -5.0468  -5.0458  -5.0447  -5.0447  -5.0440  -5.0435  -5.0430  -5.0430
    -5.0418  -5.0416  -5.0415  -5.0401  -5.0401  -5.0399  -5.0381  -5.0380
    -5.0366  -5.0366  -5.0359  -5.0355  -5.0353  -5.0353  -5.0352  -5.0340
    -5.0340  -5.0325  -5.0324  -5.0319  -5.0310  -5.0310  -5.0302  -5.0302
    -5.0299  -5.0293  -5.0292  -5.0277  -5.0276  -5.0263  -5.0263  -5.0257
    -5.0250  -5.0234  -5.0233  -5.0225  -5.0224  -5.0219  -5.0218  -5.0218
    -5.0210  -5.0209  -5.0201  -5.0201  -5.0189  -5.0189  -5.0184  -5.0184
    -5.0178  -5.0177  -5.0177  -5.0176  -5.0172  -5.0165  -5.0159  -5.0159
    -5.0149  -5.0149  -5.0143  -5.0135  -5.0124  -5.0123  -5.0120  -5.0112
    -5.0111  -5.0098  -5.0095  -5.0075  -5.0075  -5.0070  -5.0070  -5.0065
    -5.0060  -5.0060  -5.0050  -5.0050  -5.0040  -5.0037  -5.0037  -5.0037
    -5.0019  -4.9996  -4.9995  -4.9979  -4.9973  -4.9968  -4.9968  -4.9961
    -4.9961  -4.9956  -4.9956  -4.9956  -4.9936  -4.9936  -4.9934  -4.9921
    -4.9919  -4.9919  -4.9904  -4.9901  -4.9900  -4.9897  -4.9888  -4.9888
    -4.9877  -4.9877  -4.9860  -4.9859  -4.9848  -4.9848  -4.9845  -4.9840
    -4.9817  -4.9816  -4.9816  -4.9784  -4.9780  -4.9775  -4.9775  -4.9764
    -4.9758  -4.9758  -4.9749  -4.9745  -4.9745  -4.9738  -4.9738  -4.9717
    -4.9717  -4.9698  -4.9698  -4.9692  -4.9691  -4.9656  -4.9656  -4.9655
    -4.9651  -4.9651  -4.9640  -4.9639  -4.9639  -4.9623  -4.9622  -4.9618
    -4.9618  -4.9617  -4.9607  -4.9585  -4.9585  -4.9581  -4.9572  -4.9549
    -4.9548  -4.9543  -4.9530  -4.9530  -4.9513  -4.9512  -4.9497  -4.9491
    -4.9489  -4.9476  -4.9474  -4.9474  -4.9472  -4.9467  -4.9467  -4.9442
    -4.9441  -4.9423  -4.9422  -4.9401  -4.9401  -4.9360  -4.9360  -4.9359
    -4.9349  -4.9344  -4.9324  -4.9323  -4.9321  -4.9306  -4.9306  -4.9298
    -4.9297  -4.9277  -4.9242  -4.9242  -4.9189  -4.9188  -4.9188  -4.9122
    -4.9122  -4.9111  -4.9079  -4.9076  -4.9055  -4.8072  -4.7910  -4.7910
    -4.7680  -4.7678  -4.7550  -4.7548  -4.7532  -4.7532  -4.7447  -4.7383
    -4.6737  -4.3667  -4.3663  -4.3655  -4.3545  -4.3013  -4.3012  -4.2920
    -4.2517  -4.1244  -4.1102  -4.1098  -4.1058  -4.1058  -4.0951  -4.0948
    -4.0931  -4.0892  -4.0667  -4.0615  -4.0613  -4.0416  -4.0312  -4.0309
    -4.0171  -4.0170  -4.0100  -3.9771  -3.9769  -3.9530  -3.9502  -3.9498
    -3.9329  -3.9329  -3.9240  -3.9240  -3.9196  -3.9077  -3.8623  -3.8356
    -3.8353  -3.8167  -3.8151  -3.8094  -3.8092  -3.8022  -3.8020  -3.8000
    -3.7429  -3.7428  -3.6066  -3.5219  -3.4764  -3.4687  -3.4681  -3.4637
    -3.4350  -3.4349  -3.4264  -3.4116  -3.4113  -3.4081  -3.4062  -3.4062
    -3.3912  -3.3911  -3.3565  -3.3363  -3.3361  -3.3346  -3.3251  -3.3085
    -3.3083  -3.3012  -3.3012  -3.3002  -3.2898  -3.2896  -3.2785  -3.2759
    -3.2751  -3.2727  -3.2726  -3.2713  -3.2713  -3.2607  -3.2561  -3.2560
    -3.2515  -3.2514  -3.2488  -3.2448  -3.2446  -3.2340  -3.2339  -3.2114
    -3.1986  -3.1300  -3.1299  -3.1078  -3.0833  -3.0763  -3.0762  -3.0678
    -3.0579  -3.0578  -3.0392  -3.0392  -3.0298  -2.9637  -2.9634  -2.9499
    -2.9472  -2.9472  -2.9305  -2.9301  -2.9253  -2.9073  -2.9031  -2.9028
    -2.8985  -2.8889  -2.8889  -2.8771  -2.8751  -2.8749  -2.8359  -1.2065
     1.0830   1.0851   1.5060   2.1544   2.4576   2.4577   2.5128   2.5218
     2.5223   2.5816   2.5816   2.5949   2.6004   2.6008   2.6099   2.6101
     2.6175   2.6191   2.6241   2.6279   2.6281   2.6282   2.6326   2.6331
     2.6449   2.6577   2.6577   2.6584   2.6607   2.6607   2.6865   2.6871
     2.7381   2.7873   2.7882   2.8067   2.8150   2.8157   2.8247   2.8844
     2.9312   2.9396   2.9398   2.9518   2.9523   2.9527   2.9857   2.9857
     2.9901   2.9938   3.0003   3.0005   3.0075   3.0075   3.0265   3.0429
     3.0431   3.1024   3.1074   3.1076   3.1206   3.1327   3.1331   3.2269
     3.2270   3.2358   3.2358   3.2360   3.2405   3.2486   3.2487   3.2502
     3.2522   3.2698   3.2700   3.2772   3.2786   3.2789   3.2838   3.2957
     3.2964   3.3004   3.3069   3.3074   3.3105   3.3840   3.3847   3.5344
     3.6145   3.6479   3.6688   3.6689   3.6910   3.6911   3.6945   3.7041
     3.7045   3.7134   3.7137   3.7188   3.7324   3.7325   3.7423   3.7497
     3.7516   3.7517   3.8497   3.9090   3.9159   3.9163   3.9410   3.9414
     3.9468   3.9687   3.9771   3.9774   3.9794   3.9802   3.9804   3.9943
     3.9946   4.0176   4.0521   4.0523   4.1350   4.4719   4.5009   4.5012
     4.5083   4.5367   4.5378   4.5565   4.5868   4.5870   4.5947   4.5947
     4.6099   4.6259   4.6333   4.6338   4.6535   4.6540   4.6833   4.7145
     4.7146   4.7265   4.7502   4.7503   4.9507   4.9510   4.9807   4.9877
     4.9879   5.0106   5.0120   5.0156   5.0157   5.0220   5.0520   5.1032
     5.1039   5.2453   5.4322   5.4324   5.4466   5.4467   5.4611   5.4665
     5.4708   5.4708   5.4860   5.4860   5.4897   5.4897   5.5078   5.5172
     5.5210   5.5211   5.5267   5.6609   5.6660   5.6661   5.6831   5.6953
     5.6956   5.7624   5.8336   5.8336   5.8391   5.8393   5.8648   5.8650
     5.8842   5.8930   5.9112   5.9113   5.9132   5.9136   5.9148   5.9264
     5.9382   5.9383   5.9585   5.9590   5.9716   5.9717   5.9764   5.9793
     5.9877   5.9937   5.9943   6.0002   6.0002   6.0007   6.0030   6.0033
     6.0083   6.0083   6.0124   6.0126   6.0171   6.0175   6.0216   6.0249
     6.0272   6.0272   6.0376   6.0379   6.0531   6.0533   6.0552   6.0554
     6.0636   6.0637   6.0653   6.0991   6.1348   6.1351   6.2174   6.2683
     6.2967   6.2993   6.2995   6.3227   6.3230   6.3235   6.3347   6.3349
     6.3510   6.3570   6.3572   6.3619   6.3621   6.3661   6.4076   6.4076
     6.4190   6.4385   6.4741   6.4745   6.4816   6.4880   6.4881   6.4943
     6.5253   6.5254   6.5380   6.5587   6.5588   6.5615   6.5877   6.6141
     6.6144   6.6184   6.6217   6.6313   6.6358   6.6362   6.6423   6.6506
     6.6507   6.6655   6.6673   6.6674   6.6725   6.6725   6.6825   6.6832
     6.6841   6.6853   6.6854   6.6887   6.6890   6.6944   6.7371   6.7371
     6.7580   6.7886   6.8125   6.8125   6.8381   6.8381   6.8454   6.8606
     6.8622   6.8624   6.8649   6.8796   6.8797   6.9212   6.9874   6.9874
     7.0309   7.0311   7.0891   7.1078   7.1098   7.1098   7.1207   7.1208
     7.1208   7.1489   7.1814   7.2198   7.2199   7.2554   7.2559   7.2701
     7.2951   7.2954   7.3016   7.3066   7.3108   7.3112   7.3134   7.3136
     7.3500   7.3503   7.3578   7.3752   7.3752   7.3839   7.3867   7.3867
     7.3882   7.3922   7.3984   7.3988   7.3992   7.4040   7.4042   7.4065
     7.4092   7.4093   7.4154   7.4157   7.4169   7.4202   7.4221   7.4227
     7.4293   7.4304   7.4416   7.4416   7.4533   7.4533   7.4572   7.4649
     7.4673   7.4675   7.4696   7.4697   7.4714   7.4731   7.4740   7.5155
     7.5230   7.5231   7.5245   7.5408   7.5410   7.5620   7.6020   7.6023
     7.6087   7.6267   7.6268   7.6469   7.6470   7.6494   7.6567   7.6726
     7.6726   7.6830   7.6880   7.6883   7.6926   7.7140   7.7141   7.7315
     7.7315   7.7404   7.7404   7.7449   7.7452   7.7485   7.7559   7.8401
     7.8402   7.8816   7.9069   7.9071   7.9167   7.9439   7.9440   7.9546
     8.0078   8.0080   8.0384   8.0385   8.0548   8.0549   8.0554   8.0661
     8.0834   8.0841   8.0871   8.0941   8.0945   8.0987   8.2878   8.2879
     8.3424   8.3425   8.3680   8.3855   8.3857   8.4215   8.4368   8.4371
     8.4524   8.4850   8.4851   8.5168   8.5169   8.5927   8.7682   8.7683
     8.7736   9.4995  10.2064  11.5351  11.8398  11.8403  12.0050  12.1313
    12.1320  12.1360  12.2237  12.3267  12.4381  12.4382  12.7134  12.8131
    12.8207  12.8211  12.8484  12.8599  12.8608  12.8835  12.9118  12.9125
    12.9170  12.9261  12.9267  12.9294  12.9320  12.9401  12.9403  12.9747
    12.9748  12.9902  12.9903  12.9907  13.0140  13.0743  13.2468  13.2472
    13.3774  13.5521  13.5527  13.5860  13.5996  13.6001  13.6608  13.7031
    13.7035  13.7081  13.7339  13.7347  13.8112  13.8485  13.8503  13.8504
    13.8578  13.8581  13.8756  13.8759  13.8806  13.8985  13.9022  13.9030
    13.9071  13.9077  13.9078  13.9142  13.9450  13.9478  13.9480  13.9688
    13.9690  13.9771  14.0028  14.0031  14.0067  14.0116  14.0117  14.0220
    14.0280  14.0294  14.0298  14.0393  14.0394  14.0547  14.0705  14.0707
    14.0840  14.0841  14.1065  14.1192  14.1223  14.1227  14.1308  14.1388
    14.1394  14.1522  14.1699  14.1699  14.2013  14.2015  14.2168  14.2249
    14.2297  14.2298  14.2569  14.2569  14.2623  14.3482  14.4127  14.4130
    14.4884  14.5160  14.5378  14.5383  14.5989  14.7076  14.7081  14.7819
    14.7819  14.8070  14.8077  14.8451  14.8586  14.9043  14.9119  14.9123
    14.9127  14.9414  14.9505  14.9516  15.0129  15.0131  15.0378  15.0580
    15.0585  15.0796  15.0803  15.0864  15.0952  15.0962  15.1243  15.1403
    15.1408  15.1493  15.1548  15.1553  15.1770  15.1773  15.1900  15.2850
    15.3000  15.3007  15.3283  15.3286  15.3453  15.3794  15.4064  15.4539
    15.4550  15.5406  15.6040  15.6051  15.7093  15.7098  15.7349  15.7368
    15.7539  15.7542  15.7837  15.7837  15.8028  15.8694  15.8869  15.8871
    15.9075  15.9076  15.9436  15.9527  15.9528  15.9556  15.9622  15.9787
    15.9788  16.0122  16.0148  16.0148  16.0441  16.0716  16.0720  16.0930
    16.0932  16.1169  16.1177  16.1188  16.1195  16.1259  16.1280  16.1281
    16.1405  16.1405  16.1422  16.1481  16.1546  16.1546  16.1582  16.1665
    16.1671  16.1722  16.1784  16.1788  16.1904  16.1913  16.1996  16.1998
    16.2036  16.2267  16.2268  16.2301  16.2302  16.2706  16.2978  16.2980
    16.3047  16.3231  16.3239  16.3293  16.3293  16.3415  16.3474  16.3475
    16.3522  16.3523  16.3546  16.3677  16.3729  16.3729  16.3804  16.3902
    16.3980  16.3983  16.3985  16.3987  16.4013  16.4073  16.4074  16.4095
    16.4163  16.4170  16.4172  16.4304  16.4335  16.4342  16.4511  16.4512
    16.4533  16.4763  16.4855  16.4944  16.4945  16.5093  16.5102  16.5544
    16.5564  16.5568  16.6098  16.6103  16.6371  16.6646

     occupation numbers 
     1.0000   1.0000   1.0000   1.0000   1.0000   1.0000   1.0000   1.0000
     1.0000   1.0000   1.0000   1.0000   1.0000   1.0000   1.0000   1.0000
     1.0000   1.0000   1.0000   1.0000   1.0000   1.0000   1.0000   1.0000
     1.0000   1.0000   1.0000   1.0000   1.0000   1.0000   1.0000   1.0000
     1.0000   1.0000   1.0000   1.0000   1.0000   1.0000   1.0000   1.0000
     1.0000   1.0000   1.0000   1.0000   1.0000   1.0000   1.0000   1.0000
     1.0000   1.0000   1.0000   1.0000   1.0000   1.0000   1.0000   1.0000
     1.0000   1.0000   1.0000   1.0000   1.0000   1.0000   1.0000   1.0000
     1.0000   1.0000   1.0000   1.0000   1.0000   1.0000   1.0000   1.0000
     1.0000   1.0000   1.0000   1.0000   1.0000   1.0000   1.0000   1.0000
     1.0000   1.0000   1.0000   1.0000   1.0000   1.0000   1.0000   1.0000
     1.0000   1.0000   1.0000   1.0000   1.0000   1.0000   1.0000   1.0000
     1.0000   1.0000   1.0000   1.0000   1.0000   1.0000   1.0000   1.0000
     1.0000   1.0000   1.0000   1.0000   1.0000   1.0000   1.0000   1.0000
     1.0000   1.0000   1.0000   1.0000   1.0000   1.0000   1.0000   1.0000
     1.0000   1.0000   1.0000   1.0000   1.0000   1.0000   1.0000   1.0000
     1.0000   1.0000   1.0000   1.0000   1.0000   1.0000   1.0000   1.0000
     1.0000   1.0000   1.0000   1.0000   1.0000   1.0000   1.0000   1.0000
     1.0000   1.0000   1.0000   1.0000   1.0000   1.0000   1.0000   1.0000
     1.0000   1.0000   1.0000   1.0000   1.0000   1.0000   1.0000   1.0000
     1.0000   1.0000   1.0000   1.0000   1.0000   1.0000   1.0000   1.0000
     1.0000   1.0000   1.0000   1.0000   1.0000   1.0000   1.0000   1.0000
     1.0000   1.0000   1.0000   1.0000   1.0000   1.0000   1.0000   1.0000
     1.0000   1.0000   1.0000   1.0000   1.0000   1.0000   1.0000   1.0000
     1.0000   1.0000   1.0000   1.0000   1.0000   1.0000   1.0000   1.0000
     1.0000   1.0000   1.0000   1.0000   1.0000   1.0000   1.0000   1.0000
     1.0000   1.0000   1.0000   1.0000   1.0000   1.0000   1.0000   1.0000
     1.0000   1.0000   1.0000   1.0000   1.0000   1.0000   1.0000   1.0000
     1.0000   1.0000   1.0000   1.0000   1.0000   1.0000   1.0000   1.0000
     1.0000   1.0000   1.0000   1.0000   1.0000   1.0000   1.0000   1.0000
     1.0000   1.0000   1.0000   1.0000   1.0000   1.0000   1.0000   1.0000
     1.0000   1.0000   1.0000   1.0000   1.0000   1.0000   1.0000   1.0000
     1.0000   1.0000   1.0000   1.0000   1.0000   1.0000   1.0000   1.0000
     1.0000   1.0000   1.0000   1.0000   1.0000   1.0000   1.0000   1.0000
     1.0000   1.0000   1.0000   1.0000   1.0000   1.0000   1.0000   1.0000
     1.0000   1.0000   1.0000   1.0000   1.0000   1.0000   1.0000   1.0000
     1.0000   1.0000   1.0000   1.0000   1.0000   1.0000   1.0000   1.0000
     1.0000   1.0000   1.0000   1.0000   1.0000   1.0000   1.0000   1.0000
     1.0000   1.0000   1.0000   1.0000   1.0000   1.0000   1.0000   1.0000
     1.0000   1.0000   1.0000   1.0000   1.0000   1.0000   1.0000   1.0000
     1.0000   1.0000   1.0000   1.0000   1.0000   1.0000   1.0000   1.0000
     1.0000   1.0000   1.0000   1.0000   1.0000   1.0000   1.0000   1.0000
     1.0000   1.0000   1.0000   1.0000   1.0000   1.0000   1.0000   1.0000
     1.0000   1.0000   1.0000   1.0000   1.0000   1.0000   1.0000   1.0000
     1.0000   1.0000   1.0000   1.0000   1.0000   1.0000   1.0000   1.0000
     1.0000   1.0000   1.0000   1.0000   1.0000   1.0000   1.0000   1.0000
     1.0000   1.0000   1.0000   1.0000   1.0000   1.0000   1.0000   1.0000
     1.0000   1.0000   1.0000   1.0000   1.0000   1.0000   1.0000   1.0000
     1.0000   1.0000   1.0000   1.0000   1.0000   1.0000   1.0000   1.0000
     1.0000   1.0000   1.0000   1.0000   1.0000   1.0000   1.0000   1.0000
     1.0000   1.0000   1.0000   1.0000   1.0000   1.0000   1.0000   1.0000
     1.0000   1.0000   1.0000   1.0000   1.0000   1.0000   1.0000   1.0000
     1.0000   1.0000   1.0000   1.0000   1.0000   1.0000   1.0000   1.0000
     1.0000   1.0000   1.0000   1.0000   1.0000   1.0000   1.0000   1.0000
     1.0000   1.0000   1.0000   1.0000   1.0000   1.0000   1.0000   1.0000
     1.0000   1.0000   1.0000   1.0000   1.0000   1.0000   1.0000   1.0000
     1.0000   1.0000   1.0000   1.0000   1.0000   1.0000   1.0000   1.0000
     1.0000   1.0000   1.0000   1.0000   1.0000   1.0000   1.0000   1.0000
     1.0000   1.0000   1.0000   1.0000   1.0000   1.0000   1.0000   1.0000
     1.0000   1.0000   1.0000   1.0000   1.0000   1.0000   1.0000   1.0000
     1.0000   1.0000   1.0000   1.0000   1.0000   1.0000   1.0000   1.0000
     1.0000   1.0000   1.0000   1.0000   1.0000   1.0000   1.0000   1.0000
     1.0000   1.0000   1.0000   1.0000   1.0000   1.0000   1.0000   1.0000
     1.0000   1.0000   1.0000   1.0000   1.0000   1.0000   1.0000   1.0000
     1.0000   1.0000   1.0000   1.0000   1.0000   1.0000   1.0000   1.0000
     1.0000   1.0000   1.0000   1.0000   1.0000   1.0000   1.0000   1.0000
     1.0000   1.0000   1.0000   1.0000   1.0000   1.0000   1.0000   1.0000
     1.0000   1.0000   1.0000   1.0000   1.0000   1.0000   1.0000   1.0000
[...]
              0.256004564065566E+03
              0.768805273557106E+01
              0.797912183620701E+03
              0.110749432512388E+03
             -0.116276015032421E+03
              0.453689685514428E+02
             -0.106979468638252E+03
              0.626610041824949E+03
             -0.383898755188034E+01
              0.119886929167980E+03
              0.435060741734621E+03
              0.116730572882017E+03
             -0.330513587567289E+03
             -0.535926621753208E+03
              0.301960785129450E+02
             -0.609696249198030E+03
              0.204421861913133E+03
             -0.105771351336430E+03
             -0.234759064122428E+03
              0.237920790132564E+03
              0.823286656813261E+02
              0.228939259511421E+03
              0.995993042043210E+01
              0.339818694304082E+03
             -0.577016117261833E+03
             -0.410452632467168E+02
             -0.506597813966963E+03
              0.112986595745495E+03
              0.277800768705487E+03
             -0.281449698936422E+02
             -0.185094044801881E+03
              0.415556630894579E+03
             -0.192261175396094E+03
              0.142157503891773E+03
             -0.122172074717911E+03
              0.328966510972350E+03
              0.346184409038848E+03
             -0.149785260189000E+03
              0.296737608348561E+03
              0.111431602953101E+03
             -0.299508671751642E+03
             -0.195689358562247E+03
              0.481212313938868E+03
              0.236040001958845E+03
             -0.204378645549398E+02
             -0.509905207399388E+02
              0.741083252505407E+03
              0.437010965827396E+03
              0.155390319538275E+03
             -0.466798867857281E+03
              0.747898693693601E+03
             -0.349155681897681E+03
             -0.431261738126541E+03
             -0.649918245062380E+03
              0.289766772473919E+03
             -0.584136644797985E+03
              0.264075800484673E+03
              0.426896999627083E+03
              0.303961411443390E+03
              0.773538192221451E+02
              0.201326493856646E+03
             -0.481398991730659E+03
             -0.172453063950883E+03
             -0.130944843509487E+03
              0.246948661459981E+03
              0.489576494960830E+03
              0.505931572280836E+03
              0.390097621710258E+03
             -0.895086164681388E+02
              0.124358423500168E+03
              0.695078971918610E+01
             -0.160522105916486E+03
              0.206289066304889E+03
              0.224635144621376E+03
             -0.284440970118901E+03
             -0.338278096922715E+03
             -0.133523009161371E+03
              0.351323445861540E+03
              0.168339378194300E+03
             -0.241069738546269E+03
             -0.369260269087244E+03
             -0.537679401925456E+03
              0.110834718622255E+02
              0.144339817771383E+03
             -0.203075219337232E+03
              0.752117983700448E+03
              0.365498739821096E+02
             -0.852256678853800E+03
              0.188576938243231E+03
              0.373603245698245E+03
             -0.171263627677698E+03
              0.205995841743578E+02
             -0.237217740266328E+03
              0.348615422640673E+03
              0.161238237260273E+03
             -0.446004086376785E+03
              0.531207998968269E+03
              0.150142526157711E+02
             -0.227882373497953E+03
             -0.270524769856010E+03
              0.105761868418991E+04
              0.471193096676250E+03
             -0.131342039588302E+03
              0.259469466108813E+03
             -0.462301195448518E+03
             -0.827545979689139E+02
             -0.469062815902936E+03
              0.187895696231832E+03
              0.319356797136273E+03
              0.379229267127836E+03
             -0.151044985973951E+03
              0.446684015292140E+02
              0.433006464468429E+03
              0.160301885436087E+03
              0.271467795937263E+03
              0.115590185087205E+03
             -0.779270021423551E+02
              0.116976426167948E+02
             -0.714501960311343E+02
              0.110293990970215E+03
              0.243693025302450E+02
             -0.394432877293259E+03
              0.600578819164069E+03
              0.240216971385564E+03
             -0.431511203890182E+03
             -0.320267237684478E+03
             -0.464003371908979E+03
             -0.219688359311902E+03
             -0.161589526649267E+03
             -0.358844524281617E+03
             -0.351271244454995E+03
              0.442858589976971E+03
              0.349272871829506E+03
             -0.435614381273290E+02
              0.509265460265807E+03
              0.965249572470739E+02
             -0.822037476844320E+03
              0.463743662232755E+03
              0.107121838213548E+03
              0.357565076463075E+03
              0.798074384595700E+02
              0.597791720404600E+02
              0.708713820801581E+02
              0.186175382961125E+03
             -0.340878616170056E+03
             -0.170188725909313E+03
             -0.312995287553299E+03
             -0.259920572497791E+03
              0.118441765424960E+03
             -0.297597915005420E+03
              0.139159368413478E+03
              0.184097388988296E+03
             -0.196027802391281E+03
             -0.103348908797476E+03
             -0.905108307215141E+01
              0.508838365318457E+03
              0.809255680049637E+02
              0.504538405888123E+03
              0.179527411660150E+03
             -0.651668075267476E+03
             -0.221850078193106E+03
              0.222785698620754E+03
              0.501348374719822E+03
              0.964496279032435E+02
              0.195885665070649E+03
              0.472718673642453E+03
             -0.275027768798476E+03
             -0.446493762412505E+03
              0.579971125605493E+03
              0.957706349481714E+01
             -0.615085496706019E+03
              0.206173371107723E+03
              0.407019595273181E+03
             -0.940171625164221E+02
             -0.384991923339000E+03
              0.684424674336988E+02
              0.251533579006073E+02
             -0.210725805848715E+03
              0.764555850785318E+02
             -0.656466879064705E+02
              0.906393175909006E+03
              0.249889838802222E+03
             -0.415932247982530E+03
              0.125901324713131E+03
              0.582035867967558E+03
             -0.372949532672141E+03
             -0.994676984120829E+02
             -0.329986031107611E+03
              0.263494348974471E+03
              0.112032685496494E+03
              0.174982125646322E+03
              0.134675493332495E+02
              0.653558369233614E+03
             -0.365500222474979E+03
             -0.277445848789818E+03
             -0.306187205077175E+03
              0.263276724051535E+03
              0.628718354274681E+03
             -0.795143811220817E+02
              0.259719668313407E+03
             -0.351560147668795E+03
              0.352019720578523E+02
             -0.104127193366567E+03
             -0.349993038628240E+02
             -0.149673408767538E+03
             -0.137734632342678E+03
             -0.101600610457383E+03
              0.108672203524551E+03
              0.183281149889352E+03
             -0.421853771057342E+03
              0.306610125694908E+03
             -0.495492977332353E+03
              0.370086154888891E+03
             -0.429573177939576E+03
              0.650071457352892E+03
              0.346584446104065E+03
              0.386686736425173E+03
              0.885397037686334E+02
              0.993957648140195E+02
             -0.872266947768277E+03
              0.149626414190598E+03
              0.396804208832809E+02
              0.685550836096936E+02
             -0.130105506011388E+03
              0.678799630265821E+03
             -0.206369439610192E+03
             -0.268069066976996E+03
             -0.673017969769837E+03
             -0.223953884246549E+03
             -0.305626520905061E+03
             -0.271036899972498E+03
             -0.743243924912363E+02
             -0.141855815975956E+03
             -0.188021276067222E+03
             -0.282619656289166E+03
              0.210605599088923E+03
              0.696373119005256E+03
              0.593864844864727E+03
             -0.118121124839329E+03
             -0.728711303417015E+03
             -0.306407935999401E+03
              0.140469921608670E+03
              0.155619807281277E+03
              0.225310843247909E+03
              0.175320819714429E+03
              0.570778902006296E+02
              0.674355768212849E+03
             -0.167284773102816E+03
              0.342164008070709E+03
              0.157071867731674E+03
             -0.220754562880538E+03
             -0.138873605924020E+03
              0.311764593634020E+03
             -0.180603689413799E+03
             -0.128175040244799E+03
             -0.831582002320085E+02
              0.389527578534993E+03
             -0.522051853640298E+03
             -0.573800013786304E+02
             -0.427489354589022E+03
             -0.924306679928965E+03
              0.345921751988590E+01
             -0.114449012839550E+03
              0.317409512188750E+03
              0.377409375058352E+03
              0.517644344717126E+03
             -0.340472928417024E+03
              0.553876993780658E+03
              0.144879874144690E+03
             -0.165237455753429E+03
              0.100019945753187E+03
             -0.175834122505980E+03
             -0.123148763318637E+03
              0.282034981837492E+03
             -0.274923023874454E+03
              0.668910530640656E+03
             -0.171072690184454E+03
             -0.357779931944286E+03
              0.680853022443363E+03
             -0.382592166495929E+03
             -0.567252706673971E+02
              0.695597344725661E+02
              0.211167379611184E+03
             -0.311906038504494E+03
             -0.233642581414185E+03
              0.355026114591325E+03
             -0.575895324031269E+03
              0.422899823827144E+03
              0.552838906066391E+02
              0.330332508192611E+03
              0.458034689018062E+03
              0.115401778748799E+03
             -0.602827195715706E+03
             -0.266166144454095E+03
             -0.445535696305915E+03
             -0.279329795666612E+03
             -0.918914636373770E+02
              0.109538562655055E+03
             -0.209021819052272E+03
              0.146902968187196E+02
             -0.677662381976092E+03
              0.167527606968026E+02
             -0.428383088806575E+03
              0.420745736910227E+03
             -0.226233541285619E+03
             -0.444333018007137E+02
              0.302816182351035E+03
              0.324564535913434E+02
              0.301415094377973E+03
             -0.540298917212477E+03
              0.118534622019504E+03
              0.372548266531852E+02
              0.217231506797560E+03
              0.389995857482785E+03
             -0.681814537160503E+02
             -0.427761895180967E+03
             -0.244792865433071E+03
             -0.169007355103872E+03
             -0.822583246988579E+02
              0.403405183814617E+03
              0.248412593432193E+03
             -0.259512089526191E+03
             -0.236562028412608E+03
              0.195510884125111E+03
              0.191363983403478E+03
             -0.530404824219194E+03
              0.148543973699002E+03
              0.389172581765699E+03
             -0.191347261156903E+02
              0.455961983366437E+03
              0.231235732585634E+03
              0.364427621097921E+03
              0.553411646408554E+03
              0.908288674663311E+02
             -0.773872950588056E+03
              0.794499320309606E+02
              0.858364562487456E+03
              0.617612125688191E+03
             -0.414108889244409E+03
              0.412971802982953E+02
              0.537421112859665E+03
              0.488525320904908E+03
              0.232399925115966E+03
             -0.123148433008220E+03
              0.222646752531725E+03
              0.467826513972379E+03
             -0.209037579840048E+03
             -0.149758937755286E+03
              0.291969985989293E+03
             -0.209478851149347E+02
              0.274070508077354E+03
             -0.684747444210941E+02
              0.564981490635640E+03
             -0.215434434924319E+03
              0.128973953012633E+03
             -0.263317471899642E+03
              0.266853643208004E+03
             -0.352647724714243E+02
              0.421754496874054E+03
              0.294805049735492E+02
              0.166568829913988E+03
             -0.279866769038866E+03
             -0.172130294986308E+03
             -0.812282489599056E+02
             -0.699885915300340E+02
              0.442732918978548E+03
              0.183439844884910E+03
              0.568385707924078E+03
              0.472911041478019E+03
              0.105740764990653E+03
              0.404741497760551E+01
              0.555393137369107E+03
              0.292333580019930E+03
              0.793126025960601E+01
              0.493409964103642E+03
             -0.442730762161958E+03
              0.145290932053881E+03
             -0.278453856545280E+03
             -0.111499451568530E+03
              0.710521633129562E+03
             -0.108811027046667E+03
             -0.525865962757871E+01
             -0.936064720217594E+02
              0.590582638054384E+03
             -0.137770942338107E+03
             -0.163638954803207E+02
              0.119217486376624E+04
             -0.385244874066024E+03
             -0.411359175005984E+03
             -0.431678519691325E+03
             -0.253018334066766E+03
              0.251894904891513E+03
             -0.107666115250796E+03
              0.697596242548825E+02
             -0.218291264545596E+02
              0.150908543547880E+03
              0.245966361897165E+03
              0.283462605554560E+03
              0.417011042543221E+03
              0.230279209971375E+03
              0.292624930100535E+03
             -0.472907947955680E+03
             -0.452641282450003E+03
             -0.114570961085075E+03
             -0.443723743599765E+03
              0.710495974748439E+03
              0.608962598626992E+03
              0.291007536431494E+03
              0.787929042740069E+03
             -0.410134061803657E+03
             -0.167134214517689E+03
             -0.232435376401031E+03
              0.651737555123184E+03
 
 BEEF-vdW xc energy contributions
            1 :    -5972.543504268129     
            2 :     5378.956962667717     
            3 :    -4384.716803255054     
            4 :     3281.140656853116     
            5 :    -2324.327656502819     
            6 :     1637.691328430095     
            7 :    -1198.363526485586     
            8 :     900.7868093930365     
            9 :    -646.2604599824554     
           10 :     400.1765784601012     
           11 :    -189.5511388092109     
           12 :     57.22809732570204     
           13 :    -14.85285721367927     
           14 :     29.42216627986363     
           15 :    -47.72650305399293     
           16 :     34.22971705566852     
           17 :     8.590225721499337     
           18 :    -50.89296210808789     
           19 :     65.14220412173199     
           20 :    -49.59478470328577     
           21 :     28.06298350069119     
           22 :    -28.75817073002509     
           23 :     61.07974938577263     
           24 :    -108.9757396981604     
           25 :     144.7402621957654     
           26 :    -150.7042891479923     
           27 :     131.1971752666686     
           28 :    -106.3715262776914     
           29 :     94.49713709460048     
           30 :    -97.81805504978183     
           31 :    -512.0814974306477     
           32 :    -350.8313148202296     

     Writing all to output data dir ./GaN.save/
 
     init_run     :     12.77s CPU     36.35s WALL (       1 calls)
     electrons    :   3173.97s CPU   3220.36s WALL (       1 calls)
     forces       :     64.12s CPU     65.12s WALL (       1 calls)
     stress       :   1241.95s CPU   1261.30s WALL (       1 calls)

     Called by init_run:
     wfcinit      :      8.22s CPU     31.30s WALL (       1 calls)
     potinit      :      1.64s CPU      1.89s WALL (       1 calls)
     hinit0       :      1.32s CPU      1.44s WALL (       1 calls)

     Called by electrons:
     c_bands      :   3127.27s CPU   3172.12s WALL (       2 calls)
     sum_band     :     41.89s CPU     42.47s WALL (       2 calls)
     v_of_rho     :      1.91s CPU      2.06s WALL (       2 calls)
     v_h          :      0.02s CPU      0.02s WALL (       2 calls)
     v_xc         :     32.97s CPU     34.56s WALL (      38 calls)
     newd         :      0.36s CPU      0.43s WALL (       2 calls)
     PAW_pot      :      1.11s CPU      1.12s WALL (       2 calls)
     mix_rho      :      0.00s CPU      0.01s WALL (       2 calls)
     vdW_kernel   :      0.16s CPU      0.17s WALL (       1 calls)

     Called by c_bands:
     init_us_2    :      2.85s CPU      3.04s WALL (      12 calls)
     init_us_2:cp :      2.85s CPU      3.04s WALL (      12 calls)
     cegterg      :   2593.31s CPU   2634.09s WALL (       4 calls)

     Called by sum_band:
     sum_band:wei :      0.01s CPU      0.01s WALL (       2 calls)
     sum_band:loo :     41.29s CPU     41.66s WALL (       2 calls)
     sum_band:buf :      0.49s CPU      0.50s WALL (       4 calls)
     sum_band:ini :      1.06s CPU      1.07s WALL (       4 calls)
     sum_band:cal :     28.40s CPU     28.62s WALL (       4 calls)
     sum_band:bec :      0.23s CPU      0.23s WALL (       4 calls)
     addusdens    :      0.39s CPU      0.42s WALL (       2 calls)
     addusd:skk   :      0.07s CPU      0.08s WALL (       4 calls)
     addusd:dgemm :      0.18s CPU      0.21s WALL (       4 calls)
     addusd:qvan2 :      0.05s CPU      0.05s WALL (       4 calls)

     Called by *egterg:
     cdiaghg      :   2124.00s CPU   2152.07s WALL (      35 calls)
     cegterg:over :     87.16s CPU     89.78s WALL (      35 calls)
     cegterg:upda :     55.09s CPU     56.01s WALL (      35 calls)
     cegterg:last :     28.35s CPU     28.56s WALL (       4 calls)
     h_psi        :    199.34s CPU    202.41s WALL (      39 calls)
     s_psi        :     71.04s CPU     72.23s WALL (      39 calls)
     g_psi        :      0.32s CPU      0.33s WALL (      35 calls)

     Called by h_psi:
     h_psi:calbec :     73.81s CPU     74.41s WALL (      39 calls)
     vloc_psi     :     53.80s CPU     54.38s WALL (      39 calls)
     add_vuspsi   :     70.90s CPU     72.14s WALL (      39 calls)

     General routines
     calbec       :    202.69s CPU    204.21s WALL (      53 calls)
     fft          :     13.25s CPU     13.41s WALL (    2232 calls)
     ffts         :      0.02s CPU      0.02s WALL (       4 calls)
     fftw         :     59.72s CPU     60.37s WALL (   38894 calls)
     interpolate  :      0.03s CPU      0.03s WALL (       2 calls)
 
     Parallel routines

     PAW routines
     PAW_pot      :      1.11s CPU      1.12s WALL (       2 calls)
     PAW_symme    :      0.01s CPU      0.01s WALL (       3 calls)
 
     PWSCF        :      1h15m CPU      1h17m WALL

 
   This run was terminated on:  14:33:51   2May2024            

=------------------------------------------------------------------------------=
   JOB DONE.
=------------------------------------------------------------------------------=
