
     Program PWSCF v.7.1 starts on 20Feb2024 at 15:50:34 

     This program is part of the open-source Quantum ESPRESSO suite
     for quantum simulation of materials; please cite
         "P. Giannozzi et al., J. Phys.:Condens. Matter 21 395502 (2009);
         "P. Giannozzi et al., J. Phys.:Condens. Matter 29 465901 (2017);
         "P. Giannozzi et al., J. Chem. Phys. 152 154105 (2020);
          URL http://www.quantum-espresso.org", 
     in publications or presentations arising from this work. More details at
     http://www.quantum-espresso.org/quote

     Parallel version (MPI & OpenMP), running on     128 processor cores
     Number of MPI processes:               128
     Threads/MPI process:                     1

     MPI processes distributed on     1 nodes
     1896051 MiB available memory on the printing compute node when the environment starts
 
     Reading input from espresso.pwi

     Current dimensions of program PWSCF are:
     Max number of different atomic species (ntypx) = 10
     Max number of k-points (npk) =  40000
     Max angular momentum in pseudopotentials (lmaxx) =  4
     file Pb.pbe-dn-kjpaw_psl.1.0.0.UPF: wavefunction(s)  6S 6P 5D renormalized
     file I.pbe-dn-kjpaw_psl.1.0.0.UPF: wavefunction(s)  5S 5P renormalized

     **************************************************************************
     Initializing libbeef V0.1.2 with the BEEF-vdW functional.
     Citation: Wellendorff et al., PRB 85, 235149 (2012).
     **************************************************************************


     IMPORTANT: XC functional enforced from input :
     Exchange-correlation= BEEF-VDW
                           (   1   4  43  14   2   0   0)
     Any further DFT definition will be discarded
     Please, verify this is what you really want

 
     R & G space division:  proc/nbgrp/npool/nimage =     128
     Subspace diagonalization in iterative solution of the eigenvalue problem:
     a serial algorithm will be used

 
     Parallelization info
     --------------------
     sticks:   dense  smooth     PW     G-vecs:    dense   smooth      PW
     Min          14      11      3                 5482     3915     546
     Max          15      12      5                 5555     3992     595
     Sum        1843    1483    421               704811   505143   73013
 
     Using Slab Decomposition
 


     bravais-lattice index     =            4
     lattice parameter (alat)  =       8.7477  a.u.
     unit-cell volume          =    6379.6139 (a.u.)^3
     number of atoms/cell      =           21
     number of atomic types    =            2
     number of electrons       =       336.00
     number of Kohn-Sham states=          202
     kinetic-energy cutoff     =      70.0000  Ry
     charge density cutoff     =     350.0000  Ry
     scf convergence threshold =      1.0E-07
     mixing beta               =       0.7000
     number of iterations used =            8  plain     mixing
     energy convergence thresh.=      1.0E-04
     force convergence thresh. =      1.0E-03
     press convergence thresh. =      5.0E-01
     Exchange-correlation= BEEF-VDW
                           (   1   4  43  14   2   0   0)
     nstep                     =           50


     celldm(1)=   8.747735  celldm(2)=   0.000000  celldm(3)=  11.004667
     celldm(4)=   0.000000  celldm(5)=   0.000000  celldm(6)=   0.000000

     crystal axes: (cart. coord. in units of alat)
               a(1) = (   1.000000   0.000000   0.000000 )  
               a(2) = (  -0.500000   0.866025   0.000000 )  
               a(3) = (   0.000000   0.000000  11.004667 )  

     reciprocal axes: (cart. coord. in units 2 pi/alat)
               b(1) = (  1.000000  0.577350 -0.000000 )  
               b(2) = (  0.000000  1.154701  0.000000 )  
               b(3) = (  0.000000 -0.000000  0.090871 )  


     PseudoPot. # 1 for Pb read from file:
     //group///packages/espresso/pseudo/psl_1.0.0/pslibrary.1.0.0/pbe/PSEUDOPOTENTIALS/Pb.pbe-dn-kjpaw_psl.1.0.0.UPF
     MD5 check sum: 39ab5b8a6bbd56b7735ad9f188aac93a
     Pseudo is Projector augmented-wave + core cor, Zval = 14.0
     Generated using 'atomic' code by A. Dal Corso  v.7.1
     Shape of augmentation charge: PSQ
     Using radial grid of 1281 points,  6 beta functions with: 
                l(1) =   0
                l(2) =   0
                l(3) =   1
                l(4) =   1
                l(5) =   2
                l(6) =   2
     Q(r) pseudized with 0 coefficients 


     PseudoPot. # 2 for I  read from file:
     //group///packages/espresso/pseudo/psl_1.0.0/pslibrary.1.0.0/pbe/PSEUDOPOTENTIALS/I.pbe-dn-kjpaw_psl.1.0.0.UPF
     MD5 check sum: bfa8781bc1224d19af3f3980e3fab11e
     Pseudo is Projector augmented-wave + core cor, Zval = 17.0
     Generated using 'atomic' code by A. Dal Corso  v.7.1
     Shape of augmentation charge: PSQ
     Using radial grid of 1247 points,  6 beta functions with: 
                l(1) =   0
                l(2) =   0
                l(3) =   1
                l(4) =   1
                l(5) =   2
                l(6) =   2
     Q(r) pseudized with 0 coefficients 


     atomic species   valence    mass     pseudopotential
        Pb            14.00   207.20000     Pb( 1.00)
        I             17.00   126.90447     I ( 1.00)

      6 Sym. Ops. (no inversion) found


                                    s                        frac. trans.

      isym =  1     identity                                     

 cryst.   s( 1) = (     1          0          0      )
                  (     0          1          0      )
                  (     0          0          1      )

 cart.    s( 1) = (  1.0000000  0.0000000  0.0000000 )
                  (  0.0000000  1.0000000  0.0000000 )
                  (  0.0000000  0.0000000  1.0000000 )


      isym =  2     120 deg rotation - cryst. axis [0,0,1]       

 cryst.   s( 2) = (     0          1          0      )
                  (    -1         -1          0      )
                  (     0          0          1      )

 cart.    s( 2) = ( -0.5000000 -0.8660254  0.0000000 )
                  (  0.8660254 -0.5000000  0.0000000 )
                  (  0.0000000  0.0000000  1.0000000 )


      isym =  3     120 deg rotation - cryst. axis [0,0,-1]      

 cryst.   s( 3) = (    -1         -1          0      )
                  (     1          0          0      )
                  (     0          0          1      )

 cart.    s( 3) = ( -0.5000000  0.8660254  0.0000000 )
                  ( -0.8660254 -0.5000000  0.0000000 )
                  (  0.0000000  0.0000000  1.0000000 )


      isym =  4     inv. 180 deg rotation - cart. axis [1,0,0]   

 cryst.   s( 4) = (    -1          0          0      )
                  (     1          1          0      )
                  (     0          0          1      )

 cart.    s( 4) = ( -1.0000000  0.0000000  0.0000000 )
                  (  0.0000000  1.0000000  0.0000000 )
                  (  0.0000000  0.0000000  1.0000000 )


      isym =  5     inv. 180 deg rotation - cryst. axis [0,1,0]  

 cryst.   s( 5) = (     1          1          0      )
                  (     0         -1          0      )
                  (     0          0          1      )

 cart.    s( 5) = (  0.5000000  0.8660254  0.0000000 )
                  (  0.8660254 -0.5000000  0.0000000 )
                  (  0.0000000  0.0000000  1.0000000 )


      isym =  6     inv. 180 deg rotation - cryst. axis [1,1,0]  

 cryst.   s( 6) = (     0         -1          0      )
                  (    -1          0          0      )
                  (     0          0          1      )

 cart.    s( 6) = (  0.5000000 -0.8660254  0.0000000 )
                  ( -0.8660254 -0.5000000  0.0000000 )
                  (  0.0000000  0.0000000  1.0000000 )


     point group C_3v (3m)  
     there are  3 classes
     the character table:

       E     2C3   3s_v 
A_1    1.00  1.00  1.00
A_2    1.00  1.00 -1.00
E      2.00 -1.00  0.00

     the symmetry operations in each class and the name of the first element:

     E        1
          identity                                               
     2C3      2    3
          120 deg rotation - cryst. axis [0,0,1]                 
     3s_v     4    5    6
          inv. 180 deg rotation - cart. axis [1,0,0]             

   Cartesian axes

     site n.     atom                  positions (alat units)
         1           Pb  tau(   1) = (  -0.0000005   0.5773506   1.9890856  )
         2           Pb  tau(   2) = (  -0.0000005   0.5773506   5.1362214  )
         3           Pb  tau(   3) = (   0.0000000   0.0000000   9.8458956  )
         4           Pb  tau(   4) = (  -0.0000005   0.5773506   8.2703718  )
         5           Pb  tau(   5) = (  -0.0000005   0.5773506   6.7007843  )
         6           Pb  tau(   6) = (  -0.0000005   0.5773506   3.5658591  )
         7           Pb  tau(   7) = (  -0.0000005   0.5773506   0.4213779  )
         8           I   tau(   8) = (   0.5000005   0.2886749  10.2504196  )
         9           I   tau(   9) = (   0.0000000   0.0000000   4.7346785  )
        10           I   tau(  10) = (   0.5000005   0.2886749   0.8245711  )
        11           I   tau(  11) = (   0.5000005   0.2886749   8.6724413  )
        12           I   tau(  12) = (   0.0000000   0.0000000   1.5866606  )
        13           I   tau(  13) = (   0.5000005   0.2886749   3.9680606  )
        14           I   tau(  14) = (  -0.0000005   0.5773506   9.4413703  )
        15           I   tau(  15) = (   0.0000000   0.0000000   0.0182376  )
        16           I   tau(  16) = (   0.5000005   0.2886749   7.1037153  )
        17           I   tau(  17) = (   0.0000000   0.0000000   6.2985953  )
        18           I   tau(  18) = (   0.0000000   0.0000000   3.1635121  )
        19           I   tau(  19) = (   0.5000005   0.2886749   2.3912227  )
        20           I   tau(  20) = (   0.5000005   0.2886749   5.5385798  )
        21           I   tau(  21) = (   0.0000000   0.0000000   7.8690832  )

   Crystallographic axes

     site n.     atom                  positions (cryst. coord.)
         1           Pb  tau(   1) = (  0.3333330  0.6666670  0.1807493  )
         2           Pb  tau(   2) = (  0.3333330  0.6666670  0.4667312  )
         3           Pb  tau(   3) = (  0.0000000  0.0000000  0.8947018  )
         4           Pb  tau(   4) = (  0.3333330  0.6666670  0.7515331  )
         5           Pb  tau(   5) = (  0.3333330  0.6666670  0.6089039  )
         6           Pb  tau(   6) = (  0.3333330  0.6666670  0.3240315  )
         7           Pb  tau(   7) = (  0.3333330  0.6666670  0.0382908  )
         8           I   tau(   8) = (  0.6666670  0.3333330  0.9314611  )
         9           I   tau(   9) = (  0.0000000  0.0000000  0.4302428  )
        10           I   tau(  10) = (  0.6666670  0.3333330  0.0749292  )
        11           I   tau(  11) = (  0.6666670  0.3333330  0.7880694  )
        12           I   tau(  12) = (  0.0000000  0.0000000  0.1441807  )
        13           I   tau(  13) = (  0.6666670  0.3333330  0.3605798  )
        14           I   tau(  14) = (  0.3333330  0.6666670  0.8579424  )
        15           I   tau(  15) = (  0.0000000  0.0000000  0.0016573  )
        16           I   tau(  16) = (  0.6666670  0.3333330  0.6455184  )
        17           I   tau(  17) = (  0.0000000  0.0000000  0.5723567  )
        18           I   tau(  18) = (  0.0000000  0.0000000  0.2874700  )
        19           I   tau(  19) = (  0.6666670  0.3333330  0.2172917  )
        20           I   tau(  20) = (  0.6666670  0.3333330  0.5032937  )
        21           I   tau(  21) = (  0.0000000  0.0000000  0.7150678  )

     number of k points=     4  Gaussian smearing, width (Ry)=  0.0100
                       cart. coord. in units 2pi/alat
        k(    1) = (   0.0000000   0.0000000   0.0000000), wk =   0.1250000
        k(    2) = (   0.0000000   0.2886751   0.0000000), wk =   0.7500000
        k(    3) = (   0.0000000  -0.5773503   0.0000000), wk =   0.3750000
        k(    4) = (   0.2500000   0.4330127   0.0000000), wk =   0.7500000

                       cryst. coord.
        k(    1) = (   0.0000000   0.0000000   0.0000000), wk =   0.1250000
        k(    2) = (   0.0000000   0.2500000   0.0000000), wk =   0.7500000
        k(    3) = (   0.0000000  -0.5000000   0.0000000), wk =   0.3750000
        k(    4) = (   0.2500000   0.2500000   0.0000000), wk =   0.7500000

     Dense  grid:   704811 G-vectors     FFT dimensions: (  54,  54, 576)

     Smooth grid:   505143 G-vectors     FFT dimensions: (  48,  48, 540)

     Dynamical RAM for                 wfc:       1.52 MB

     Dynamical RAM for     wfc (w. buffer):       7.58 MB

     Dynamical RAM for           str. fact:       0.17 MB

     Dynamical RAM for           local pot:       0.00 MB

     Dynamical RAM for          nlocal pot:       2.84 MB

     Dynamical RAM for                qrad:       6.01 MB

     Dynamical RAM for          rho,v,vnew:       0.59 MB

     Dynamical RAM for               rhoin:       0.20 MB

     Dynamical RAM for            rho*nmix:       1.34 MB

     Dynamical RAM for           G-vectors:       0.35 MB

     Dynamical RAM for          h,s,v(r/c):      29.89 MB

     Dynamical RAM for          <psi|beta>:       1.17 MB

     Dynamical RAM for                 psi:       6.07 MB

     Dynamical RAM for                hpsi:       6.07 MB

     Dynamical RAM for                spsi:       6.07 MB

     Dynamical RAM for      wfcinit/wfcrot:       3.97 MB

     Dynamical RAM for           addusdens:      16.78 MB

     Dynamical RAM for          addusforce:      19.06 MB

     Dynamical RAM for         addusstress:      16.87 MB

     Estimated static dynamical RAM per process >      18.53 MB

     Estimated max dynamical RAM per process >      69.12 MB

     Estimated total dynamical RAM >       8.64 GB

     Check: negative core charge=   -0.000001

     Initial potential from superposition of free atoms

     starting charge     335.9825, renormalised to     336.0000


     %%%%%%%%%%%%%%%%%%%%%%%%%%%%%%%%%%%%%%%%%%%%%%%%%%%%%%%%%%%%%%%%%%%%%%%%
     %                                                                      %
     % You are using vdW-DF, which was implemented by the Thonhauser group. %
     % Please cite the following two papers that made this development      %
     % possible and the two reviews that describe the various versions:     %
     %                                                                      %
     %   T. Thonhauser et al., PRL 115, 136402 (2015).                      %
     %   T. Thonhauser et al., PRB 76, 125112 (2007).                       %
     %   K. Berland et al., Rep. Prog. Phys. 78, 066501 (2015).             %
     %   D.C. Langreth et al., J. Phys.: Condens. Matter 21, 084203 (2009). %
     %                                                                      %
     % If you are calculating stress with vdW-DF, please also cite:         %
     %                                                                      %
     %   R. Sabatini et al., J. Phys.: Condens. Matter 24, 424209 (2012).   %
     %                                                                      %
     %%%%%%%%%%%%%%%%%%%%%%%%%%%%%%%%%%%%%%%%%%%%%%%%%%%%%%%%%%%%%%%%%%%%%%%%

     %%%%%%%%%%%%%%%%%%%%%%%%%%%%%%%%%%%%%%%%%%%%%%%%%%%%%%%%%%%%%%%%%%%%%%%%
     %                                                                      %
     %  vdW-DF NEWS:                                                        %
     %                                                                      %
     %  * vdW-DF3 is now available. DOI: 10.1021/acs.jctc.0c00471           %
     %    use with input_dft = 'vdW-DF3-opt1' or 'vdW-DF3-opt2'             %
     %                                                                      %
     %  * Unscreened and range-separated vdW-DF hybrid functionals          %
     %    DOI: 10.1063/1.4986522 and 10.1088/1361-648X/ac2ad2               %
     %    use with input_dft = 'vdW-DF-cx0' (etc) and 'vdW-DF-ahcx'         %
     %                                                                      %
     %%%%%%%%%%%%%%%%%%%%%%%%%%%%%%%%%%%%%%%%%%%%%%%%%%%%%%%%%%%%%%%%%%%%%%%%


     Carrying out vdW-DF run using the following parameters:
     Nqs    =  20  Npoints =  1024  r_max =  100.000
     q_mesh =  0.00001000  0.04494208  0.09755937  0.15916263
               0.23128650  0.31572767  0.41458969  0.53033537
               0.66584808  0.82450364  1.01025438  1.22772762
               1.48234092  1.78043706  2.12944203  2.53805004
               3.01644009  3.57652955  4.23227104  5.00000000


     -----------------------------------------------
     Non-local corr. energy    =       9.97424507 Ry
     -----------------------------------------------

     Starting wfcs are  189 randomized atomic wfcs +   13 random wfcs
     Checking if some PAW data can be deallocated... 
       PAW data deallocated on   84 nodes for type:  1
       PAW data deallocated on   44 nodes for type:  2

     total cpu time spent up to now is        3.2 secs

     Self-consistent Calculation

     iteration #  1     ecut=    70.00 Ry     beta= 0.70
     Davidson diagonalization with overlap

---- Real-time Memory Report at c_bands before calling an iterative solver
           246 MiB given to the printing process from OS
             0 MiB allocation reported by mallinfo(arena+hblkhd)
       1889059 MiB available memory on the node where the printing process lives
------------------
     ethr =  1.00E-02,  avg # of iterations =  8.3

     Threshold (ethr) on eigenvalues was too large:
     Diagonalizing with lowered threshold

     Davidson diagonalization with overlap

---- Real-time Memory Report at c_bands before calling an iterative solver
           287 MiB given to the printing process from OS
             0 MiB allocation reported by mallinfo(arena+hblkhd)
       1887729 MiB available memory on the node where the printing process lives
------------------
     ethr =  1.82E-04,  avg # of iterations =  9.5


     -----------------------------------------------
     Non-local corr. energy    =      10.04948888 Ry
     -----------------------------------------------


     total cpu time spent up to now is       25.4 secs

     total energy              =  -14165.17865560 Ry
     estimated scf accuracy    <       0.56511251 Ry

     iteration #  2     ecut=    70.00 Ry     beta= 0.70
     Davidson diagonalization with overlap

---- Real-time Memory Report at c_bands before calling an iterative solver
           292 MiB given to the printing process from OS
             0 MiB allocation reported by mallinfo(arena+hblkhd)
       1887323 MiB available memory on the node where the printing process lives
------------------
     ethr =  1.68E-04,  avg # of iterations =  6.0


     -----------------------------------------------
     Non-local corr. energy    =      10.02558418 Ry
     -----------------------------------------------


     total cpu time spent up to now is       34.4 secs

     total energy              =  -14165.23764635 Ry
     estimated scf accuracy    <       0.73329193 Ry

     iteration #  3     ecut=    70.00 Ry     beta= 0.70
     Davidson diagonalization with overlap

---- Real-time Memory Report at c_bands before calling an iterative solver
           294 MiB given to the printing process from OS
             0 MiB allocation reported by mallinfo(arena+hblkhd)
       1886998 MiB available memory on the node where the printing process lives
------------------
     ethr =  1.68E-04,  avg # of iterations = 10.0


     -----------------------------------------------
     Non-local corr. energy    =      10.02200009 Ry
     -----------------------------------------------


     total cpu time spent up to now is       45.5 secs

     total energy              =  -14165.40558041 Ry
     estimated scf accuracy    <       0.02549632 Ry

     iteration #  4     ecut=    70.00 Ry     beta= 0.70
     Davidson diagonalization with overlap

---- Real-time Memory Report at c_bands before calling an iterative solver
           300 MiB given to the printing process from OS
             0 MiB allocation reported by mallinfo(arena+hblkhd)
       1886857 MiB available memory on the node where the printing process lives
------------------
     c_bands:  3 eigenvalues not converged
     ethr =  7.59E-06,  avg # of iterations = 15.3


     -----------------------------------------------
     Non-local corr. energy    =      10.02279595 Ry
     -----------------------------------------------


     total cpu time spent up to now is       63.1 secs

     total energy              =  -14165.40732630 Ry
     estimated scf accuracy    <       0.02389613 Ry

     iteration #  5     ecut=    70.00 Ry     beta= 0.70
     Davidson diagonalization with overlap

---- Real-time Memory Report at c_bands before calling an iterative solver
           306 MiB given to the printing process from OS
             0 MiB allocation reported by mallinfo(arena+hblkhd)
       1886851 MiB available memory on the node where the printing process lives
------------------
     c_bands:  2 eigenvalues not converged
     ethr =  7.11E-06,  avg # of iterations = 15.5


     -----------------------------------------------
     Non-local corr. energy    =      10.02504758 Ry
     -----------------------------------------------


     total cpu time spent up to now is       79.6 secs

     total energy              =  -14165.41223312 Ry
     estimated scf accuracy    <       0.00821400 Ry

     iteration #  6     ecut=    70.00 Ry     beta= 0.70
     Davidson diagonalization with overlap

---- Real-time Memory Report at c_bands before calling an iterative solver
           307 MiB given to the printing process from OS
             0 MiB allocation reported by mallinfo(arena+hblkhd)
       1886825 MiB available memory on the node where the printing process lives
------------------
     c_bands:  2 eigenvalues not converged
     ethr =  2.44E-06,  avg # of iterations = 17.8


     -----------------------------------------------
     Non-local corr. energy    =      10.02554451 Ry
     -----------------------------------------------


     total cpu time spent up to now is       99.3 secs

     total energy              =  -14165.41327426 Ry
     estimated scf accuracy    <       0.00022514 Ry

     iteration #  7     ecut=    70.00 Ry     beta= 0.70
     Davidson diagonalization with overlap

---- Real-time Memory Report at c_bands before calling an iterative solver
           307 MiB given to the printing process from OS
             0 MiB allocation reported by mallinfo(arena+hblkhd)
       1886823 MiB available memory on the node where the printing process lives
------------------
     c_bands:  2 eigenvalues not converged
     c_bands:  4 eigenvalues not converged
     c_bands:  2 eigenvalues not converged
     c_bands:  1 eigenvalues not converged
     ethr =  6.70E-08,  avg # of iterations = 25.0


     -----------------------------------------------
     Non-local corr. energy    =      10.02576989 Ry
     -----------------------------------------------


     total cpu time spent up to now is      119.7 secs

     total energy              =  -14165.41336991 Ry
     estimated scf accuracy    <       0.00123119 Ry

     iteration #  8     ecut=    70.00 Ry     beta= 0.70
     Davidson diagonalization with overlap

---- Real-time Memory Report at c_bands before calling an iterative solver
           313 MiB given to the printing process from OS
             0 MiB allocation reported by mallinfo(arena+hblkhd)
       1886746 MiB available memory on the node where the printing process lives
------------------
     c_bands:  2 eigenvalues not converged
     ethr =  6.70E-08,  avg # of iterations = 16.5


     -----------------------------------------------
     Non-local corr. energy    =      10.02583762 Ry
     -----------------------------------------------


     total cpu time spent up to now is      139.8 secs

     total energy              =  -14165.41350719 Ry
     estimated scf accuracy    <       0.00004341 Ry

     iteration #  9     ecut=    70.00 Ry     beta= 0.70
     Davidson diagonalization with overlap

---- Real-time Memory Report at c_bands before calling an iterative solver
           316 MiB given to the printing process from OS
             0 MiB allocation reported by mallinfo(arena+hblkhd)
       1886728 MiB available memory on the node where the printing process lives
------------------
     c_bands:  2 eigenvalues not converged
     ethr =  1.29E-08,  avg # of iterations = 15.5


     -----------------------------------------------
     Non-local corr. energy    =      10.02584693 Ry
     -----------------------------------------------


     total cpu time spent up to now is      157.3 secs

     total energy              =  -14165.41351393 Ry
     estimated scf accuracy    <       0.00001044 Ry

     iteration # 10     ecut=    70.00 Ry     beta= 0.70
     Davidson diagonalization with overlap

---- Real-time Memory Report at c_bands before calling an iterative solver
           318 MiB given to the printing process from OS
             0 MiB allocation reported by mallinfo(arena+hblkhd)
       1886698 MiB available memory on the node where the printing process lives
------------------
     c_bands:  2 eigenvalues not converged
     ethr =  3.11E-09,  avg # of iterations = 15.0


     -----------------------------------------------
     Non-local corr. energy    =      10.02583714 Ry
     -----------------------------------------------


     total cpu time spent up to now is      175.2 secs

     total energy              =  -14165.41351583 Ry
     estimated scf accuracy    <       0.00000413 Ry

     iteration # 11     ecut=    70.00 Ry     beta= 0.70
     Davidson diagonalization with overlap

---- Real-time Memory Report at c_bands before calling an iterative solver
           319 MiB given to the printing process from OS
             0 MiB allocation reported by mallinfo(arena+hblkhd)
       1886539 MiB available memory on the node where the printing process lives
------------------
     c_bands:  2 eigenvalues not converged
     ethr =  1.23E-09,  avg # of iterations = 16.0


     -----------------------------------------------
     Non-local corr. energy    =      10.02583704 Ry
     -----------------------------------------------


     total cpu time spent up to now is      192.7 secs

     total energy              =  -14165.41351645 Ry
     estimated scf accuracy    <       0.00000436 Ry

     iteration # 12     ecut=    70.00 Ry     beta= 0.70
     Davidson diagonalization with overlap

---- Real-time Memory Report at c_bands before calling an iterative solver
           321 MiB given to the printing process from OS
             0 MiB allocation reported by mallinfo(arena+hblkhd)
       1886481 MiB available memory on the node where the printing process lives
------------------
     c_bands:  2 eigenvalues not converged
     ethr =  1.23E-09,  avg # of iterations = 16.0


     -----------------------------------------------
     Non-local corr. energy    =      10.02583126 Ry
     -----------------------------------------------


     total cpu time spent up to now is      208.0 secs

     End of self-consistent calculation

          k = 0.0000 0.0000 0.0000 ( 63179 PWs)   bands (ev):

   -40.3217 -40.3217 -40.3208 -40.3205 -40.3205 -40.3201 -40.3201 -40.3197
   -40.3187 -40.3187 -40.3177 -40.3177 -40.3176 -40.3167 -40.3167 -40.3164
   -40.3163 -40.3163 -40.3160 -40.3160 -40.3153 -40.3153 -40.3152 -40.3146
   -40.3146 -40.3145 -40.3145 -40.3136 -40.3136 -40.3136 -40.3130 -40.3130
   -40.3127 -40.3121 -40.3121 -40.3117 -40.3117 -40.3111 -40.3110 -40.3110
   -40.3108 -40.3108 -40.3103 -40.3099 -40.3099 -40.3097 -40.3096 -40.3096
   -40.3093 -40.3093 -40.3093 -40.3093 -40.3087 -40.3076 -40.3076 -40.3065
   -40.3065 -40.3063 -40.3049 -40.3043 -40.3043 -40.3042 -40.3042 -40.3019
   -40.3019 -40.3014 -40.3014 -40.3006 -40.2998 -40.2998 -12.3348 -12.3348
   -12.3329 -12.3329 -12.3308 -12.3308 -12.3295 -12.3295 -12.3285 -12.3285
   -12.3279 -12.3279 -12.3272 -12.3252 -12.3230 -12.3218 -12.3208 -12.3208
   -12.3208 -12.3201 -12.3186 -12.3186 -12.3183 -12.3183 -12.3165 -12.3165
   -12.3151 -12.3151 -12.3142 -12.3142 -12.3136 -12.3136 -12.3109 -12.3039
   -12.3039  -7.7686  -7.7522  -7.7467  -7.7125  -7.7083  -7.6761  -7.6656
    -7.2901  -7.2828  -7.2368  -7.2349  -7.1835  -7.1817  -7.1593  -2.6370
    -2.6196  -2.6144  -2.5760  -2.5678  -2.5375  -2.5317   2.6036   2.6105
     2.7445   2.7467   2.9767   2.9816   3.1569   3.1570   3.1641   3.1647
     3.1647   3.1818   3.1819   3.1858   3.1858   3.2185   3.2185   3.2211
     3.2211   3.2475   3.2475   3.3694   3.3694   3.3973   3.3973   3.4008
     3.4008   3.4434   3.4434   3.4465   3.4465   3.4707   3.4707   3.4806
     3.4806   3.4818   3.6603   3.6703   3.8936   3.9006   4.0301   4.0412
     6.5208   6.5344   6.5919   6.5962   6.6741   6.6766   6.7128   7.4091
     7.4092   7.4238   7.4238   7.4510   7.4510   7.4566   7.4566   7.4876
     7.4876   7.5015   7.5015   7.5173   7.5173  10.5377  10.6412  10.6697
    10.8752  10.8844  10.9572  10.9635  11.6354  11.6569  11.7186  11.7420
    11.7886  11.7886

     occupation numbers 
     1.0000   1.0000   1.0000   1.0000   1.0000   1.0000   1.0000   1.0000
     1.0000   1.0000   1.0000   1.0000   1.0000   1.0000   1.0000   1.0000
     1.0000   1.0000   1.0000   1.0000   1.0000   1.0000   1.0000   1.0000
     1.0000   1.0000   1.0000   1.0000   1.0000   1.0000   1.0000   1.0000
     1.0000   1.0000   1.0000   1.0000   1.0000   1.0000   1.0000   1.0000
     1.0000   1.0000   1.0000   1.0000   1.0000   1.0000   1.0000   1.0000
     1.0000   1.0000   1.0000   1.0000   1.0000   1.0000   1.0000   1.0000
     1.0000   1.0000   1.0000   1.0000   1.0000   1.0000   1.0000   1.0000
     1.0000   1.0000   1.0000   1.0000   1.0000   1.0000   1.0000   1.0000
     1.0000   1.0000   1.0000   1.0000   1.0000   1.0000   1.0000   1.0000
     1.0000   1.0000   1.0000   1.0000   1.0000   1.0000   1.0000   1.0000
     1.0000   1.0000   1.0000   1.0000   1.0000   1.0000   1.0000   1.0000
     1.0000   1.0000   1.0000   1.0000   1.0000   1.0000   1.0000   1.0000
     1.0000   1.0000   1.0000   1.0000   1.0000   1.0000   1.0000   1.0000
     1.0000   1.0000   1.0000   1.0000   1.0000   1.0000   1.0000   1.0000
     1.0000   1.0000   1.0000   1.0000   1.0000   1.0000   1.0000   1.0000
     1.0000   1.0000   1.0000   1.0000   1.0000   1.0000   1.0000   1.0000
     1.0000   1.0000   1.0000   1.0000   1.0000   1.0000   1.0000   1.0000
     1.0000   1.0000   1.0000   1.0000   1.0000   1.0000   1.0000   1.0000
     1.0000   1.0000   1.0000   1.0000   1.0000   1.0000   1.0000   1.0000
     1.0000   1.0000   1.0000   1.0000   1.0000   1.0000   1.0000   1.0000
     0.0000   0.0000   0.0000   0.0000   0.0000   0.0000   0.0000   0.0000
     0.0000   0.0000   0.0000   0.0000   0.0000   0.0000   0.0000   0.0000
     0.0000   0.0000   0.0000   0.0000   0.0000   0.0000   0.0000   0.0000
     0.0000   0.0000   0.0000   0.0000   0.0000   0.0000   0.0000   0.0000
     0.0000   0.0000

          k = 0.0000 0.2887 0.0000 ( 63138 PWs)   bands (ev):

   -40.3217 -40.3217 -40.3208 -40.3205 -40.3204 -40.3201 -40.3201 -40.3197
   -40.3187 -40.3187 -40.3177 -40.3177 -40.3176 -40.3167 -40.3167 -40.3163
   -40.3163 -40.3162 -40.3160 -40.3160 -40.3153 -40.3153 -40.3151 -40.3146
   -40.3145 -40.3145 -40.3145 -40.3137 -40.3136 -40.3136 -40.3130 -40.3130
   -40.3127 -40.3121 -40.3121 -40.3117 -40.3117 -40.3111 -40.3111 -40.3110
   -40.3108 -40.3108 -40.3103 -40.3099 -40.3099 -40.3097 -40.3096 -40.3096
   -40.3093 -40.3093 -40.3093 -40.3092 -40.3086 -40.3076 -40.3076 -40.3065
   -40.3065 -40.3062 -40.3048 -40.3044 -40.3043 -40.3042 -40.3042 -40.3019
   -40.3019 -40.3014 -40.3014 -40.3005 -40.2998 -40.2997 -12.3479 -12.3466
   -12.3442 -12.3433 -12.3422 -12.3415 -12.3322 -12.3305 -12.3289 -12.3266
   -12.3255 -12.3253 -12.3245 -12.3238 -12.3231 -12.3210 -12.3208 -12.3196
   -12.3187 -12.3186 -12.3181 -12.3180 -12.3165 -12.3156 -12.3151 -12.3144
   -12.3142 -12.3137 -12.3135 -12.3121 -12.3112 -12.3106 -12.3085 -12.3040
   -12.3007  -7.5387  -7.5245  -7.5194  -7.4912  -7.4874  -7.4607  -7.4509
    -7.1712  -7.1643  -7.1296  -7.1272  -7.0894  -7.0872  -7.0702  -2.8443
    -2.8395  -2.8322  -2.8297  -2.8198  -2.8157  -2.8097   1.8011   1.8433
     1.8648   1.9695   1.9798   2.0931   2.1264   2.4364   2.4518   2.4767
     2.5101   2.5419   2.6485   2.6508   2.6599   2.6867   2.6975   2.7408
     2.7491   2.7536   2.7762   2.8629   3.0635   3.1018   3.3285   3.3323
     3.3540   3.3680   3.3768   3.4462   3.4544   3.4906   3.5030   3.5113
     3.5132   3.6941   3.7230   3.8142   3.8301   3.9342   3.9558   4.0008
     6.9975   7.0454   7.1180   7.2224   7.2962   7.3756   7.4034   7.7880
     7.8078   7.8302   7.8709   7.8785   7.8991   7.9213   7.9340   7.9488
     7.9787   8.0142   8.0742   8.1377   8.1943  10.2380  10.3060  10.3525
    10.5139  10.5236  10.6500  10.7296  11.1893  11.2832  11.3725  11.4018
    11.4516  11.5416

     occupation numbers 
     1.0000   1.0000   1.0000   1.0000   1.0000   1.0000   1.0000   1.0000
     1.0000   1.0000   1.0000   1.0000   1.0000   1.0000   1.0000   1.0000
     1.0000   1.0000   1.0000   1.0000   1.0000   1.0000   1.0000   1.0000
     1.0000   1.0000   1.0000   1.0000   1.0000   1.0000   1.0000   1.0000
     1.0000   1.0000   1.0000   1.0000   1.0000   1.0000   1.0000   1.0000
     1.0000   1.0000   1.0000   1.0000   1.0000   1.0000   1.0000   1.0000
     1.0000   1.0000   1.0000   1.0000   1.0000   1.0000   1.0000   1.0000
     1.0000   1.0000   1.0000   1.0000   1.0000   1.0000   1.0000   1.0000
     1.0000   1.0000   1.0000   1.0000   1.0000   1.0000   1.0000   1.0000
     1.0000   1.0000   1.0000   1.0000   1.0000   1.0000   1.0000   1.0000
     1.0000   1.0000   1.0000   1.0000   1.0000   1.0000   1.0000   1.0000
     1.0000   1.0000   1.0000   1.0000   1.0000   1.0000   1.0000   1.0000
     1.0000   1.0000   1.0000   1.0000   1.0000   1.0000   1.0000   1.0000
     1.0000   1.0000   1.0000   1.0000   1.0000   1.0000   1.0000   1.0000
     1.0000   1.0000   1.0000   1.0000   1.0000   1.0000   1.0000   1.0000
     1.0000   1.0000   1.0000   1.0000   1.0000   1.0000   1.0000   1.0000
     1.0000   1.0000   1.0000   1.0000   1.0000   1.0000   1.0000   1.0000
     1.0000   1.0000   1.0000   1.0000   1.0000   1.0000   1.0000   1.0000
     1.0000   1.0000   1.0000   1.0000   1.0000   1.0000   1.0000   1.0000
     1.0000   1.0000   1.0000   1.0000   1.0000   1.0000   1.0000   1.0000
     1.0000   1.0000   1.0000   1.0000   1.0000   1.0000   1.0000   1.0000
     0.0000   0.0000   0.0000   0.0000   0.0000   0.0000   0.0000   0.0000
     0.0000   0.0000   0.0000   0.0000   0.0000   0.0000   0.0000   0.0000
     0.0000   0.0000   0.0000   0.0000   0.0000   0.0000   0.0000   0.0000
     0.0000   0.0000   0.0000   0.0000   0.0000   0.0000   0.0000   0.0000
     0.0000   0.0000

          k = 0.0000-0.5774 0.0000 ( 63140 PWs)   bands (ev):

   -40.3218 -40.3217 -40.3208 -40.3205 -40.3204 -40.3201 -40.3201 -40.3197
   -40.3187 -40.3186 -40.3177 -40.3177 -40.3175 -40.3167 -40.3167 -40.3163
   -40.3163 -40.3162 -40.3160 -40.3159 -40.3153 -40.3152 -40.3151 -40.3146
   -40.3145 -40.3145 -40.3145 -40.3137 -40.3136 -40.3136 -40.3130 -40.3129
   -40.3126 -40.3121 -40.3120 -40.3117 -40.3117 -40.3111 -40.3110 -40.3110
   -40.3108 -40.3108 -40.3102 -40.3099 -40.3098 -40.3097 -40.3096 -40.3095
   -40.3093 -40.3093 -40.3093 -40.3092 -40.3086 -40.3076 -40.3075 -40.3065
   -40.3065 -40.3062 -40.3048 -40.3044 -40.3043 -40.3042 -40.3041 -40.3019
   -40.3018 -40.3014 -40.3014 -40.3005 -40.2998 -40.2997 -12.3621 -12.3612
   -12.3586 -12.3579 -12.3568 -12.3560 -12.3468 -12.3296 -12.3281 -12.3275
   -12.3257 -12.3252 -12.3247 -12.3237 -12.3232 -12.3230 -12.3217 -12.3208
   -12.3202 -12.3155 -12.3136 -12.3133 -12.3120 -12.3112 -12.3105 -12.3099
   -12.3094 -12.3089 -12.3083 -12.3076 -12.3059 -12.3050 -12.3045 -12.2988
   -12.2945  -7.2097  -7.2013  -7.1966  -7.1846  -7.1818  -7.1697  -7.1618
    -7.0859  -7.0804  -7.0666  -7.0660  -7.0531  -7.0505  -7.0403  -3.1562
    -3.1511  -3.1472  -3.1441  -3.1405  -3.1390  -3.1367   1.1792   1.2119
     1.2649   1.2941   1.3556   1.3925   1.4418   2.1196   2.1742   2.2223
     2.3113   2.3250   2.3333   2.3401   2.3519   2.3876   2.3932   2.4359
     2.4487   2.4487   2.5419   2.9273   2.9738   3.0238   3.1279   3.1640
     3.1886   3.2258   3.2341   3.2422   3.3106   3.3135   3.4039   3.4065
     3.4203   3.4454   3.4570   3.4823   3.5121   3.6025   3.6702   3.7200
     7.1842   7.2357   7.2513   7.3681   7.3793   7.4638   7.4843   7.9482
     7.9983   8.0063   8.0518   8.1201   8.1253   8.1326   8.2247   8.2343
     8.2822   8.3187   8.4642   8.6123   8.7287   9.6664   9.7513   9.8322
     9.9841  10.0057  10.1551  10.2000  11.8634  11.8749  11.9584  11.9893
    12.1270  12.1604

     occupation numbers 
     1.0000   1.0000   1.0000   1.0000   1.0000   1.0000   1.0000   1.0000
     1.0000   1.0000   1.0000   1.0000   1.0000   1.0000   1.0000   1.0000
     1.0000   1.0000   1.0000   1.0000   1.0000   1.0000   1.0000   1.0000
     1.0000   1.0000   1.0000   1.0000   1.0000   1.0000   1.0000   1.0000
     1.0000   1.0000   1.0000   1.0000   1.0000   1.0000   1.0000   1.0000
     1.0000   1.0000   1.0000   1.0000   1.0000   1.0000   1.0000   1.0000
     1.0000   1.0000   1.0000   1.0000   1.0000   1.0000   1.0000   1.0000
     1.0000   1.0000   1.0000   1.0000   1.0000   1.0000   1.0000   1.0000
     1.0000   1.0000   1.0000   1.0000   1.0000   1.0000   1.0000   1.0000
     1.0000   1.0000   1.0000   1.0000   1.0000   1.0000   1.0000   1.0000
     1.0000   1.0000   1.0000   1.0000   1.0000   1.0000   1.0000   1.0000
     1.0000   1.0000   1.0000   1.0000   1.0000   1.0000   1.0000   1.0000
     1.0000   1.0000   1.0000   1.0000   1.0000   1.0000   1.0000   1.0000
     1.0000   1.0000   1.0000   1.0000   1.0000   1.0000   1.0000   1.0000
     1.0000   1.0000   1.0000   1.0000   1.0000   1.0000   1.0000   1.0000
     1.0000   1.0000   1.0000   1.0000   1.0000   1.0000   1.0000   1.0000
     1.0000   1.0000   1.0000   1.0000   1.0000   1.0000   1.0000   1.0000
     1.0000   1.0000   1.0000   1.0000   1.0000   1.0000   1.0000   1.0000
     1.0000   1.0000   1.0000   1.0000   1.0000   1.0000   1.0000   1.0000
     1.0000   1.0000   1.0000   1.0000   1.0000   1.0000   1.0000   1.0000
     1.0000   1.0000   1.0000   1.0000   1.0000   1.0000   1.0000   1.0000
     0.0000   0.0000   0.0000   0.0000   0.0000   0.0000   0.0000   0.0000
     0.0000   0.0000   0.0000   0.0000   0.0000   0.0000   0.0000   0.0000
     0.0000   0.0000   0.0000   0.0000   0.0000   0.0000   0.0000   0.0000
     0.0000   0.0000   0.0000   0.0000   0.0000   0.0000   0.0000   0.0000
     0.0000   0.0000

          k = 0.2500 0.4330 0.0000 ( 63082 PWs)   bands (ev):

   -40.3217 -40.3217 -40.3208 -40.3205 -40.3204 -40.3201 -40.3201 -40.3197
   -40.3187 -40.3186 -40.3177 -40.3177 -40.3175 -40.3167 -40.3167 -40.3163
   -40.3163 -40.3162 -40.3160 -40.3160 -40.3153 -40.3153 -40.3151 -40.3145
   -40.3145 -40.3145 -40.3145 -40.3137 -40.3136 -40.3136 -40.3130 -40.3129
   -40.3126 -40.3121 -40.3120 -40.3117 -40.3117 -40.3111 -40.3111 -40.3110
   -40.3108 -40.3108 -40.3102 -40.3099 -40.3099 -40.3097 -40.3096 -40.3095
   -40.3093 -40.3093 -40.3093 -40.3092 -40.3086 -40.3076 -40.3075 -40.3065
   -40.3065 -40.3062 -40.3048 -40.3044 -40.3044 -40.3042 -40.3042 -40.3019
   -40.3018 -40.3014 -40.3014 -40.3005 -40.2997 -40.2997 -12.3531 -12.3521
   -12.3496 -12.3488 -12.3477 -12.3469 -12.3377 -12.3373 -12.3359 -12.3335
   -12.3326 -12.3315 -12.3308 -12.3222 -12.3215 -12.3202 -12.3198 -12.3180
   -12.3178 -12.3162 -12.3159 -12.3153 -12.3148 -12.3145 -12.3140 -12.3136
   -12.3129 -12.3116 -12.3096 -12.3080 -12.3072 -12.3066 -12.3049 -12.3035
   -12.2968  -7.2305  -7.2216  -7.2172  -7.2038  -7.2010  -7.1884  -7.1798
    -7.0688  -7.0626  -7.0479  -7.0469  -7.0318  -7.0295  -7.0196  -3.1360
    -3.1346  -3.1316  -3.1298  -3.1295  -3.1259  -3.1208   1.5213   1.5294
     1.5516   1.5567   1.6338   1.6419   1.7310   1.7506   1.7785   1.8262
     1.8473   1.8621   1.8839   1.8997   2.1989   2.2277   2.2669   2.3011
     2.3595   2.3740   2.4275   2.7390   2.7776   2.7909   2.9456   2.9578
     3.1673   3.2082   3.2121   3.2796   3.3155   3.3427   3.4088   3.4106
     3.4172   3.7481   3.7931   3.8121   3.8907   3.8991   3.9580   3.9727
     7.5983   7.6134   7.6725   7.6776   7.8409   7.8818   7.9371   7.9576
     8.0147   8.0200   8.0527   8.0933   8.1168   8.1300   8.2894   8.3211
     8.3810   8.4097   8.4166   8.4612   8.4651  10.5812  10.6311  10.7014
    10.8005  10.8701  10.8989  10.9467  10.9610  10.9999  11.0748  11.1683
    11.2217  11.4561

     occupation numbers 
     1.0000   1.0000   1.0000   1.0000   1.0000   1.0000   1.0000   1.0000
     1.0000   1.0000   1.0000   1.0000   1.0000   1.0000   1.0000   1.0000
     1.0000   1.0000   1.0000   1.0000   1.0000   1.0000   1.0000   1.0000
     1.0000   1.0000   1.0000   1.0000   1.0000   1.0000   1.0000   1.0000
     1.0000   1.0000   1.0000   1.0000   1.0000   1.0000   1.0000   1.0000
     1.0000   1.0000   1.0000   1.0000   1.0000   1.0000   1.0000   1.0000
     1.0000   1.0000   1.0000   1.0000   1.0000   1.0000   1.0000   1.0000
     1.0000   1.0000   1.0000   1.0000   1.0000   1.0000   1.0000   1.0000
     1.0000   1.0000   1.0000   1.0000   1.0000   1.0000   1.0000   1.0000
     1.0000   1.0000   1.0000   1.0000   1.0000   1.0000   1.0000   1.0000
     1.0000   1.0000   1.0000   1.0000   1.0000   1.0000   1.0000   1.0000
     1.0000   1.0000   1.0000   1.0000   1.0000   1.0000   1.0000   1.0000
     1.0000   1.0000   1.0000   1.0000   1.0000   1.0000   1.0000   1.0000
     1.0000   1.0000   1.0000   1.0000   1.0000   1.0000   1.0000   1.0000
     1.0000   1.0000   1.0000   1.0000   1.0000   1.0000   1.0000   1.0000
     1.0000   1.0000   1.0000   1.0000   1.0000   1.0000   1.0000   1.0000
     1.0000   1.0000   1.0000   1.0000   1.0000   1.0000   1.0000   1.0000
     1.0000   1.0000   1.0000   1.0000   1.0000   1.0000   1.0000   1.0000
     1.0000   1.0000   1.0000   1.0000   1.0000   1.0000   1.0000   1.0000
     1.0000   1.0000   1.0000   1.0000   1.0000   1.0000   1.0000   1.0000
     1.0000   1.0000   1.0000   1.0000   1.0000   1.0000   1.0000   1.0000
     0.0000   0.0000   0.0000   0.0000   0.0000   0.0000   0.0000   0.0000
     0.0000   0.0000   0.0000   0.0000   0.0000   0.0000   0.0000   0.0000
     0.0000   0.0000   0.0000   0.0000   0.0000   0.0000   0.0000   0.0000
     0.0000   0.0000   0.0000   0.0000   0.0000   0.0000   0.0000   0.0000
     0.0000   0.0000

     the Fermi energy is     4.8954 ev

!    total energy              =  -14165.41351698 Ry
     total all-electron energy =   -491962.246612 Ry
     estimated scf accuracy    <       0.00000003 Ry
     smearing contrib. (-TS)   =      -0.00000000 Ry
     internal energy E=F+TS    =  -14165.41351698 Ry

     The total energy is F=E-TS. E is the sum of the following terms:
     one-electron contribution =   -2550.72582233 Ry
     hartree contribution      =    1434.87280228 Ry
     xc contribution           =    -992.71914386 Ry
     ewald contribution        =   -2197.59870104 Ry
     one-center paw contrib.   =   -9859.24265204 Ry
      -> PAW hartree energy AE =      96.22655051 Ry
      -> PAW hartree energy PS =     -96.46736797 Ry
      -> PAW xc energy AE      =    -798.45511445 Ry
      -> PAW xc energy PS      =      33.33445798 Ry
      -> total E_H with PAW    =    1434.63198482 Ry
      -> total E_XC with PAW   =   -1757.83980033 Ry

     convergence has been achieved in  12 iterations


     -----------------------------------------------
     Non-local corr. energy    =      10.02583126 Ry
     -----------------------------------------------


     Forces acting on atoms (cartesian axes, Ry/au):

     atom    1 type  1   force =     0.00000000    0.00000000   -0.00028233
     atom    2 type  1   force =     0.00000000    0.00000000    0.00054896
     atom    3 type  1   force =     0.00000000    0.00000000   -0.00014202
     atom    4 type  1   force =     0.00000000    0.00000000    0.00070045
     atom    5 type  1   force =     0.00000000    0.00000000    0.00041673
     atom    6 type  1   force =     0.00000000    0.00000000    0.00002990
     atom    7 type  1   force =     0.00000000    0.00000000   -0.00036213
     atom    8 type  2   force =     0.00000000    0.00000000    0.00648264
     atom    9 type  2   force =     0.00000000    0.00000000   -0.00808114
     atom   10 type  2   force =     0.00000000    0.00000000    0.00701716
     atom   11 type  2   force =     0.00000000    0.00000000    0.00810205
     atom   12 type  2   force =     0.00000000    0.00000000   -0.00768527
     atom   13 type  2   force =     0.00000000    0.00000000    0.00819246
     atom   14 type  2   force =     0.00000000    0.00000000   -0.00663607
     atom   15 type  2   force =     0.00000000    0.00000000   -0.00755463
     atom   16 type  2   force =     0.00000000    0.00000000    0.00771328
     atom   17 type  2   force =     0.00000000    0.00000000   -0.00738495
     atom   18 type  2   force =     0.00000000    0.00000000   -0.00814188
     atom   19 type  2   force =     0.00000000    0.00000000    0.00798586
     atom   20 type  2   force =     0.00000000    0.00000000    0.00756962
     atom   21 type  2   force =     0.00000000    0.00000000   -0.00848869
     The non-local contrib.  to forces
     atom    1 type  1   force =     0.00000000    0.00000000   -0.00004584
     atom    2 type  1   force =     0.00000000    0.00000000   -0.00010804
     atom    3 type  1   force =     0.00000000    0.00000000   -0.00031682
     atom    4 type  1   force =    -0.00000000   -0.00000000   -0.00044557
     atom    5 type  1   force =     0.00000000    0.00000000   -0.00020526
     atom    6 type  1   force =     0.00000000    0.00000000    0.00013332
     atom    7 type  1   force =     0.00000000   -0.00000000   -0.00006233
     atom    8 type  2   force =     0.00000000    0.00000000   -0.24941793
     atom    9 type  2   force =     0.00000000    0.00000000    0.24902655
     atom   10 type  2   force =     0.00000000    0.00000000   -0.25008358
     atom   11 type  2   force =     0.00000000    0.00000000   -0.24888169
     atom   12 type  2   force =     0.00000000    0.00000000    0.24985317
     atom   13 type  2   force =     0.00000000    0.00000000   -0.24903011
     atom   14 type  2   force =     0.00000000    0.00000000    0.24925303
     atom   15 type  2   force =     0.00000000    0.00000000    0.24834097
     atom   16 type  2   force =     0.00000000    0.00000000   -0.24939448
     atom   17 type  2   force =     0.00000000    0.00000000    0.24985257
     atom   18 type  2   force =     0.00000000    0.00000000    0.24888540
     atom   19 type  2   force =     0.00000000    0.00000000   -0.24862306
     atom   20 type  2   force =     0.00000000    0.00000000   -0.24984226
     atom   21 type  2   force =     0.00000000   -0.00000000    0.24932900
     The ionic contribution  to forces
     atom    1 type  1   force =     0.00002892   -0.00001779   -0.05201675
     atom    2 type  1   force =     0.00002895   -0.00001780   -0.56897681
     atom    3 type  1   force =    -0.00000000    0.00000102    0.45320236
     atom    4 type  1   force =     0.00002894   -0.00001780    0.97866176
     atom    5 type  1   force =     0.00002885   -0.00001774    0.65274514
     atom    6 type  1   force =     0.00002891   -0.00001778   -0.81299288
     atom    7 type  1   force =     0.00002876   -0.00001769   -0.77594971
     atom    8 type  2   force =    -0.00001218    0.00000671   15.14009267
     atom    9 type  2   force =    -0.00000778    0.00000527  -15.62927141
     atom   10 type  2   force =    -0.00002110    0.00001249   13.80405482
     atom   11 type  2   force =    -0.00002220    0.00001321   16.20132962
     atom   12 type  2   force =    -0.00000770    0.00000522  -14.93230975
     atom   13 type  2   force =    -0.00002118    0.00001254   13.87752633
     atom   14 type  2   force =     0.00001323   -0.00000841  -13.77844801
     atom   15 type  2   force =    -0.00000770    0.00000521  -15.56733509
     atom   16 type  2   force =    -0.00002111    0.00001250   15.59368173
     atom   17 type  2   force =    -0.00000770    0.00000522  -14.07863762
     atom   18 type  2   force =    -0.00000778    0.00000526  -15.81987584
     atom   19 type  2   force =    -0.00002114    0.00001252   14.78363742
     atom   20 type  2   force =    -0.00002122    0.00001257   14.22227882
     atom   21 type  2   force =    -0.00000778    0.00000527  -13.69139682
     The local contribution  to forces
     atom    1 type  1   force =     0.00023949   -0.00015583    0.05187125
     atom    2 type  1   force =     0.00023945   -0.00015580    0.56947756
     atom    3 type  1   force =     0.00000000    0.00000000   -0.45274009
     atom    4 type  1   force =     0.00023956   -0.00015588   -0.97733146
     atom    5 type  1   force =     0.00023951   -0.00015585   -0.65219059
     atom    6 type  1   force =     0.00023949   -0.00015583    0.81281694
     atom    7 type  1   force =     0.00023957   -0.00015589    0.77592552
     atom    8 type  2   force =    -0.00068448    0.00037186  -14.88893313
     atom    9 type  2   force =     0.00000000   -0.00000000   15.37675065
     atom   10 type  2   force =    -0.00068433    0.00037178  -13.55190388
     atom   11 type  2   force =    -0.00068431    0.00037177  -15.94931780
     atom   12 type  2   force =     0.00000000   -0.00000000   14.67974788
     atom   13 type  2   force =    -0.00068430    0.00037177  -13.62564228
     atom   14 type  2   force =     0.00068790   -0.00044761   13.52785563
     atom   15 type  2   force =     0.00000000   -0.00000000   15.31673359
     atom   16 type  2   force =    -0.00068433    0.00037178  -15.34191728
     atom   17 type  2   force =    -0.00000000   -0.00000000   13.82608606
     atom   18 type  2   force =     0.00000000   -0.00000000   15.56794722
     atom   19 type  2   force =    -0.00068434    0.00037179  -14.53158092
     atom   20 type  2   force =    -0.00068426    0.00037174  -13.96975105
     atom   21 type  2   force =    -0.00000000   -0.00000000   13.43859745
     The core correction contribution to forces
     atom    1 type  1   force =     0.00001622   -0.00001055    0.00000145
     atom    2 type  1   force =     0.00001621   -0.00001055   -0.00002344
     atom    3 type  1   force =    -0.00000000    0.00000000   -0.00000206
     atom    4 type  1   force =     0.00001621   -0.00001055   -0.00001712
     atom    5 type  1   force =     0.00001622   -0.00001055   -0.00002149
     atom    6 type  1   force =     0.00001622   -0.00001055    0.00002612
     atom    7 type  1   force =     0.00001622   -0.00001055   -0.00000204
     atom    8 type  2   force =    -0.00005648    0.00003068    0.00514192
     atom    9 type  2   force =    -0.00000000    0.00000000   -0.00494696
     atom   10 type  2   force =    -0.00005648    0.00003068    0.00501591
     atom   11 type  2   force =    -0.00005648    0.00003068    0.00513395
     atom   12 type  2   force =    -0.00000000    0.00000000   -0.00515829
     atom   13 type  2   force =    -0.00005648    0.00003068    0.00519018
     atom   14 type  2   force =     0.00005675   -0.00003693   -0.00523923
     atom   15 type  2   force =     0.00000000   -0.00000000   -0.00505363
     atom   16 type  2   force =    -0.00005648    0.00003068    0.00522192
     atom   17 type  2   force =    -0.00000000    0.00000000   -0.00500779
     atom   18 type  2   force =    -0.00000000    0.00000000   -0.00498824
     atom   19 type  2   force =    -0.00005648    0.00003068    0.00495292
     atom   20 type  2   force =    -0.00005647    0.00003068    0.00519839
     atom   21 type  2   force =    -0.00000000    0.00000000   -0.00497417
     The Hubbard contrib.    to forces
     atom    1 type  1   force =     0.00000000    0.00000000    0.00000000
     atom    2 type  1   force =     0.00000000    0.00000000    0.00000000
     atom    3 type  1   force =     0.00000000    0.00000000    0.00000000
     atom    4 type  1   force =     0.00000000    0.00000000    0.00000000
     atom    5 type  1   force =     0.00000000    0.00000000    0.00000000
     atom    6 type  1   force =     0.00000000    0.00000000    0.00000000
     atom    7 type  1   force =     0.00000000    0.00000000    0.00000000
     atom    8 type  2   force =     0.00000000    0.00000000    0.00000000
     atom    9 type  2   force =     0.00000000    0.00000000    0.00000000
     atom   10 type  2   force =     0.00000000    0.00000000    0.00000000
     atom   11 type  2   force =     0.00000000    0.00000000    0.00000000
     atom   12 type  2   force =     0.00000000    0.00000000    0.00000000
     atom   13 type  2   force =     0.00000000    0.00000000    0.00000000
     atom   14 type  2   force =     0.00000000    0.00000000    0.00000000
     atom   15 type  2   force =     0.00000000    0.00000000    0.00000000
     atom   16 type  2   force =     0.00000000    0.00000000    0.00000000
     atom   17 type  2   force =     0.00000000    0.00000000    0.00000000
     atom   18 type  2   force =     0.00000000    0.00000000    0.00000000
     atom   19 type  2   force =     0.00000000    0.00000000    0.00000000
     atom   20 type  2   force =     0.00000000    0.00000000    0.00000000
     atom   21 type  2   force =     0.00000000    0.00000000    0.00000000
     The SCF correction term to forces
     atom    1 type  1   force =     0.00000001   -0.00000001   -0.00005869
     atom    2 type  1   force =     0.00000001   -0.00000001    0.00021347
     atom    3 type  1   force =     0.00000000    0.00000000   -0.00025165
     atom    4 type  1   force =     0.00000001   -0.00000001   -0.00013340
     atom    5 type  1   force =     0.00000001   -0.00000001    0.00012270
     atom    6 type  1   force =     0.00000001   -0.00000001    0.00008015
     atom    7 type  1   force =     0.00000001   -0.00000001   -0.00023981
     atom    8 type  2   force =    -0.00000003    0.00000002   -0.00036713
     atom    9 type  2   force =    -0.00000000    0.00000000    0.00039379
     atom   10 type  2   force =    -0.00000003    0.00000002   -0.00003234
     atom   11 type  2   force =    -0.00000003    0.00000002   -0.00012827
     atom   12 type  2   force =    -0.00000000    0.00000000    0.00021548
     atom   13 type  2   force =    -0.00000003    0.00000002    0.00018209
     atom   14 type  2   force =     0.00000004   -0.00000002   -0.00002372
     atom   15 type  2   force =    -0.00000000    0.00000000   -0.00020671
     atom   16 type  2   force =    -0.00000003    0.00000002    0.00015516
     atom   17 type  2   force =    -0.00000000    0.00000000    0.00035559
     atom   18 type  2   force =    -0.00000000    0.00000000   -0.00007666
     atom   19 type  2   force =    -0.00000003    0.00000002   -0.00036674
     atom   20 type  2   force =    -0.00000003    0.00000002   -0.00028052
     atom   21 type  2   force =    -0.00000000    0.00000000   -0.00001038

     Total force =     0.028708     Total SCF correction =     0.001005


     Computing stress (Cartesian axis) and pressure



     -----------------------------------------------
     Non-local corr. energy    =      10.02583126 Ry
     -----------------------------------------------

          total   stress  (Ry/bohr**3)                   (kbar)     P=       13.06
   0.00008897  -0.00000000   0.00000000           13.09       -0.00        0.00
   0.00000000   0.00008897  -0.00000000            0.00       13.09       -0.00
   0.00000000   0.00000000   0.00008848            0.00        0.00       13.02

     kinetic stress (kbar)  15752.35      0.00      0.00
                                0.00  15752.35     -0.00
                                0.00     -0.00  15763.36

     local   stress (kbar)  -7411.64     -0.00      0.00
                               -0.00  -7411.65     -0.00
                                0.00     -0.00   2044.26

     nonloc. stress (kbar)  -1121.85      0.00      0.00
                                0.00  -1121.85     -0.00
                                0.00      0.00  -1129.02

     hartree stress (kbar)  12448.98     -0.00     -0.00
                               -0.00  12448.98     -0.00
                               -0.00     -0.00   8188.22

     exc-cor stress (kbar)   7292.84      0.00     -0.00
                                0.00   7292.84      0.00
                               -0.00      0.00   7291.67

     corecor stress (kbar) -11876.82     -0.00     -0.00
                               -0.00 -11876.82      0.00
                               -0.00      0.00 -11876.70

     ewald   stress (kbar) -15158.07      0.00     -0.01
                                0.00 -15158.07      0.00
                               -0.01      0.00 -20357.45

     hubbard stress (kbar)      0.00      0.00      0.00
                                0.00      0.00      0.00
                                0.00      0.00      0.00

     DFT-D   stress (kbar)      0.00      0.00      0.00
                                0.00      0.00      0.00
                                0.00      0.00      0.00

     XDM     stress (kbar)      0.00      0.00      0.00
                                0.00      0.00      0.00
                                0.00      0.00      0.00

     dft-nl  stress (kbar)     87.31     -0.00      0.00
                               -0.00     87.31     -0.00
                                0.00     -0.00     88.68

     TS-vdW  stress (kbar)      0.00      0.00      0.00
                                0.00      0.00      0.00
                                0.00      0.00      0.00

     MDB     stress (kbar)      0.00      0.00      0.00
                                0.00      0.00      0.00
                                0.00      0.00      0.00

     3D-RISM stress (kbar)      0.00      0.00      0.00
                                0.00      0.00      0.00
                                0.00      0.00      0.00


     BFGS Geometry Optimization
     Energy error            =      0.0E+00 Ry
     Gradient error          =      8.5E-03 Ry/Bohr
     Cell gradient error     =      1.3E+01 kbar

     number of scf cycles    =   1
     number of bfgs steps    =   0

     enthalpy           new  =  -14165.4135169815 Ry

     new trust radius        =       0.0355320641 bohr
     new conv_thr            =       0.0000001000 Ry

     new unit-cell volume =   6422.20052 a.u.^3 (   951.67193 Ang^3 )
     density =      5.63079 g/cm^3

CELL_PARAMETERS (alat=  8.74773506)
   1.002224299   0.000000000   0.000000000
  -0.501112150   0.867951704   0.000000000
   0.000000000  -0.000000000  11.029009464

ATOMIC_POSITIONS (angstrom)
Pb           -0.0000023197        2.6785595118        9.2278981136
Pb           -0.0000023197        2.6785595118       23.8289776912
Pb            0.0000000000       -0.0000000000       45.6783992374
Pb           -0.0000023197        2.6785595118       38.3694525314
Pb           -0.0000023197        2.6785595118       31.0874493448
Pb           -0.0000023197        2.6785595118       16.5432549502
Pb           -0.0000023197        2.6785595118        1.9547241880
I             2.3197015842        1.3392777470       47.5586374911
I             0.0000000000       -0.0000000000       21.9615059791
I             2.3197015842        1.3392777470        3.8291886511
I             2.3197015842        1.3392777470       40.2387161705
I             0.0000000000       -0.0000000000        7.3569847048
I             2.3197015842        1.3392777470       18.4135343059
I            -0.0000023197        2.6785595118       43.7982241189
I             0.0000000000       -0.0000000000        0.0806038517
I             2.3197015842        1.3392777470       32.9606538134
I             0.0000000000       -0.0000000000       29.2174195797
I             0.0000000000       -0.0000000000       14.6722957642
I             2.3197015842        1.3392777470       11.0979348226
I             2.3197015842        1.3392777470       25.6993789682
I             0.0000000000       -0.0000000000       36.5028642061



     Writing config-only to output data dir ./PbI2.save/
     NEW-OLD atomic charge density approx. for the potential

     Check: negative core charge=   -0.000001


     -----------------------------------------------
     Non-local corr. energy    =      10.07003615 Ry
     -----------------------------------------------

     extrapolated charge  338.22795, renormalised to  336.00000

     total cpu time spent up to now is      212.0 secs

     Self-consistent Calculation

     iteration #  1     ecut=    70.00 Ry     beta= 0.70
     Davidson diagonalization with overlap

---- Real-time Memory Report at c_bands before calling an iterative solver
           321 MiB given to the printing process from OS
             0 MiB allocation reported by mallinfo(arena+hblkhd)
       1886437 MiB available memory on the node where the printing process lives
------------------
     c_bands:  3 eigenvalues not converged
     c_bands:  2 eigenvalues not converged
     c_bands:  2 eigenvalues not converged
     c_bands:  1 eigenvalues not converged
     ethr =  1.00E-06,  avg # of iterations = 20.0


     -----------------------------------------------
     Non-local corr. energy    =       9.92485800 Ry
     -----------------------------------------------


     total cpu time spent up to now is      232.9 secs

     total energy              =  -14165.24460595 Ry
     estimated scf accuracy    <       0.17364126 Ry

     iteration #  2     ecut=    70.00 Ry     beta= 0.70
     Davidson diagonalization with overlap

---- Real-time Memory Report at c_bands before calling an iterative solver
           326 MiB given to the printing process from OS
             0 MiB allocation reported by mallinfo(arena+hblkhd)
       1886156 MiB available memory on the node where the printing process lives
------------------
     ethr =  5.17E-05,  avg # of iterations =  8.3


     -----------------------------------------------
     Non-local corr. energy    =       9.98187558 Ry
     -----------------------------------------------


     total cpu time spent up to now is      249.7 secs

     total energy              =  -14165.41017900 Ry
     estimated scf accuracy    <       0.32148094 Ry

     iteration #  3     ecut=    70.00 Ry     beta= 0.70
     Davidson diagonalization with overlap

---- Real-time Memory Report at c_bands before calling an iterative solver
           326 MiB given to the printing process from OS
             0 MiB allocation reported by mallinfo(arena+hblkhd)
       1886096 MiB available memory on the node where the printing process lives
------------------
     ethr =  5.17E-05,  avg # of iterations =  9.8


     -----------------------------------------------
     Non-local corr. energy    =       9.98955266 Ry
     -----------------------------------------------


     total cpu time spent up to now is      261.0 secs

     total energy              =  -14165.42185293 Ry
     estimated scf accuracy    <       0.09132488 Ry

     iteration #  4     ecut=    70.00 Ry     beta= 0.70
     Davidson diagonalization with overlap

---- Real-time Memory Report at c_bands before calling an iterative solver
           326 MiB given to the printing process from OS
             0 MiB allocation reported by mallinfo(arena+hblkhd)
       1886095 MiB available memory on the node where the printing process lives
------------------
     ethr =  2.72E-05,  avg # of iterations = 10.8


     -----------------------------------------------
     Non-local corr. energy    =       9.99983835 Ry
     -----------------------------------------------


     total cpu time spent up to now is      271.5 secs

     total energy              =  -14165.42140855 Ry
     estimated scf accuracy    <       0.05450869 Ry

     iteration #  5     ecut=    70.00 Ry     beta= 0.70
     Davidson diagonalization with overlap

---- Real-time Memory Report at c_bands before calling an iterative solver
           326 MiB given to the printing process from OS
             0 MiB allocation reported by mallinfo(arena+hblkhd)
       1886082 MiB available memory on the node where the printing process lives
------------------
     ethr =  1.62E-05,  avg # of iterations =  8.3


     -----------------------------------------------
     Non-local corr. energy    =      10.00813434 Ry
     -----------------------------------------------


     total cpu time spent up to now is      279.5 secs

     total energy              =  -14165.41949250 Ry
     estimated scf accuracy    <       0.03588367 Ry

     iteration #  6     ecut=    70.00 Ry     beta= 0.70
     Davidson diagonalization with overlap

---- Real-time Memory Report at c_bands before calling an iterative solver
           326 MiB given to the printing process from OS
             0 MiB allocation reported by mallinfo(arena+hblkhd)
       1886078 MiB available memory on the node where the printing process lives
------------------
     ethr =  1.07E-05,  avg # of iterations =  1.8


     -----------------------------------------------
     Non-local corr. energy    =      10.01801080 Ry
     -----------------------------------------------


     total cpu time spent up to now is      284.1 secs

     total energy              =  -14165.41746871 Ry
     estimated scf accuracy    <       0.02218698 Ry

     iteration #  7     ecut=    70.00 Ry     beta= 0.70
     Davidson diagonalization with overlap

---- Real-time Memory Report at c_bands before calling an iterative solver
           326 MiB given to the printing process from OS
             0 MiB allocation reported by mallinfo(arena+hblkhd)
       1886091 MiB available memory on the node where the printing process lives
------------------
     ethr =  6.60E-06,  avg # of iterations =  7.5


     -----------------------------------------------
     Non-local corr. energy    =      10.03583499 Ry
     -----------------------------------------------


     total cpu time spent up to now is      291.9 secs

     total energy              =  -14165.41504926 Ry
     estimated scf accuracy    <       0.01166584 Ry

     iteration #  8     ecut=    70.00 Ry     beta= 0.70
     Davidson diagonalization with overlap

---- Real-time Memory Report at c_bands before calling an iterative solver
           326 MiB given to the printing process from OS
             0 MiB allocation reported by mallinfo(arena+hblkhd)
       1886092 MiB available memory on the node where the printing process lives
------------------
     ethr =  3.47E-06,  avg # of iterations =  5.8


     -----------------------------------------------
     Non-local corr. energy    =      10.02472692 Ry
     -----------------------------------------------


     total cpu time spent up to now is      302.0 secs

     total energy              =  -14165.41801870 Ry
     estimated scf accuracy    <       0.00037634 Ry

     iteration #  9     ecut=    70.00 Ry     beta= 0.70
     Davidson diagonalization with overlap

---- Real-time Memory Report at c_bands before calling an iterative solver
           327 MiB given to the printing process from OS
             0 MiB allocation reported by mallinfo(arena+hblkhd)
       1886078 MiB available memory on the node where the printing process lives
------------------
     c_bands:  2 eigenvalues not converged
     ethr =  1.12E-07,  avg # of iterations = 11.0


     -----------------------------------------------
     Non-local corr. energy    =      10.02850523 Ry
     -----------------------------------------------


     total cpu time spent up to now is      320.4 secs

     total energy              =  -14165.41800193 Ry
     estimated scf accuracy    <       0.00183532 Ry

     iteration # 10     ecut=    70.00 Ry     beta= 0.70
     Davidson diagonalization with overlap

---- Real-time Memory Report at c_bands before calling an iterative solver
           327 MiB given to the printing process from OS
             0 MiB allocation reported by mallinfo(arena+hblkhd)
       1886053 MiB available memory on the node where the printing process lives
------------------
     c_bands:  2 eigenvalues not converged
     ethr =  1.12E-07,  avg # of iterations =  6.8


     -----------------------------------------------
     Non-local corr. energy    =      10.04497519 Ry
     -----------------------------------------------


     total cpu time spent up to now is      328.0 secs

     total energy              =  -14165.41754857 Ry
     estimated scf accuracy    <       0.00097695 Ry

     iteration # 11     ecut=    70.00 Ry     beta= 0.70
     Davidson diagonalization with overlap

---- Real-time Memory Report at c_bands before calling an iterative solver
           327 MiB given to the printing process from OS
             0 MiB allocation reported by mallinfo(arena+hblkhd)
       1886082 MiB available memory on the node where the printing process lives
------------------
     ethr =  1.12E-07,  avg # of iterations =  9.3


     -----------------------------------------------
     Non-local corr. energy    =      10.05543514 Ry
     -----------------------------------------------


     total cpu time spent up to now is      365.4 secs

     total energy              =  -14165.41881535 Ry
     estimated scf accuracy    <       0.00256440 Ry

     iteration # 12     ecut=    70.00 Ry     beta= 0.70
     Davidson diagonalization with overlap

---- Real-time Memory Report at c_bands before calling an iterative solver
           335 MiB given to the printing process from OS
             0 MiB allocation reported by mallinfo(arena+hblkhd)
       1885954 MiB available memory on the node where the printing process lives
------------------
     ethr =  1.12E-07,  avg # of iterations =  7.0


     -----------------------------------------------
     Non-local corr. energy    =      10.01500451 Ry
     -----------------------------------------------


     total cpu time spent up to now is      377.2 secs

     total energy              =  -14165.41684793 Ry
     estimated scf accuracy    <       0.00826579 Ry

     iteration # 13     ecut=    70.00 Ry     beta= 0.70
     Davidson diagonalization with overlap

---- Real-time Memory Report at c_bands before calling an iterative solver
           337 MiB given to the printing process from OS
             0 MiB allocation reported by mallinfo(arena+hblkhd)
       1886056 MiB available memory on the node where the printing process lives
------------------
     ethr =  1.12E-07,  avg # of iterations =  7.8


     -----------------------------------------------
     Non-local corr. energy    =      10.02617219 Ry
     -----------------------------------------------


     total cpu time spent up to now is      388.8 secs

     total energy              =  -14165.41764601 Ry
     estimated scf accuracy    <       0.00441141 Ry

     iteration # 14     ecut=    70.00 Ry     beta= 0.70
     Davidson diagonalization with overlap

---- Real-time Memory Report at c_bands before calling an iterative solver
           339 MiB given to the printing process from OS
             0 MiB allocation reported by mallinfo(arena+hblkhd)
       1886051 MiB available memory on the node where the printing process lives
------------------
     ethr =  1.12E-07,  avg # of iterations =  9.3


     -----------------------------------------------
     Non-local corr. energy    =      10.02628329 Ry
     -----------------------------------------------


     total cpu time spent up to now is      403.2 secs

     total energy              =  -14165.41775732 Ry
     estimated scf accuracy    <       0.00051963 Ry

     iteration # 15     ecut=    70.00 Ry     beta= 0.70
     Davidson diagonalization with overlap

---- Real-time Memory Report at c_bands before calling an iterative solver
           339 MiB given to the printing process from OS
             0 MiB allocation reported by mallinfo(arena+hblkhd)
       1886045 MiB available memory on the node where the printing process lives
------------------
     c_bands:  2 eigenvalues not converged
     c_bands:  1 eigenvalues not converged
     ethr =  1.12E-07,  avg # of iterations = 15.3


     -----------------------------------------------
     Non-local corr. energy    =      10.03181535 Ry
     -----------------------------------------------


     total cpu time spent up to now is      415.3 secs

     total energy              =  -14165.41766330 Ry
     estimated scf accuracy    <       0.00050104 Ry

     iteration # 16     ecut=    70.00 Ry     beta= 0.70
     Davidson diagonalization with overlap

---- Real-time Memory Report at c_bands before calling an iterative solver
           339 MiB given to the printing process from OS
             0 MiB allocation reported by mallinfo(arena+hblkhd)
       1886037 MiB available memory on the node where the printing process lives
------------------
     ethr =  1.12E-07,  avg # of iterations = 10.0


     -----------------------------------------------
     Non-local corr. energy    =      10.03246593 Ry
     -----------------------------------------------


     total cpu time spent up to now is      424.3 secs

     total energy              =  -14165.41767533 Ry
     estimated scf accuracy    <       0.00002902 Ry

     iteration # 17     ecut=    70.00 Ry     beta= 0.70
     Davidson diagonalization with overlap

---- Real-time Memory Report at c_bands before calling an iterative solver
           339 MiB given to the printing process from OS
             0 MiB allocation reported by mallinfo(arena+hblkhd)
       1886008 MiB available memory on the node where the printing process lives
------------------
     ethr =  8.64E-09,  avg # of iterations =  8.0


     -----------------------------------------------
     Non-local corr. energy    =      10.03241660 Ry
     -----------------------------------------------


     total cpu time spent up to now is      436.3 secs

     total energy              =  -14165.41769240 Ry
     estimated scf accuracy    <       0.00000400 Ry

     iteration # 18     ecut=    70.00 Ry     beta= 0.70
     Davidson diagonalization with overlap

---- Real-time Memory Report at c_bands before calling an iterative solver
           340 MiB given to the printing process from OS
             0 MiB allocation reported by mallinfo(arena+hblkhd)
       1885983 MiB available memory on the node where the printing process lives
------------------
     c_bands:  2 eigenvalues not converged
     c_bands:  1 eigenvalues not converged
     ethr =  1.19E-09,  avg # of iterations = 17.0


     -----------------------------------------------
     Non-local corr. energy    =      10.03212588 Ry
     -----------------------------------------------


     total cpu time spent up to now is      450.8 secs

     total energy              =  -14165.41769188 Ry
     estimated scf accuracy    <       0.00000274 Ry

     iteration # 19     ecut=    70.00 Ry     beta= 0.70
     Davidson diagonalization with overlap

---- Real-time Memory Report at c_bands before calling an iterative solver
           340 MiB given to the printing process from OS
             0 MiB allocation reported by mallinfo(arena+hblkhd)
       1885994 MiB available memory on the node where the printing process lives
------------------
     c_bands:  1 eigenvalues not converged
     ethr =  8.15E-10,  avg # of iterations = 12.5


     -----------------------------------------------
     Non-local corr. energy    =      10.03206187 Ry
     -----------------------------------------------


     total cpu time spent up to now is      461.3 secs

     total energy              =  -14165.41769182 Ry
     estimated scf accuracy    <       0.00000062 Ry

     iteration # 20     ecut=    70.00 Ry     beta= 0.70
     Davidson diagonalization with overlap

---- Real-time Memory Report at c_bands before calling an iterative solver
           340 MiB given to the printing process from OS
             0 MiB allocation reported by mallinfo(arena+hblkhd)
       1885981 MiB available memory on the node where the printing process lives
------------------
     c_bands:  2 eigenvalues not converged
     ethr =  1.85E-10,  avg # of iterations = 14.3


     -----------------------------------------------
     Non-local corr. energy    =      10.03200305 Ry
     -----------------------------------------------


     total cpu time spent up to now is      473.7 secs

     total energy              =  -14165.41769178 Ry
     estimated scf accuracy    <       0.00000023 Ry

     iteration # 21     ecut=    70.00 Ry     beta= 0.70
     Davidson diagonalization with overlap

---- Real-time Memory Report at c_bands before calling an iterative solver
           340 MiB given to the printing process from OS
             0 MiB allocation reported by mallinfo(arena+hblkhd)
       1885929 MiB available memory on the node where the printing process lives
------------------
     ethr =  6.84E-11,  avg # of iterations = 12.8


     -----------------------------------------------
     Non-local corr. energy    =      10.03199797 Ry
     -----------------------------------------------


     total cpu time spent up to now is      491.4 secs

     End of self-consistent calculation

          k = 0.0000 0.0000 0.0000 ( 63179 PWs)   bands (ev):

   -40.3816 -40.3816 -40.3811 -40.3802 -40.3802 -40.3800 -40.3800 -40.3797
   -40.3784 -40.3784 -40.3780 -40.3780 -40.3780 -40.3778 -40.3776 -40.3776
   -40.3766 -40.3766 -40.3764 -40.3764 -40.3764 -40.3764 -40.3760 -40.3760
   -40.3759 -40.3758 -40.3755 -40.3755 -40.3749 -40.3749 -40.3748 -40.3748
   -40.3747 -40.3738 -40.3738 -40.3738 -40.3738 -40.3736 -40.3736 -40.3735
   -40.3731 -40.3731 -40.3731 -40.3724 -40.3718 -40.3718 -40.3717 -40.3717
   -40.3716 -40.3716 -40.3714 -40.3714 -40.3709 -40.3706 -40.3706 -40.3704
   -40.3695 -40.3695 -40.3682 -40.3681 -40.3681 -40.3676 -40.3676 -40.3651
   -40.3651 -40.3649 -40.3649 -40.3645 -40.3633 -40.3633 -12.4208 -12.4208
   -12.4164 -12.4164 -12.4158 -12.4158 -12.4137 -12.4136 -12.4136 -12.4131
   -12.4131 -12.4126 -12.4126 -12.4092 -12.4086 -12.4076 -12.4076 -12.4065
   -12.4059 -12.4054 -12.4044 -12.4044 -12.4029 -12.4029 -12.4024 -12.4024
   -12.4001 -12.4001 -12.3996 -12.3996 -12.3991 -12.3991 -12.3976 -12.3909
   -12.3909  -7.8083  -7.7924  -7.7876  -7.7527  -7.7492  -7.7158  -7.7072
    -7.3429  -7.3368  -7.2904  -7.2884  -7.2372  -7.2357  -7.2140  -2.7196
    -2.7028  -2.6979  -2.6608  -2.6530  -2.6236  -2.6181   2.5439   2.5499
     2.6814   2.6840   2.9094   2.9142   3.0923   3.0994   3.0994   3.1058
     3.1058   3.1234   3.1234   3.1272   3.1272   3.1603   3.1603   3.1629
     3.1629   3.1887   3.1887   3.3076   3.3076   3.3356   3.3356   3.3388
     3.3388   3.3820   3.3820   3.3845   3.3845   3.4094   3.4094   3.4130
     3.4176   3.4176   3.5880   3.5979   3.8191   3.8258   3.9552   3.9648
     6.4447   6.4570   6.5166   6.5204   6.6007   6.6031   6.6401   7.3255
     7.3255   7.3391   7.3391   7.3662   7.3662   7.3709   7.3710   7.4019
     7.4019   7.4160   7.4160   7.4318   7.4318  10.4478  10.5528  10.5807
    10.7897  10.7986  10.8744  10.8819  11.5519  11.5734  11.6338  11.6576
    11.7184  11.7184

     occupation numbers 
[...]
     1.0000   1.0000   1.0000   1.0000   1.0000   1.0000   1.0000   1.0000
     0.0000   0.0000   0.0000   0.0000   0.0000   0.0000   0.0000   0.0000
     0.0000   0.0000   0.0000   0.0000   0.0000   0.0000   0.0000   0.0000
     0.0000   0.0000   0.0000   0.0000   0.0000   0.0000   0.0000   0.0000
     0.0000   0.0000   0.0000   0.0000   0.0000   0.0000   0.0000   0.0000
     0.0000   0.0000

     the Fermi energy is     4.1902 ev

!    total energy              =  -14165.43112295 Ry
     total all-electron energy =   -491962.264218 Ry
     estimated scf accuracy    <          8.5E-10 Ry
     smearing contrib. (-TS)   =      -0.00000000 Ry
     internal energy E=F+TS    =  -14165.43112295 Ry

     The total energy is F=E-TS. E is the sum of the following terms:
     one-electron contribution =   -2626.48768357 Ry
     hartree contribution      =    1465.86615399 Ry
     xc contribution           =    -992.37615095 Ry
     ewald contribution        =   -2153.23618198 Ry
     one-center paw contrib.   =   -9859.19726043 Ry
      -> PAW hartree energy AE =      95.90158977 Ry
      -> PAW hartree energy PS =     -96.13824537 Ry
      -> PAW xc energy AE      =    -798.42987937 Ry
      -> PAW xc energy PS      =      33.30982124 Ry
      -> total E_H with PAW    =    1465.62949839 Ry
      -> total E_XC with PAW   =   -1757.49620908 Ry

     convergence has been achieved in  18 iterations


     -----------------------------------------------
     Non-local corr. energy    =      10.07163906 Ry
     -----------------------------------------------


     Forces acting on atoms (cartesian axes, Ry/au):

     atom    1 type  1   force =     0.00000000    0.00000000   -0.00032738
     atom    2 type  1   force =    -0.00000000   -0.00000000    0.00041748
     atom    3 type  1   force =     0.00000000    0.00000000   -0.00078737
     atom    4 type  1   force =    -0.00000000   -0.00000000    0.00044404
     atom    5 type  1   force =    -0.00000000   -0.00000000    0.00078940
     atom    6 type  1   force =    -0.00000000   -0.00000000    0.00071898
     atom    7 type  1   force =     0.00000000    0.00000000   -0.00022076
     atom    8 type  2   force =    -0.00000000   -0.00000000    0.00083428
     atom    9 type  2   force =     0.00000000    0.00000000   -0.00000823
     atom   10 type  2   force =     0.00000000    0.00000000   -0.00088252
     atom   11 type  2   force =     0.00000000    0.00000000   -0.00064182
     atom   12 type  2   force =    -0.00000000   -0.00000000    0.00044622
     atom   13 type  2   force =    -0.00000000   -0.00000000    0.00049991
     atom   14 type  2   force =    -0.00000000   -0.00000000    0.00006330
     atom   15 type  2   force =    -0.00000000   -0.00000000    0.00053117
     atom   16 type  2   force =    -0.00000000   -0.00000000    0.00017887
     atom   17 type  2   force =     0.00000000    0.00000000   -0.00088177
     atom   18 type  2   force =     0.00000000    0.00000000   -0.00146816
     atom   19 type  2   force =    -0.00000000   -0.00000000    0.00054444
     atom   20 type  2   force =     0.00000000    0.00000000   -0.00054777
     atom   21 type  2   force =    -0.00000000   -0.00000000    0.00029768
     The non-local contrib.  to forces
     atom    1 type  1   force =    -0.00000000   -0.00000000    0.00011026
     atom    2 type  1   force =    -0.00000000   -0.00000000   -0.00025976
     atom    3 type  1   force =    -0.00000000   -0.00000000    0.00004819
     atom    4 type  1   force =     0.00000000    0.00000000   -0.00056976
     atom    5 type  1   force =     0.00000000    0.00000000   -0.00040270
     atom    6 type  1   force =     0.00000000    0.00000000   -0.00040603
     atom    7 type  1   force =     0.00000000    0.00000000    0.00009247
     atom    8 type  2   force =     0.00000000    0.00000000   -0.24485799
     atom    9 type  2   force =     0.00000000    0.00000000    0.24593855
     atom   10 type  2   force =     0.00000000    0.00000000   -0.24689700
     atom   11 type  2   force =    -0.00000000   -0.00000000   -0.24615697
     atom   12 type  2   force =    -0.00000000   -0.00000000    0.24687100
     atom   13 type  2   force =    -0.00000000   -0.00000000   -0.24601452
     atom   14 type  2   force =    -0.00000000   -0.00000000    0.24588079
     atom   15 type  2   force =    -0.00000000   -0.00000000    0.24528135
     atom   16 type  2   force =     0.00000000    0.00000000   -0.24633663
     atom   17 type  2   force =    -0.00000000   -0.00000000    0.24572266
     atom   18 type  2   force =    -0.00000000   -0.00000000    0.24473330
     atom   19 type  2   force =     0.00000000    0.00000000   -0.24516742
     atom   20 type  2   force =    -0.00000000   -0.00000000   -0.24674241
     atom   21 type  2   force =    -0.00000000   -0.00000000    0.24661165
     The ionic contribution  to forces
     atom    1 type  1   force =     0.00002818   -0.00001733    0.01881199
     atom    2 type  1   force =     0.00002822   -0.00001736   -0.60166165
     atom    3 type  1   force =     0.00000008    0.00000096    0.52497102
     atom    4 type  1   force =     0.00002811   -0.00001729    0.83592514
     atom    5 type  1   force =     0.00002829   -0.00001740    0.37659454
     atom    6 type  1   force =     0.00002833   -0.00001743   -0.75841687
     atom    7 type  1   force =     0.00002808   -0.00001727   -0.50375693
     atom    8 type  2   force =    -0.00001211    0.00000667   15.46255609
     atom    9 type  2   force =    -0.00000763    0.00000516  -15.41953825
     atom   10 type  2   force =    -0.00002057    0.00001218   13.92346764
     atom   11 type  2   force =    -0.00002149    0.00001278   15.66936296
     atom   12 type  2   force =    -0.00000753    0.00000510  -14.55752959
     atom   13 type  2   force =    -0.00002066    0.00001224   13.80861626
     atom   14 type  2   force =     0.00001302   -0.00000828  -13.85255922
     atom   15 type  2   force =    -0.00000756    0.00000511  -15.01212116
     atom   16 type  2   force =    -0.00002064    0.00001222   15.15312677
     atom   17 type  2   force =    -0.00000763    0.00000516  -14.34600716
     atom   18 type  2   force =    -0.00000772    0.00000521  -15.72370096
     atom   19 type  2   force =    -0.00002058    0.00001219   14.60574953
     atom   20 type  2   force =    -0.00002063    0.00001222   13.92001409
     atom   21 type  2   force =    -0.00000759    0.00000513  -13.52390424
     The local contribution  to forces
     atom    1 type  1   force =     0.00024537   -0.00015966   -0.01930331
     atom    2 type  1   force =     0.00024532   -0.00015962    0.60242840
     atom    3 type  1   force =     0.00000000    0.00000000   -0.52590352
     atom    4 type  1   force =     0.00024550   -0.00015974   -0.83487559
     atom    5 type  1   force =     0.00024526   -0.00015959   -0.37525130
     atom    6 type  1   force =     0.00024523   -0.00015957    0.75957900
     atom    7 type  1   force =     0.00024542   -0.00015969    0.50333884
     atom    8 type  2   force =    -0.00069836    0.00037941  -15.22212126
     atom    9 type  2   force =    -0.00000000   -0.00000000   15.17885962
     atom   10 type  2   force =    -0.00069839    0.00037942  -13.68280791
     atom   11 type  2   force =    -0.00069843    0.00037944  -15.42914562
     atom   12 type  2   force =    -0.00000000   -0.00000000   14.31645618
     atom   13 type  2   force =    -0.00069836    0.00037941  -13.56747777
     atom   14 type  2   force =     0.00070190   -0.00045672   13.61207346
     atom   15 type  2   force =    -0.00000000   -0.00000000   14.77261547
     atom   16 type  2   force =    -0.00069836    0.00037940  -14.91193605
     atom   17 type  2   force =    -0.00000000   -0.00000000   14.10479406
     atom   18 type  2   force =    -0.00000000   -0.00000000   15.48274748
     atom   19 type  2   force =    -0.00069843    0.00037944  -14.36538020
     atom   20 type  2   force =    -0.00069836    0.00037940  -13.67909384
     atom   21 type  2   force =    -0.00000000   -0.00000000   13.28286853
     The core correction contribution to forces
     atom    1 type  1   force =     0.00001652   -0.00001075    0.00002721
     atom    2 type  1   force =     0.00001652   -0.00001075   -0.00004239
     atom    3 type  1   force =    -0.00000000   -0.00000000    0.00008965
     atom    4 type  1   force =     0.00001652   -0.00001075   -0.00003193
     atom    5 type  1   force =     0.00001652   -0.00001075   -0.00007964
     atom    6 type  1   force =     0.00001652   -0.00001075   -0.00007708
     atom    7 type  1   force =     0.00001652   -0.00001075    0.00002656
     atom    8 type  2   force =    -0.00005752    0.00003125    0.00525658
     atom    9 type  2   force =    -0.00000000    0.00000000   -0.00525711
     atom   10 type  2   force =    -0.00005751    0.00003125    0.00531422
     atom   11 type  2   force =    -0.00005751    0.00003125    0.00531489
     atom   12 type  2   force =    -0.00000000    0.00000000   -0.00537763
     atom   13 type  2   force =    -0.00005751    0.00003125    0.00535102
     atom   14 type  2   force =     0.00005779   -0.00003760   -0.00535247
     atom   15 type  2   force =    -0.00000000    0.00000000   -0.00530963
     atom   16 type  2   force =    -0.00005751    0.00003125    0.00539560
     atom   17 type  2   force =    -0.00000000    0.00000000   -0.00534962
     atom   18 type  2   force =    -0.00000000    0.00000000   -0.00529229
     atom   19 type  2   force =    -0.00005751    0.00003125    0.00533817
     atom   20 type  2   force =    -0.00005751    0.00003125    0.00532240
     atom   21 type  2   force =    -0.00000000    0.00000000   -0.00529749
     The Hubbard contrib.    to forces
     atom    1 type  1   force =     0.00000000    0.00000000    0.00000000
     atom    2 type  1   force =     0.00000000    0.00000000    0.00000000
     atom    3 type  1   force =     0.00000000    0.00000000    0.00000000
     atom    4 type  1   force =     0.00000000    0.00000000    0.00000000
     atom    5 type  1   force =     0.00000000    0.00000000    0.00000000
     atom    6 type  1   force =     0.00000000    0.00000000    0.00000000
     atom    7 type  1   force =     0.00000000    0.00000000    0.00000000
     atom    8 type  2   force =     0.00000000    0.00000000    0.00000000
     atom    9 type  2   force =     0.00000000    0.00000000    0.00000000
     atom   10 type  2   force =     0.00000000    0.00000000    0.00000000
     atom   11 type  2   force =     0.00000000    0.00000000    0.00000000
     atom   12 type  2   force =     0.00000000    0.00000000    0.00000000
     atom   13 type  2   force =     0.00000000    0.00000000    0.00000000
     atom   14 type  2   force =     0.00000000    0.00000000    0.00000000
     atom   15 type  2   force =     0.00000000    0.00000000    0.00000000
     atom   16 type  2   force =     0.00000000    0.00000000    0.00000000
     atom   17 type  2   force =     0.00000000    0.00000000    0.00000000
     atom   18 type  2   force =     0.00000000    0.00000000    0.00000000
     atom   19 type  2   force =     0.00000000    0.00000000    0.00000000
     atom   20 type  2   force =     0.00000000    0.00000000    0.00000000
     atom   21 type  2   force =     0.00000000    0.00000000    0.00000000
     The SCF correction term to forces
     atom    1 type  1   force =    -0.00000000    0.00000000    0.00002263
     atom    2 type  1   force =    -0.00000000    0.00000000   -0.00005096
     atom    3 type  1   force =    -0.00000000   -0.00000000    0.00000345
     atom    4 type  1   force =    -0.00000000    0.00000000   -0.00000765
     atom    5 type  1   force =    -0.00000000    0.00000000   -0.00007533
     atom    6 type  1   force =    -0.00000000    0.00000000    0.00003612
     atom    7 type  1   force =    -0.00000000    0.00000000    0.00007445
     atom    8 type  2   force =     0.00000000   -0.00000000   -0.00000297
     atom    9 type  2   force =     0.00000000   -0.00000000   -0.00001488
     atom   10 type  2   force =     0.00000000   -0.00000000    0.00003670
     atom   11 type  2   force =     0.00000000   -0.00000000   -0.00002092
     atom   12 type  2   force =     0.00000000   -0.00000000    0.00002243
     atom   13 type  2   force =    -0.00000000    0.00000000    0.00002109
     atom   14 type  2   force =    -0.00000000    0.00000000    0.00001690
     atom   15 type  2   force =     0.00000000   -0.00000000    0.00006130
     atom   16 type  2   force =     0.00000000   -0.00000000   -0.00007466
     atom   17 type  2   force =     0.00000000   -0.00000000   -0.00004555
     atom   18 type  2   force =     0.00000000   -0.00000000    0.00004047
     atom   19 type  2   force =     0.00000000   -0.00000000    0.00000052
     atom   20 type  2   force =     0.00000000   -0.00000000   -0.00005184
     atom   21 type  2   force =     0.00000000   -0.00000000    0.00001538

     Total force =     0.002926     Total SCF correction =     0.000187


     Computing stress (Cartesian axis) and pressure



     -----------------------------------------------
     Non-local corr. energy    =      10.07163906 Ry
     -----------------------------------------------

          total   stress  (Ry/bohr**3)                   (kbar)     P=        1.05
   0.00000653   0.00000000  -0.00000000            0.96        0.00       -0.00
   0.00000000   0.00000653   0.00000000            0.00        0.96        0.00
  -0.00000000  -0.00000000   0.00000832           -0.00       -0.00        1.22

     kinetic stress (kbar)  14907.10      0.00      0.00
                                0.00  14907.10      0.00
                               -0.00     -0.00  14918.17

     local   stress (kbar)  -7738.80     -0.00      0.00
                               -0.00  -7738.80     -0.00
                                0.00     -0.00   1731.75

     nonloc. stress (kbar)  -1066.52     -0.00      0.00
                               -0.00  -1066.52     -0.00
                                0.00     -0.00  -1072.51

     hartree stress (kbar)  12094.28     -0.00     -0.00
                               -0.00  12094.28     -0.00
                               -0.00     -0.00   7820.01

     exc-cor stress (kbar)   6907.78      0.00     -0.00
                                0.00   6907.78      0.00
                               -0.00      0.00   6906.58

     corecor stress (kbar) -11246.84     -0.00     -0.00
                               -0.00 -11246.84      0.00
                               -0.00      0.00 -11246.77

     ewald   stress (kbar) -13938.86      0.00     -0.01
                                0.00 -13938.85      0.00
                               -0.01      0.00 -19140.23

     hubbard stress (kbar)      0.00      0.00      0.00
                                0.00      0.00      0.00
                                0.00      0.00      0.00

     DFT-D   stress (kbar)      0.00      0.00      0.00
                                0.00      0.00      0.00
                                0.00      0.00      0.00

     XDM     stress (kbar)      0.00      0.00      0.00
                                0.00      0.00      0.00
                                0.00      0.00      0.00

     dft-nl  stress (kbar)     82.82     -0.00      0.00
                               -0.00     82.82     -0.00
                                0.00     -0.00     84.22

     TS-vdW  stress (kbar)      0.00      0.00      0.00
                                0.00      0.00      0.00
                                0.00      0.00      0.00

     MDB     stress (kbar)      0.00      0.00      0.00
                                0.00      0.00      0.00
                                0.00      0.00      0.00

     3D-RISM stress (kbar)      0.00      0.00      0.00
                                0.00      0.00      0.00
                                0.00      0.00      0.00


     Writing all to output data dir ./PbI2.save/
 
     init_run     :      4.59s CPU      4.76s WALL (       2 calls)
     electrons    :   4965.41s CPU   5027.61s WALL (      18 calls)
     update_pot   :      9.23s CPU      9.33s WALL (      16 calls)
     forces       :     14.88s CPU     15.22s WALL (      18 calls)
     stress       :     37.32s CPU     37.79s WALL (      18 calls)

     Called by init_run:
     wfcinit      :      2.70s CPU      2.76s WALL (       2 calls)
     wfcinit:atom :      0.01s CPU      0.01s WALL (       8 calls)
     wfcinit:wfcr :      2.68s CPU      2.73s WALL (       8 calls)
     potinit      :      0.87s CPU      0.91s WALL (       2 calls)
     hinit0       :      0.50s CPU      0.51s WALL (       2 calls)

     Called by electrons:
     c_bands      :   4611.42s CPU   4666.45s WALL (     398 calls)
     sum_band     :    254.57s CPU    257.73s WALL (     398 calls)
     v_of_rho     :     45.04s CPU     45.90s WALL (     411 calls)
     v_h          :      0.54s CPU      0.55s WALL (     411 calls)
     v_xc         :     48.37s CPU     49.29s WALL (     447 calls)
     newd         :     19.97s CPU     20.27s WALL (     411 calls)
     PAW_pot      :     34.25s CPU     34.61s WALL (     427 calls)
     mix_rho      :      2.86s CPU      2.92s WALL (     398 calls)
     vdW_kernel   :      0.25s CPU      0.26s WALL (       1 calls)

     Called by c_bands:
     init_us_2    :      9.54s CPU      9.79s WALL (    3400 calls)
     init_us_2:cp :      9.51s CPU      9.77s WALL (    3400 calls)
     cegterg      :   4580.08s CPU   4632.42s WALL (    1594 calls)

     Called by sum_band:
     sum_band:wei :      0.06s CPU      0.06s WALL (     398 calls)
     sum_band:loo :    219.83s CPU    222.31s WALL (     398 calls)
     sum_band:buf :      3.62s CPU      3.77s WALL (    1592 calls)
     sum_band:ini :      4.21s CPU      4.28s WALL (    1592 calls)
     sum_band:cal :     30.07s CPU     30.30s WALL (    1656 calls)
     sum_band:bec :      1.12s CPU      1.14s WALL (    1656 calls)
     addusdens    :     29.24s CPU     29.77s WALL (     398 calls)
     addusd:skk   :      0.34s CPU      0.36s WALL (     796 calls)
     addusd:dgemm :     19.91s CPU     20.32s WALL (     796 calls)
     addusd:qvan2 :      8.40s CPU      8.50s WALL (     796 calls)

     Called by *egterg:
     cdiaghg      :   2691.71s CPU   2708.48s WALL (   18712 calls)
     cegterg:over :    211.62s CPU    221.61s WALL (   17203 calls)
     cegterg:upda :    118.75s CPU    120.33s WALL (   17203 calls)
     cegterg:last :     32.25s CPU     32.56s WALL (    1657 calls)
     h_psi        :   1316.98s CPU   1332.08s WALL (   18805 calls)
     s_psi        :     72.31s CPU     73.58s WALL (   18805 calls)
     g_psi        :      0.82s CPU      0.84s WALL (   17203 calls)

     Called by h_psi:
     h_psi:calbec :    116.87s CPU    117.93s WALL (   18805 calls)
     vloc_psi     :   1115.55s CPU   1128.45s WALL (   18805 calls)
     add_vuspsi   :     79.45s CPU     80.53s WALL (   18805 calls)

     General routines
     calbec       :    154.23s CPU    155.64s WALL (   20821 calls)
     fft          :     36.12s CPU     36.58s WALL (   28920 calls)
     ffts         :      1.02s CPU      1.05s WALL (     809 calls)
     fftw         :   1271.48s CPU   1286.16s WALL ( 2069448 calls)
     interpolate  :      1.22s CPU      1.26s WALL (     411 calls)
 
     Parallel routines

     PAW routines
     PAW_pot      :     34.25s CPU     34.61s WALL (     427 calls)
     PAW_symme    :      0.60s CPU      0.61s WALL (     825 calls)
 
     PWSCF        :      1h23m CPU      1h25m WALL

 
   This run was terminated on:  17:15:39  20Feb2024            

=------------------------------------------------------------------------------=
   JOB DONE.
=------------------------------------------------------------------------------=
