
     Program PWSCF v.7.1 starts on 18Feb2024 at 11:44: 7 

     This program is part of the open-source Quantum ESPRESSO suite
     for quantum simulation of materials; please cite
         "P. Giannozzi et al., J. Phys.:Condens. Matter 21 395502 (2009);
         "P. Giannozzi et al., J. Phys.:Condens. Matter 29 465901 (2017);
         "P. Giannozzi et al., J. Chem. Phys. 152 154105 (2020);
          URL http://www.quantum-espresso.org", 
     in publications or presentations arising from this work. More details at
     http://www.quantum-espresso.org/quote

     Parallel version (MPI & OpenMP), running on     128 processor cores
     Number of MPI processes:               128
     Threads/MPI process:                     1

     MPI processes distributed on     1 nodes
     1908927 MiB available memory on the printing compute node when the environment starts
 
     Reading input from espresso.pwi
Warning: card &CELL ignored
Warning: card    CELL_DYNAMICS    = 'BFGS' ignored
Warning: card / ignored

     Current dimensions of program PWSCF are:
     Max number of different atomic species (ntypx) = 10
     Max number of k-points (npk) =  40000
     Max angular momentum in pseudopotentials (lmaxx) =  4
     file Pb.pbe-dn-kjpaw_psl.1.0.0.UPF: wavefunction(s)  6S 6P 5D renormalized
     file I.pbe-dn-kjpaw_psl.1.0.0.UPF: wavefunction(s)  5S 5P renormalized

     **************************************************************************
     Initializing libbeef V0.1.2 with the BEEF-vdW functional.
     Citation: Wellendorff et al., PRB 85, 235149 (2012).
     **************************************************************************


     IMPORTANT: XC functional enforced from input :
     Exchange-correlation= BEEF-VDW
                           (   1   4  43  14   2   0   0)
     Any further DFT definition will be discarded
     Please, verify this is what you really want

 
     R & G space division:  proc/nbgrp/npool/nimage =     128
     Subspace diagonalization in iterative solution of the eigenvalue problem:
     a serial algorithm will be used

 
     Parallelization info
     --------------------
     sticks:   dense  smooth     PW     G-vecs:    dense   smooth      PW
     Min         238     190     47                26444    18918    2361
     Max         239     191     48                26451    18927    2368
     Sum       30577   24439   6121              3385235  2422379  302703
 
     Using Slab Decomposition
 


     bravais-lattice index     =            4
     lattice parameter (alat)  =      35.6073  a.u.
     unit-cell volume          =   30614.2220 (a.u.)^3
     number of atoms/cell      =           96
     number of atomic types    =            2
     number of electrons       =      1536.00
     number of Kohn-Sham states=          922
     kinetic-energy cutoff     =      70.0000  Ry
     charge density cutoff     =     350.0000  Ry
     scf convergence threshold =      1.0E-07
     mixing beta               =       0.7000
     number of iterations used =            8  plain     mixing
     Exchange-correlation= BEEF-VDW
                           (   1   4  43  14   2   0   0)

     celldm(1)=  35.607290  celldm(2)=   0.000000  celldm(3)=   0.783025
     celldm(4)=   0.000000  celldm(5)=   0.000000  celldm(6)=   0.000000

     crystal axes: (cart. coord. in units of alat)
               a(1) = (   1.000000   0.000000   0.000000 )  
               a(2) = (  -0.500000   0.866025   0.000000 )  
               a(3) = (   0.000000   0.000000   0.783025 )  

     reciprocal axes: (cart. coord. in units 2 pi/alat)
               b(1) = (  1.000000  0.577350 -0.000000 )  
               b(2) = (  0.000000  1.154701  0.000000 )  
               b(3) = (  0.000000 -0.000000  1.277098 )  


     PseudoPot. # 1 for Pb read from file:
     //group///packages/espresso/pseudo/psl_1.0.0/pslibrary.1.0.0/pbe/PSEUDOPOTENTIALS/Pb.pbe-dn-kjpaw_psl.1.0.0.UPF
     MD5 check sum: 39ab5b8a6bbd56b7735ad9f188aac93a
     Pseudo is Projector augmented-wave + core cor, Zval = 14.0
     Generated using 'atomic' code by A. Dal Corso  v.7.1
     Shape of augmentation charge: PSQ
     Using radial grid of 1281 points,  6 beta functions with: 
                l(1) =   0
                l(2) =   0
                l(3) =   1
                l(4) =   1
                l(5) =   2
                l(6) =   2
     Q(r) pseudized with 0 coefficients 


     PseudoPot. # 2 for I  read from file:
     //group///packages/espresso/pseudo/psl_1.0.0/pslibrary.1.0.0/pbe/PSEUDOPOTENTIALS/I.pbe-dn-kjpaw_psl.1.0.0.UPF
     MD5 check sum: bfa8781bc1224d19af3f3980e3fab11e
     Pseudo is Projector augmented-wave + core cor, Zval = 17.0
     Generated using 'atomic' code by A. Dal Corso  v.7.1
     Shape of augmentation charge: PSQ
     Using radial grid of 1247 points,  6 beta functions with: 
                l(1) =   0
                l(2) =   0
                l(3) =   1
                l(4) =   1
                l(5) =   2
                l(6) =   2
     Q(r) pseudized with 0 coefficients 


     atomic species   valence    mass     pseudopotential
        Pb            14.00   207.20000     Pb( 1.00)
        I             17.00   126.90447     I ( 1.00)

     No symmetry found


                                    s                        frac. trans.

      isym =  1     identity                                     

 cryst.   s( 1) = (     1          0          0      )
                  (     0          1          0      )
                  (     0          0          1      )

 cart.    s( 1) = (  1.0000000  0.0000000  0.0000000 )
                  (  0.0000000  1.0000000  0.0000000 )
                  (  0.0000000  0.0000000  1.0000000 )


     point group C_1 (1)    
     there are  1 classes
     the character table:

       E    
A      1.00

     the symmetry operations in each class and the name of the first element:

     E        1
          identity                                               

   Cartesian axes

     site n.     atom                  positions (alat units)
         1           Pb  tau(   1) = (   0.1250086   0.2164870   0.7830203  )
         2           Pb  tau(   2) = (   0.1250034   0.2164916   0.3915076  )
         3           Pb  tau(   3) = (   0.0000077   0.4329922   0.7830161  )
         4           Pb  tau(   4) = (   0.0000025   0.4329968   0.3915034  )
         5           Pb  tau(   5) = (  -0.1249932   0.6494975   0.7830119  )
         6           Pb  tau(   6) = (  -0.1249984   0.6495021   0.3914992  )
         7           Pb  tau(   7) = (  -0.2499941   0.8660028   0.7830077  )
         8           Pb  tau(   8) = (  -0.2499993   0.8660074   0.3914950  )
         9           Pb  tau(   9) = (   0.3750086   0.2164859   0.7830237  )
        10           Pb  tau(  10) = (   0.3750034   0.2164905   0.3915110  )
        11           Pb  tau(  11) = (   0.2500077   0.4329912   0.7830194  )
        12           Pb  tau(  12) = (   0.2500025   0.4329958   0.3915068  )
        13           Pb  tau(  13) = (   0.1250068   0.6494965   0.7830152  )
        14           Pb  tau(  14) = (   0.1250016   0.6495011   0.3915026  )
        15           Pb  tau(  15) = (   0.0000059   0.8660017   0.7830110  )
        16           Pb  tau(  16) = (   0.0000007   0.8660063   0.3914983  )
        17           Pb  tau(  17) = (   0.6250086   0.2164849   0.7830270  )
        18           Pb  tau(  18) = (   0.6250034   0.2164895   0.3915143  )
        19           Pb  tau(  19) = (   0.5000077   0.4329901   0.7830228  )
        20           Pb  tau(  20) = (   0.5000025   0.4329947   0.3915101  )
        21           Pb  tau(  21) = (   0.3750068   0.6494954   0.7830186  )
        22           Pb  tau(  22) = (   0.3750016   0.6495000   0.3915059  )
        23           Pb  tau(  23) = (   0.2500059   0.8660007   0.7830144  )
        24           Pb  tau(  24) = (   0.2500007   0.8660053   0.3915017  )
        25           Pb  tau(  25) = (   0.8750086   0.2164838   0.7830303  )
        26           Pb  tau(  26) = (   0.8750034   0.2164884   0.3915177  )
        27           Pb  tau(  27) = (   0.7500077   0.4329891   0.7830261  )
        28           Pb  tau(  28) = (   0.7500025   0.4329937   0.3915135  )
        29           Pb  tau(  29) = (   0.6250068   0.6494944   0.7830219  )
        30           Pb  tau(  30) = (   0.6250016   0.6494990   0.3915092  )
        31           Pb  tau(  31) = (   0.5000059   0.8659996   0.7830177  )
        32           Pb  tau(  32) = (   0.5000007   0.8660042   0.3915050  )
        33           I   tau(  33) = (   0.1250056   0.0721546   0.2909163  )
        34           I   tau(  34) = (   0.1250108   0.0721500   0.6824290  )
        35           I   tau(  35) = (   0.0000047   0.2886599   0.2909121  )
        36           I   tau(  36) = (   0.0000099   0.2886553   0.6824248  )
        37           I   tau(  37) = (  -0.1249962   0.5051652   0.2909079  )
        38           I   tau(  38) = (  -0.1249910   0.5051606   0.6824206  )
        39           I   tau(  39) = (  -0.2499972   0.7216704   0.2909037  )
        40           I   tau(  40) = (  -0.2499919   0.7216658   0.6824164  )
        41           I   tau(  41) = (   0.3750056   0.0721536   0.2909197  )
        42           I   tau(  42) = (   0.3750108   0.0721490   0.6824324  )
        43           I   tau(  43) = (   0.2500047   0.2886589   0.2909155  )
        44           I   tau(  44) = (   0.2500099   0.2886543   0.6824282  )
        45           I   tau(  45) = (   0.1250038   0.5051641   0.2909113  )
        46           I   tau(  46) = (   0.1250090   0.5051595   0.6824240  )
        47           I   tau(  47) = (   0.0000028   0.7216694   0.2909071  )
        48           I   tau(  48) = (   0.0000081   0.7216648   0.6824197  )
        49           I   tau(  49) = (   0.6250056   0.0721525   0.2909230  )
        50           I   tau(  50) = (   0.6250108   0.0721479   0.6824357  )
        51           I   tau(  51) = (   0.5000047   0.2886578   0.2909188  )
        52           I   tau(  52) = (   0.5000099   0.2886532   0.6824315  )
        53           I   tau(  53) = (   0.3750038   0.5051631   0.2909146  )
        54           I   tau(  54) = (   0.3750090   0.5051585   0.6824273  )
        55           I   tau(  55) = (   0.2500028   0.7216683   0.2909104  )
        56           I   tau(  56) = (   0.2500081   0.7216637   0.6824231  )
        57           I   tau(  57) = (   0.8750056   0.0721515   0.2909264  )
        58           I   tau(  58) = (   0.8750108   0.0721469   0.6824391  )
        59           I   tau(  59) = (   0.7500047   0.2886567   0.2909222  )
        60           I   tau(  60) = (   0.7500099   0.2886521   0.6824348  )
        61           I   tau(  61) = (   0.6250038   0.5051620   0.2909180  )
        62           I   tau(  62) = (   0.6250090   0.5051574   0.6824306  )
        63           I   tau(  63) = (   0.5000028   0.7216673   0.2909137  )
        64           I   tau(  64) = (   0.5000081   0.7216627   0.6824264  )
        65           I   tau(  65) = (  -0.0000018   0.1443297   0.1005933  )
        66           I   tau(  66) = (   0.0000034   0.1443251   0.4921060  )
        67           I   tau(  67) = (  -0.1250027   0.3608350   0.1005891  )
        68           I   tau(  68) = (  -0.1249975   0.3608304   0.4921018  )
        69           I   tau(  69) = (  -0.2500036   0.5773403   0.1005849  )
        70           I   tau(  70) = (  -0.2499984   0.5773357   0.4920975  )
        71           I   tau(  71) = (  -0.3750045   0.7938455   0.1005807  )
        72           I   tau(  72) = (  -0.3749993   0.7938409   0.4920933  )
        73           I   tau(  73) = (   0.2499982   0.1443287   0.1005966  )
        74           I   tau(  74) = (   0.2500034   0.1443241   0.4921093  )
        75           I   tau(  75) = (   0.1249973   0.3608340   0.1005924  )
        76           I   tau(  76) = (   0.1250025   0.3608294   0.4921051  )
        77           I   tau(  77) = (  -0.0000036   0.5773392   0.1005882  )
        78           I   tau(  78) = (   0.0000016   0.5773346   0.4921009  )
        79           I   tau(  79) = (  -0.1250045   0.7938445   0.1005840  )
        80           I   tau(  80) = (  -0.1249993   0.7938399   0.4920967  )
        81           I   tau(  81) = (   0.4999982   0.1443276   0.1006000  )
        82           I   tau(  82) = (   0.5000034   0.1443230   0.4921126  )
        83           I   tau(  83) = (   0.3749973   0.3608329   0.1005958  )
        84           I   tau(  84) = (   0.3750025   0.3608283   0.4921084  )
        85           I   tau(  85) = (   0.2499964   0.5773382   0.1005915  )
        86           I   tau(  86) = (   0.2500016   0.5773336   0.4921042  )
        87           I   tau(  87) = (   0.1249955   0.7938434   0.1005873  )
        88           I   tau(  88) = (   0.1250007   0.7938388   0.4921000  )
        89           I   tau(  89) = (   0.7499982   0.1443266   0.1006033  )
        90           I   tau(  90) = (   0.7500034   0.1443220   0.4921160  )
        91           I   tau(  91) = (   0.6249973   0.3608319   0.1005991  )
        92           I   tau(  92) = (   0.6250025   0.3608273   0.4921118  )
        93           I   tau(  93) = (   0.4999964   0.5773371   0.1005949  )
        94           I   tau(  94) = (   0.5000016   0.5773325   0.4921076  )
        95           I   tau(  95) = (   0.3749955   0.7938424   0.1005907  )
        96           I   tau(  96) = (   0.3750007   0.7938378   0.4921034  )

   Crystallographic axes

     site n.     atom                  positions (cryst. coord.)
         1           Pb  tau(   1) = (  0.2499975  0.2499776  0.9999935  )
         2           Pb  tau(   2) = (  0.2499949  0.2499829  0.4999935  )
         3           Pb  tau(   3) = (  0.2499959  0.4999764  0.9999882  )
         4           Pb  tau(   4) = (  0.2499933  0.4999817  0.4999882  )
         5           Pb  tau(   5) = (  0.2499944  0.7499751  0.9999828  )
         6           Pb  tau(   6) = (  0.2499918  0.7499804  0.4999828  )
         7           Pb  tau(   7) = (  0.2499928  0.9999739  0.9999774  )
         8           Pb  tau(   8) = (  0.2499903  0.9999792  0.4999774  )
         9           Pb  tau(   9) = (  0.4999968  0.2499764  0.9999978  )
        10           Pb  tau(  10) = (  0.4999943  0.2499817  0.4999978  )
        11           Pb  tau(  11) = (  0.4999953  0.4999752  0.9999924  )
        12           Pb  tau(  12) = (  0.4999927  0.4999805  0.4999924  )
        13           Pb  tau(  13) = (  0.4999938  0.7499739  0.9999871  )
        14           Pb  tau(  14) = (  0.4999912  0.7499792  0.4999871  )
        15           Pb  tau(  15) = (  0.4999922  0.9999727  0.9999817  )
        16           Pb  tau(  16) = (  0.4999896  0.9999780  0.4999817  )
        17           Pb  tau(  17) = (  0.7499962  0.2499752  1.0000021  )
        18           Pb  tau(  18) = (  0.7499936  0.2499805  0.5000021  )
        19           Pb  tau(  19) = (  0.7499947  0.4999739  0.9999967  )
        20           Pb  tau(  20) = (  0.7499921  0.4999793  0.4999967  )
        21           Pb  tau(  21) = (  0.7499932  0.7499727  0.9999913  )
        22           Pb  tau(  22) = (  0.7499906  0.7499780  0.4999913  )
        23           Pb  tau(  23) = (  0.7499916  0.9999714  0.9999860  )
        24           Pb  tau(  24) = (  0.7499890  0.9999767  0.4999860  )
        25           Pb  tau(  25) = (  0.9999956  0.2499740  1.0000064  )
        26           Pb  tau(  26) = (  0.9999930  0.2499793  0.5000064  )
        27           Pb  tau(  27) = (  0.9999941  0.4999727  1.0000010  )
        28           Pb  tau(  28) = (  0.9999915  0.4999780  0.5000010  )
        29           Pb  tau(  29) = (  0.9999926  0.7499715  0.9999956  )
        30           Pb  tau(  30) = (  0.9999900  0.7499768  0.4999956  )
        31           Pb  tau(  31) = (  0.9999910  0.9999702  0.9999902  )
        32           Pb  tau(  32) = (  0.9999884  0.9999755  0.4999902  )
        33           I   tau(  33) = (  0.1666641  0.0833170  0.3715286  )
        34           I   tau(  34) = (  0.1666667  0.0833117  0.8715286  )
        35           I   tau(  35) = (  0.1666625  0.3333157  0.3715233  )
        36           I   tau(  36) = (  0.1666651  0.3333104  0.8715233  )
        37           I   tau(  37) = (  0.1666610  0.5833145  0.3715179  )
        38           I   tau(  38) = (  0.1666636  0.5833092  0.8715179  )
        39           I   tau(  39) = (  0.1666595  0.8333132  0.3715125  )
        40           I   tau(  40) = (  0.1666621  0.8333079  0.8715125  )
        41           I   tau(  41) = (  0.4166635  0.0833158  0.3715329  )
        42           I   tau(  42) = (  0.4166661  0.0833105  0.8715329  )
        43           I   tau(  43) = (  0.4166619  0.3333145  0.3715275  )
        44           I   tau(  44) = (  0.4166645  0.3333092  0.8715275  )
        45           I   tau(  45) = (  0.4166604  0.5833133  0.3715222  )
        46           I   tau(  46) = (  0.4166630  0.5833080  0.8715221  )
        47           I   tau(  47) = (  0.4166589  0.8333120  0.3715168  )
        48           I   tau(  48) = (  0.4166614  0.8333067  0.8715168  )
        49           I   tau(  49) = (  0.6666629  0.0833146  0.3715372  )
        50           I   tau(  50) = (  0.6666655  0.0833093  0.8715372  )
        51           I   tau(  51) = (  0.6666613  0.3333133  0.3715318  )
        52           I   tau(  52) = (  0.6666639  0.3333080  0.8715318  )
        53           I   tau(  53) = (  0.6666598  0.5833121  0.3715264  )
        54           I   tau(  54) = (  0.6666624  0.5833068  0.8715264  )
        55           I   tau(  55) = (  0.6666582  0.8333108  0.3715210  )
        56           I   tau(  56) = (  0.6666608  0.8333055  0.8715210  )
        57           I   tau(  57) = (  0.9166623  0.0833134  0.3715414  )
        58           I   tau(  58) = (  0.9166648  0.0833080  0.8715414  )
        59           I   tau(  59) = (  0.9166607  0.3333121  0.3715361  )
        60           I   tau(  60) = (  0.9166633  0.3333068  0.8715361  )
        61           I   tau(  61) = (  0.9166592  0.5833108  0.3715307  )
        62           I   tau(  62) = (  0.9166618  0.5833055  0.8715307  )
        63           I   tau(  63) = (  0.9166576  0.8333096  0.3715253  )
        64           I   tau(  64) = (  0.9166602  0.8333043  0.8715253  )
        65           I   tau(  65) = (  0.0833270  0.1666576  0.1284675  )
        66           I   tau(  66) = (  0.0833296  0.1666523  0.6284675  )
        67           I   tau(  67) = (  0.0833255  0.4166564  0.1284621  )
        68           I   tau(  68) = (  0.0833281  0.4166511  0.6284621  )
        69           I   tau(  69) = (  0.0833239  0.6666551  0.1284567  )
        70           I   tau(  70) = (  0.0833265  0.6666498  0.6284567  )
        71           I   tau(  71) = (  0.0833224  0.9166539  0.1284513  )
        72           I   tau(  72) = (  0.0833250  0.9166486  0.6284513  )
        73           I   tau(  73) = (  0.3333264  0.1666564  0.1284717  )
        74           I   tau(  74) = (  0.3333290  0.1666511  0.6284717  )
        75           I   tau(  75) = (  0.3333249  0.4166552  0.1284664  )
        76           I   tau(  76) = (  0.3333275  0.4166499  0.6284663  )
        77           I   tau(  77) = (  0.3333233  0.6666539  0.1284610  )
        78           I   tau(  78) = (  0.3333259  0.6666486  0.6284610  )
        79           I   tau(  79) = (  0.3333218  0.9166527  0.1284556  )
        80           I   tau(  80) = (  0.3333244  0.9166473  0.6284556  )
        81           I   tau(  81) = (  0.5833258  0.1666552  0.1284760  )
        82           I   tau(  82) = (  0.5833284  0.1666499  0.6284760  )
        83           I   tau(  83) = (  0.5833243  0.4166539  0.1284706  )
        84           I   tau(  84) = (  0.5833269  0.4166486  0.6284706  )
        85           I   tau(  85) = (  0.5833227  0.6666527  0.1284652  )
        86           I   tau(  86) = (  0.5833253  0.6666474  0.6284652  )
        87           I   tau(  87) = (  0.5833212  0.9166514  0.1284599  )
        88           I   tau(  88) = (  0.5833238  0.9166461  0.6284599  )
        89           I   tau(  89) = (  0.8333252  0.1666540  0.1284803  )
        90           I   tau(  90) = (  0.8333278  0.1666487  0.6284803  )
        91           I   tau(  91) = (  0.8333237  0.4166527  0.1284749  )
        92           I   tau(  92) = (  0.8333262  0.4166474  0.6284749  )
        93           I   tau(  93) = (  0.8333221  0.6666515  0.1284695  )
        94           I   tau(  94) = (  0.8333247  0.6666462  0.6284695  )
        95           I   tau(  95) = (  0.8333206  0.9166502  0.1284641  )
        96           I   tau(  96) = (  0.8333232  0.9166449  0.6284641  )

     number of k points=     1  Gaussian smearing, width (Ry)=  0.0100
                       cart. coord. in units 2pi/alat
        k(    1) = (   0.0000000   0.0000000   0.0000000), wk =   2.0000000

                       cryst. coord.
        k(    1) = (   0.0000000   0.0000000   0.0000000), wk =   2.0000000

     Dense  grid:  3385235 G-vectors     FFT dimensions: ( 216, 216, 180)

     Smooth grid:  2422379 G-vectors     FFT dimensions: ( 192, 192, 150)

     Dynamical RAM for                 wfc:      33.27 MB

     Dynamical RAM for     wfc (w. buffer):      33.27 MB

     Dynamical RAM for           str. fact:       0.81 MB

     Dynamical RAM for           local pot:       0.00 MB

     Dynamical RAM for          nlocal pot:      62.36 MB

     Dynamical RAM for                qrad:       3.00 MB

     Dynamical RAM for          rho,v,vnew:       3.35 MB

     Dynamical RAM for               rhoin:       1.12 MB

     Dynamical RAM for            rho*nmix:       6.46 MB

     Dynamical RAM for           G-vectors:       1.66 MB

     Dynamical RAM for          h,s,v(r/c):     622.62 MB

     Dynamical RAM for          <psi|beta>:      24.31 MB

     Dynamical RAM for                 psi:     133.09 MB

     Dynamical RAM for                hpsi:     133.09 MB

     Dynamical RAM for                spsi:     133.09 MB

     Dynamical RAM for      wfcinit/wfcrot:      86.01 MB

     Dynamical RAM for           addusdens:     100.90 MB

     Dynamical RAM for          addusforce:     152.21 MB

     Dynamical RAM for         addusstress:      81.13 MB

     Estimated static dynamical RAM per process >     110.33 MB

     Estimated max dynamical RAM per process >       1.14 GB

     Estimated total dynamical RAM >     145.37 GB

     Atomic positions and unit cell read from directory:
     ./PbI2.save/
     Atomic positions from file used, from input discarded
 

     Check: negative core charge=   -0.000001

     The initial density is read from file :
     ./PbI2.save/charge-density



     %%%%%%%%%%%%%%%%%%%%%%%%%%%%%%%%%%%%%%%%%%%%%%%%%%%%%%%%%%%%%%%%%%%%%%%%
     %                                                                      %
     % You are using vdW-DF, which was implemented by the Thonhauser group. %
     % Please cite the following two papers that made this development      %
     % possible and the two reviews that describe the various versions:     %
     %                                                                      %
     %   T. Thonhauser et al., PRL 115, 136402 (2015).                      %
     %   T. Thonhauser et al., PRB 76, 125112 (2007).                       %
     %   K. Berland et al., Rep. Prog. Phys. 78, 066501 (2015).             %
     %   D.C. Langreth et al., J. Phys.: Condens. Matter 21, 084203 (2009). %
     %                                                                      %
     % If you are calculating stress with vdW-DF, please also cite:         %
     %                                                                      %
     %   R. Sabatini et al., J. Phys.: Condens. Matter 24, 424209 (2012).   %
     %                                                                      %
     %%%%%%%%%%%%%%%%%%%%%%%%%%%%%%%%%%%%%%%%%%%%%%%%%%%%%%%%%%%%%%%%%%%%%%%%

     %%%%%%%%%%%%%%%%%%%%%%%%%%%%%%%%%%%%%%%%%%%%%%%%%%%%%%%%%%%%%%%%%%%%%%%%
     %                                                                      %
     %  vdW-DF NEWS:                                                        %
     %                                                                      %
     %  * vdW-DF3 is now available. DOI: 10.1021/acs.jctc.0c00471           %
     %    use with input_dft = 'vdW-DF3-opt1' or 'vdW-DF3-opt2'             %
     %                                                                      %
     %  * Unscreened and range-separated vdW-DF hybrid functionals          %
     %    DOI: 10.1063/1.4986522 and 10.1088/1361-648X/ac2ad2               %
     %    use with input_dft = 'vdW-DF-cx0' (etc) and 'vdW-DF-ahcx'         %
     %                                                                      %
     %%%%%%%%%%%%%%%%%%%%%%%%%%%%%%%%%%%%%%%%%%%%%%%%%%%%%%%%%%%%%%%%%%%%%%%%


     Carrying out vdW-DF run using the following parameters:
     Nqs    =  20  Npoints =  1024  r_max =  100.000
     q_mesh =  0.00001000  0.04494208  0.09755937  0.15916263
               0.23128650  0.31572767  0.41458969  0.53033537
               0.66584808  0.82450364  1.01025438  1.22772762
               1.48234092  1.78043706  2.12944203  2.53805004
               3.01644009  3.57652955  4.23227104  5.00000000


     -----------------------------------------------
     Non-local corr. energy    =      46.02377573 Ry
     -----------------------------------------------

     Starting wfcs from file
     Checking if some PAW data can be deallocated... 
       PAW data deallocated on   64 nodes for type:  1
       PAW data deallocated on   64 nodes for type:  2

     total cpu time spent up to now is       19.3 secs

     Self-consistent Calculation

     iteration #  1     ecut=    70.00 Ry     beta= 0.70
     Davidson diagonalization with overlap

---- Real-time Memory Report at c_bands before calling an iterative solver
           343 MiB given to the printing process from OS
             0 MiB allocation reported by mallinfo(arena+hblkhd)
       1889971 MiB available memory on the node where the printing process lives
------------------
     ethr =  1.00E-05,  avg # of iterations =  1.0

     Threshold (ethr) on eigenvalues was too large:
     Diagonalizing with lowered threshold

     Davidson diagonalization with overlap

---- Real-time Memory Report at c_bands before calling an iterative solver
           929 MiB given to the printing process from OS
             0 MiB allocation reported by mallinfo(arena+hblkhd)
       1872026 MiB available memory on the node where the printing process lives
------------------
     ethr =  3.88E-13,  avg # of iterations = 18.0


     -----------------------------------------------
     Non-local corr. energy    =      46.02377490 Ry
     -----------------------------------------------


     total cpu time spent up to now is      239.8 secs

     End of self-consistent calculation

          k = 0.0000 0.0000 0.0000 (302703 PWs)   bands (ev):

   -40.7655 -40.7655 -40.7654 -40.7654 -40.7654 -40.7654 -40.7654 -40.7654
   -40.7653 -40.7653 -40.7653 -40.7653 -40.7653 -40.7653 -40.7653 -40.7653
   -40.7653 -40.7652 -40.7652 -40.7652 -40.7652 -40.7652 -40.7652 -40.7652
   -40.7652 -40.7652 -40.7652 -40.7652 -40.7652 -40.7652 -40.7652 -40.7652
   -40.7652 -40.7652 -40.7652 -40.7652 -40.7652 -40.7652 -40.7652 -40.7652
   -40.7651 -40.7651 -40.7651 -40.7651 -40.7651 -40.7651 -40.7651 -40.7651
   -40.7651 -40.7651 -40.7651 -40.7651 -40.7651 -40.7651 -40.7651 -40.7651
   -40.7651 -40.7651 -40.7651 -40.7651 -40.7651 -40.7651 -40.7651 -40.7651
   -40.7651 -40.7651 -40.7651 -40.7651 -40.7651 -40.7650 -40.7650 -40.7650
   -40.7650 -40.7650 -40.7650 -40.7650 -40.7650 -40.7650 -40.7650 -40.7650
   -40.7650 -40.7650 -40.7650 -40.7650 -40.7650 -40.7650 -40.7650 -40.7650
   -40.7650 -40.7650 -40.7650 -40.7650 -40.7650 -40.7650 -40.7650 -40.7650
   -40.7650 -40.7650 -40.7650 -40.7650 -40.7650 -40.7650 -40.7649 -40.7649
   -40.7649 -40.7649 -40.7649 -40.7649 -40.7649 -40.7649 -40.7649 -40.7649
   -40.7649 -40.7649 -40.7649 -40.7649 -40.7649 -40.7649 -40.7648 -40.7648
   -40.7648 -40.7648 -40.7648 -40.7648 -40.7648 -40.7648 -40.7648 -40.7648
   -40.7648 -40.7648 -40.7648 -40.7648 -40.7648 -40.7647 -40.7647 -40.7647
   -40.7647 -40.7647 -40.7647 -40.7647 -40.7647 -40.7647 -40.7647 -40.7647
   -40.7647 -40.7647 -40.7647 -40.7647 -40.7647 -40.7647 -40.7647 -40.7647
   -40.7647 -40.7646 -40.7646 -40.7646 -40.7646 -40.7646 -40.7646 -40.7646
   -40.7646 -40.7646 -40.7646 -40.7646 -40.7646 -40.7646 -40.7646 -40.7646
   -40.7646 -40.7646 -40.7646 -40.7646 -40.7646 -40.7646 -40.7646 -40.7646
   -40.7646 -40.7646 -40.7646 -40.7646 -40.7646 -40.7646 -40.7646 -40.7646
   -40.7646 -40.7646 -40.7646 -40.7646 -40.7646 -40.7645 -40.7645 -40.7645
   -40.7645 -40.7645 -40.7645 -40.7645 -40.7645 -40.7645 -40.7645 -40.7645
   -40.7645 -40.7645 -40.7645 -40.7645 -40.7645 -40.7645 -40.7645 -40.7645
   -40.7645 -40.7645 -40.7645 -40.7645 -40.7645 -40.7645 -40.7645 -40.7645
   -40.7645 -40.7645 -40.7645 -40.7645 -40.7645 -40.7645 -40.7645 -40.7645
   -40.7645 -40.7645 -40.7645 -40.7644 -40.7644 -40.7644 -40.7644 -40.7644
   -40.7644 -40.7644 -40.7644 -40.7644 -40.7644 -40.7644 -40.7644 -40.7644
   -40.7644 -40.7644 -40.7644 -40.7644 -40.7644 -40.7644 -40.7644 -40.7644
   -40.7644 -40.7644 -40.7644 -40.7644 -40.7644 -40.7644 -40.7644 -40.7644
   -40.7644 -40.7644 -40.7644 -40.7644 -40.7644 -40.7644 -40.7644 -40.7644
   -40.7644 -40.7644 -40.7644 -40.7644 -40.7644 -40.7644 -40.7644 -40.7644
   -40.7644 -40.7644 -40.7644 -40.7644 -40.7643 -40.7643 -40.7643 -40.7643
   -40.7643 -40.7643 -40.7643 -40.7643 -40.7643 -40.7643 -40.7643 -40.7643
   -40.7643 -40.7643 -40.7643 -40.7643 -40.7643 -40.7643 -40.7643 -40.7642
   -40.7642 -40.7642 -40.7642 -40.7642 -40.7642 -40.7642 -40.7642 -40.7642
   -40.7642 -40.7642 -40.7642 -40.7642 -40.7642 -40.7642 -40.7642 -40.7641
   -40.7641 -40.7641 -40.7641 -40.7641 -40.7640 -40.7640 -40.7640 -40.7640
   -12.9347 -12.9347 -12.9347 -12.9346 -12.9346 -12.9346 -12.9278 -12.9278
   -12.9278 -12.9278 -12.9278 -12.9278 -12.9277 -12.9277 -12.9277 -12.9277
   -12.9277 -12.9277 -12.9237 -12.9237 -12.9237 -12.9237 -12.9237 -12.9237
   -12.9236 -12.9236 -12.9236 -12.9236 -12.9236 -12.9236 -12.9159 -12.9159
   -12.9159 -12.9159 -12.9159 -12.9159 -12.9159 -12.9158 -12.9158 -12.9158
   -12.9158 -12.9158 -12.9134 -12.9134 -12.9133 -12.9133 -12.9108 -12.9107
   -12.9105 -12.9105 -12.9105 -12.9104 -12.9104 -12.9104 -12.9104 -12.9104
   -12.9104 -12.9104 -12.9103 -12.9103 -12.9103 -12.9103 -12.9103 -12.9101
   -12.9101 -12.9101 -12.9097 -12.9097 -12.9097 -12.9096 -12.9096 -12.9096
   -12.9085 -12.9085 -12.9085 -12.9085 -12.9084 -12.9084 -12.9084 -12.9084
   -12.9084 -12.9084 -12.9084 -12.9083 -12.9050 -12.9050 -12.9050 -12.9050
   -12.9049 -12.9049 -12.9049 -12.9049 -12.9049 -12.9049 -12.9049 -12.9049
   -12.9049 -12.9048 -12.9048 -12.9048 -12.9048 -12.9048 -12.9048 -12.9048
   -12.9047 -12.9047 -12.9047 -12.9047 -12.9047 -12.9047 -12.9047 -12.9047
   -12.9047 -12.9047 -12.9047 -12.9047 -12.9046 -12.9046 -12.9046 -12.9046
   -12.9044 -12.9043 -12.9043 -12.9043 -12.9018 -12.9017 -12.9017 -12.9017
   -12.9017 -12.9017 -12.9017 -12.9016 -12.9016 -12.9016 -12.9016 -12.9016
   -12.9009 -12.9009 -12.9009 -12.9009 -12.9008 -12.9008 -12.8986 -12.8986
   -12.8986 -12.8986 -12.8986 -12.8986 -12.8985 -12.8985 -12.8985 -12.8985
   -12.8985 -12.8985 -12.8963 -12.8963 -12.8963 -12.8963 -12.8963 -12.8962
    -8.1024  -8.0139  -7.9006  -7.9005  -7.9005  -7.9004  -7.9004  -7.9003
    -7.8271  -7.8270  -7.8269  -7.8269  -7.8269  -7.8268  -7.6878  -7.6346
    -7.6346  -7.6346  -7.6345  -7.6344  -7.6344  -7.6158  -7.6158  -7.6158
    -7.5967  -7.5966  -7.5966  -7.5965  -7.5965  -7.5965  -7.5877  -7.5877
    -7.5876  -7.5876  -7.5876  -7.5875  -7.5797  -7.5797  -7.5797  -7.5729
    -7.5161  -7.5161  -7.5161  -7.5006  -7.5006  -7.5005  -7.5005  -7.5005
    -7.5005  -7.5004  -7.5004  -7.5004  -7.5004  -7.5003  -7.5003  -7.4818
    -7.4818  -7.4818  -7.4623  -7.4623  -7.4623  -7.4622  -7.4622  -7.4622
    -3.6349  -3.6349  -3.6349  -3.6234  -3.6234  -3.6234  -3.6186  -3.6185
    -3.6185  -3.6185  -3.6185  -3.6184  -3.6169  -3.6169  -3.6169  -3.6169
    -3.6168  -3.6168  -3.3673  -3.3672  -3.3672  -3.3672  -3.3671  -3.3671
    -3.3464  -3.3463  -3.3463  -3.3463  -3.3463  -3.3462  -3.1788  -3.0997
     0.8639   0.8639   0.8639   1.1282   1.1282   1.1282   1.1939   1.1939
     1.1939   1.1940   1.1940   1.1940   1.3813   1.3813   1.3813   1.3814
     1.3814   1.3814   1.3823   1.3823   1.3823   1.3824   1.3824   1.3824
     1.4895   1.4896   1.4896   1.4896   1.4897   1.4897   1.5224   1.5224
     1.5224   1.5224   1.5224   1.5225   1.6282   1.6283   1.6283   1.6283
     1.6283   1.6283   1.7461   1.7461   1.7461   1.8168   1.8168   1.8168
     1.8169   1.8169   1.8170   1.9123   1.9123   1.9123   2.0359   2.0359
     2.0360   2.0401   2.0401   2.0401   2.0402   2.0402   2.0402   2.0475
     2.0475   2.0475   2.0475   2.0476   2.0476   2.1689   2.1689   2.1689
     2.2072   2.2301   2.2301   2.2302   2.2302   2.2302   2.2302   2.3186
     2.3186   2.3186   2.3187   2.3187   2.3187   2.3263   2.3263   2.3264
     2.3264   2.3264   2.3264   2.3295   2.3295   2.3296   2.3296   2.3296
     2.3297   2.4767   2.4767   2.4768   2.5319   2.5319   2.5319   2.5320
     2.5320   2.5321   2.6101   2.6101   2.6101   2.6596   2.6958   2.6958
     2.7540   2.7540   2.7541   2.7541   2.7541   2.7541   2.7603   2.7603
     2.7603   2.7711   2.7711   2.8280   2.8280   2.8280   2.8281   2.8281
     2.8281   2.8784   2.8784   2.8784   2.8784   2.8784   2.8784   2.8907
     2.8907   2.9084   2.9085   2.9085   2.9085   2.9086   2.9086   2.9659
     2.9659   2.9659   2.9885   2.9885   2.9953   2.9953   2.9953   2.9954
     2.9954   2.9954   3.0141   3.0158   3.0158   3.0158   3.0159   3.0159
     3.0159   3.0188   3.0188   3.0188   3.2003   3.2003   3.2003   3.2003
     3.2004   3.2004   3.2141   3.2141   3.2141   3.2536   3.2536   3.2536
     3.2537   3.2537   3.2537   3.3583   3.3584   3.3584   3.3584   3.3584
     3.3584   3.4076   3.4077   3.4077   3.4077   3.4077   3.4078   3.4696
     5.9330   6.1351   6.4991   6.4991   6.4991   6.4992   6.4992   6.4992
     6.5952   6.5952   6.5952   6.7011   6.7012   6.7012   6.7012   6.7012
     6.7012   6.8051   6.8051   6.8731   6.8731   6.8731   6.9076   6.9076
     6.9941   6.9942   6.9942   6.9943   6.9943   6.9943   7.1904   7.1904
     7.1904   7.1904   7.1905   7.1905   7.2636   7.2637   7.2637   7.2637
     7.2637   7.2638   7.2656   7.2656   7.2656   7.2656   7.2657   7.2657
     7.2945   7.2945   7.2946   7.2946   7.2946   7.2946   7.3245   7.3246
     7.3246   7.4099   7.4099   7.4099   7.4099   7.4100   7.4100   7.4333
     7.4333   7.4333   7.4585   7.4585   7.4586   7.4586   7.4586   7.4586
     7.4655   7.4655   7.4656   7.4656   7.4656   7.4656   7.5783   7.5783
     7.5783   7.6096   7.6096   7.6097   7.6097   7.6098   7.6098   7.7285
     7.7285   7.7286   7.7286   7.7286   7.7286   8.0637   8.0638   8.0638
     9.1917   9.1917   9.1917   9.7673   9.7673   9.7673   9.8633   9.8803
     9.8803   9.8804   9.8804   9.8804   9.8804  10.0353  10.0353  10.0354
    10.0354  10.0354  10.0355  10.0604  10.0604  10.0604  10.0605  10.0605
    10.0605  10.4040  10.4040  10.4040  10.4040  10.4041  10.4041  10.4387
    10.4387  10.4387  10.4387  10.4387  10.4388  10.4456  10.7978  10.7979
    10.7979  10.7979  10.7980  10.7980  10.9409  10.9410  10.9410  10.9410
    10.9410  10.9410  11.2004  11.2005  11.2005  11.2005  11.2005  11.2006
    11.2450  11.2450

     occupation numbers 
     1.0000   1.0000   1.0000   1.0000   1.0000   1.0000   1.0000   1.0000
     1.0000   1.0000   1.0000   1.0000   1.0000   1.0000   1.0000   1.0000
     1.0000   1.0000   1.0000   1.0000   1.0000   1.0000   1.0000   1.0000
     1.0000   1.0000   1.0000   1.0000   1.0000   1.0000   1.0000   1.0000
     1.0000   1.0000   1.0000   1.0000   1.0000   1.0000   1.0000   1.0000
     1.0000   1.0000   1.0000   1.0000   1.0000   1.0000   1.0000   1.0000
     1.0000   1.0000   1.0000   1.0000   1.0000   1.0000   1.0000   1.0000
     1.0000   1.0000   1.0000   1.0000   1.0000   1.0000   1.0000   1.0000
     1.0000   1.0000   1.0000   1.0000   1.0000   1.0000   1.0000   1.0000
     1.0000   1.0000   1.0000   1.0000   1.0000   1.0000   1.0000   1.0000
     1.0000   1.0000   1.0000   1.0000   1.0000   1.0000   1.0000   1.0000
     1.0000   1.0000   1.0000   1.0000   1.0000   1.0000   1.0000   1.0000
     1.0000   1.0000   1.0000   1.0000   1.0000   1.0000   1.0000   1.0000
     1.0000   1.0000   1.0000   1.0000   1.0000   1.0000   1.0000   1.0000
     1.0000   1.0000   1.0000   1.0000   1.0000   1.0000   1.0000   1.0000
     1.0000   1.0000   1.0000   1.0000   1.0000   1.0000   1.0000   1.0000
     1.0000   1.0000   1.0000   1.0000   1.0000   1.0000   1.0000   1.0000
     1.0000   1.0000   1.0000   1.0000   1.0000   1.0000   1.0000   1.0000
     1.0000   1.0000   1.0000   1.0000   1.0000   1.0000   1.0000   1.0000
     1.0000   1.0000   1.0000   1.0000   1.0000   1.0000   1.0000   1.0000
     1.0000   1.0000   1.0000   1.0000   1.0000   1.0000   1.0000   1.0000
     1.0000   1.0000   1.0000   1.0000   1.0000   1.0000   1.0000   1.0000
     1.0000   1.0000   1.0000   1.0000   1.0000   1.0000   1.0000   1.0000
     1.0000   1.0000   1.0000   1.0000   1.0000   1.0000   1.0000   1.0000
     1.0000   1.0000   1.0000   1.0000   1.0000   1.0000   1.0000   1.0000
     1.0000   1.0000   1.0000   1.0000   1.0000   1.0000   1.0000   1.0000
     1.0000   1.0000   1.0000   1.0000   1.0000   1.0000   1.0000   1.0000
     1.0000   1.0000   1.0000   1.0000   1.0000   1.0000   1.0000   1.0000
     1.0000   1.0000   1.0000   1.0000   1.0000   1.0000   1.0000   1.0000
     1.0000   1.0000   1.0000   1.0000   1.0000   1.0000   1.0000   1.0000
     1.0000   1.0000   1.0000   1.0000   1.0000   1.0000   1.0000   1.0000
     1.0000   1.0000   1.0000   1.0000   1.0000   1.0000   1.0000   1.0000
     1.0000   1.0000   1.0000   1.0000   1.0000   1.0000   1.0000   1.0000
     1.0000   1.0000   1.0000   1.0000   1.0000   1.0000   1.0000   1.0000
     1.0000   1.0000   1.0000   1.0000   1.0000   1.0000   1.0000   1.0000
     1.0000   1.0000   1.0000   1.0000   1.0000   1.0000   1.0000   1.0000
     1.0000   1.0000   1.0000   1.0000   1.0000   1.0000   1.0000   1.0000
     1.0000   1.0000   1.0000   1.0000   1.0000   1.0000   1.0000   1.0000
     1.0000   1.0000   1.0000   1.0000   1.0000   1.0000   1.0000   1.0000
     1.0000   1.0000   1.0000   1.0000   1.0000   1.0000   1.0000   1.0000
     1.0000   1.0000   1.0000   1.0000   1.0000   1.0000   1.0000   1.0000
     1.0000   1.0000   1.0000   1.0000   1.0000   1.0000   1.0000   1.0000
     1.0000   1.0000   1.0000   1.0000   1.0000   1.0000   1.0000   1.0000
     1.0000   1.0000   1.0000   1.0000   1.0000   1.0000   1.0000   1.0000
     1.0000   1.0000   1.0000   1.0000   1.0000   1.0000   1.0000   1.0000
     1.0000   1.0000   1.0000   1.0000   1.0000   1.0000   1.0000   1.0000
     1.0000   1.0000   1.0000   1.0000   1.0000   1.0000   1.0000   1.0000
     1.0000   1.0000   1.0000   1.0000   1.0000   1.0000   1.0000   1.0000
     1.0000   1.0000   1.0000   1.0000   1.0000   1.0000   1.0000   1.0000
     1.0000   1.0000   1.0000   1.0000   1.0000   1.0000   1.0000   1.0000
     1.0000   1.0000   1.0000   1.0000   1.0000   1.0000   1.0000   1.0000
     1.0000   1.0000   1.0000   1.0000   1.0000   1.0000   1.0000   1.0000
     1.0000   1.0000   1.0000   1.0000   1.0000   1.0000   1.0000   1.0000
     1.0000   1.0000   1.0000   1.0000   1.0000   1.0000   1.0000   1.0000
     1.0000   1.0000   1.0000   1.0000   1.0000   1.0000   1.0000   1.0000
     1.0000   1.0000   1.0000   1.0000   1.0000   1.0000   1.0000   1.0000
     1.0000   1.0000   1.0000   1.0000   1.0000   1.0000   1.0000   1.0000
     1.0000   1.0000   1.0000   1.0000   1.0000   1.0000   1.0000   1.0000
     1.0000   1.0000   1.0000   1.0000   1.0000   1.0000   1.0000   1.0000
     1.0000   1.0000   1.0000   1.0000   1.0000   1.0000   1.0000   1.0000
     1.0000   1.0000   1.0000   1.0000   1.0000   1.0000   1.0000   1.0000
     1.0000   1.0000   1.0000   1.0000   1.0000   1.0000   1.0000   1.0000
     1.0000   1.0000   1.0000   1.0000   1.0000   1.0000   1.0000   1.0000
     1.0000   1.0000   1.0000   1.0000   1.0000   1.0000   1.0000   1.0000
     1.0000   1.0000   1.0000   1.0000   1.0000   1.0000   1.0000   1.0000
     1.0000   1.0000   1.0000   1.0000   1.0000   1.0000   1.0000   1.0000
     1.0000   1.0000   1.0000   1.0000   1.0000   1.0000   1.0000   1.0000
     1.0000   1.0000   1.0000   1.0000   1.0000   1.0000   1.0000   1.0000
     1.0000   1.0000   1.0000   1.0000   1.0000   1.0000   1.0000   1.0000
     1.0000   1.0000   1.0000   1.0000   1.0000   1.0000   1.0000   1.0000
     1.0000   1.0000   1.0000   1.0000   1.0000   1.0000   1.0000   1.0000
     1.0000   1.0000   1.0000   1.0000   1.0000   1.0000   1.0000   1.0000
     1.0000   1.0000   1.0000   1.0000   1.0000   1.0000   1.0000   1.0000
     1.0000   1.0000   1.0000   1.0000   1.0000   1.0000   1.0000   1.0000
     1.0000   1.0000   1.0000   1.0000   1.0000   1.0000   1.0000   1.0000
     1.0000   1.0000   1.0000   1.0000   1.0000   1.0000   1.0000   1.0000
     1.0000   1.0000   1.0000   1.0000   1.0000   1.0000   1.0000   1.0000
     1.0000   1.0000   1.0000   1.0000   1.0000   1.0000   1.0000   1.0000
     1.0000   1.0000   1.0000   1.0000   1.0000   1.0000   1.0000   1.0000
     1.0000   1.0000   1.0000   1.0000   1.0000   1.0000   1.0000   1.0000
     1.0000   1.0000   1.0000   1.0000   1.0000   1.0000   1.0000   1.0000
     1.0000   1.0000   1.0000   1.0000   1.0000   1.0000   1.0000   1.0000
     1.0000   1.0000   1.0000   1.0000   1.0000   1.0000   1.0000   1.0000
     1.0000   1.0000   1.0000   1.0000   1.0000   1.0000   1.0000   1.0000
     1.0000   1.0000   1.0000   1.0000   1.0000   1.0000   1.0000   1.0000
     1.0000   1.0000   1.0000   1.0000   1.0000   1.0000   1.0000   1.0000
     1.0000   1.0000   1.0000   1.0000   1.0000   1.0000   1.0000   1.0000
     1.0000   1.0000   1.0000   1.0000   1.0000   1.0000   1.0000   1.0000
     1.0000   1.0000   1.0000   1.0000   1.0000   1.0000   1.0000   1.0000
     1.0000   1.0000   1.0000   1.0000   1.0000   1.0000   1.0000   1.0000
     1.0000   1.0000   1.0000   1.0000   1.0000   1.0000   1.0000   1.0000
     1.0000   1.0000   1.0000   1.0000   1.0000   1.0000   1.0000   1.0000
     1.0000   1.0000   1.0000   1.0000   1.0000   1.0000   1.0000   1.0000
     1.0000   1.0000   1.0000   1.0000   1.0000   1.0000   1.0000   1.0000
     1.0000   1.0000   1.0000   1.0000   1.0000   1.0000   1.0000   1.0000
     1.0000   1.0000   1.0000   1.0000   1.0000   1.0000   1.0000   1.0000
     0.0000   0.0000   0.0000   0.0000   0.0000   0.0000   0.0000   0.0000
     0.0000   0.0000   0.0000   0.0000   0.0000   0.0000   0.0000   0.0000
     0.0000   0.0000   0.0000   0.0000   0.0000   0.0000   0.0000   0.0000
     0.0000   0.0000   0.0000   0.0000   0.0000   0.0000   0.0000   0.0000
     0.0000   0.0000   0.0000   0.0000   0.0000   0.0000   0.0000   0.0000
     0.0000   0.0000   0.0000   0.0000   0.0000   0.0000   0.0000   0.0000
     0.0000   0.0000   0.0000   0.0000   0.0000   0.0000   0.0000   0.0000
     0.0000   0.0000   0.0000   0.0000   0.0000   0.0000   0.0000   0.0000
     0.0000   0.0000   0.0000   0.0000   0.0000   0.0000   0.0000   0.0000
     0.0000   0.0000   0.0000   0.0000   0.0000   0.0000   0.0000   0.0000
     0.0000   0.0000   0.0000   0.0000   0.0000   0.0000   0.0000   0.0000
     0.0000   0.0000   0.0000   0.0000   0.0000   0.0000   0.0000   0.0000
     0.0000   0.0000   0.0000   0.0000   0.0000   0.0000   0.0000   0.0000
     0.0000   0.0000   0.0000   0.0000   0.0000   0.0000   0.0000   0.0000
     0.0000   0.0000   0.0000   0.0000   0.0000   0.0000   0.0000   0.0000
     0.0000   0.0000   0.0000   0.0000   0.0000   0.0000   0.0000   0.0000
     0.0000   0.0000   0.0000   0.0000   0.0000   0.0000   0.0000   0.0000
     0.0000   0.0000   0.0000   0.0000   0.0000   0.0000   0.0000   0.0000
     0.0000   0.0000   0.0000   0.0000   0.0000   0.0000   0.0000   0.0000
     0.0000   0.0000

     the Fermi energy is     4.9089 ev

!    total energy              =  -64756.25234466 Ry
     total all-electron energy =  -2248970.346491 Ry
     estimated scf accuracy    <          6.7E-09 Ry
     smearing contrib. (-TS)   =      -0.00000000 Ry
     internal energy E=F+TS    =  -64756.25234466 Ry

     The total energy is F=E-TS. E is the sum of the following terms:
     one-electron contribution =  -11937.75896891 Ry
     hartree contribution      =    6670.06891678 Ry
     xc contribution           =   -4536.66561669 Ry
     ewald contribution        =   -9881.27253595 Ry
     one-center paw contrib.   =  -45070.62413989 Ry
      -> PAW hartree energy AE =      95.91957298 Ry
      -> PAW hartree energy PS =     -96.15645876 Ry
      -> PAW xc energy AE      =    -798.43128590 Ry
      -> PAW xc energy PS      =      33.31119472 Ry
      -> total E_H with PAW    =    6669.83203100 Ry
      -> total E_XC with PAW   =   -5301.78570787 Ry

     convergence has been achieved in   1 iterations


     -----------------------------------------------
     Non-local corr. energy    =      46.02377490 Ry
     -----------------------------------------------


     Forces acting on atoms (cartesian axes, Ry/au):

     atom    1 type  1   force =     0.00000081   -0.00000017   -0.00000852
     atom    2 type  1   force =     0.00000490   -0.00000892   -0.00000756
     atom    3 type  1   force =     0.00000010   -0.00000188   -0.00000495
     atom    4 type  1   force =    -0.00000443   -0.00001114   -0.00000172
     atom    5 type  1   force =    -0.00000439   -0.00000018   -0.00000587
     atom    6 type  1   force =    -0.00000635   -0.00000105   -0.00000525
     atom    7 type  1   force =     0.00000838    0.00000745   -0.00000779
     atom    8 type  1   force =     0.00000312    0.00001411   -0.00001116
     atom    9 type  1   force =    -0.00000225   -0.00000315   -0.00001333
     atom   10 type  1   force =    -0.00001066   -0.00000965   -0.00000739
     atom   11 type  1   force =     0.00000241   -0.00000009   -0.00001073
     atom   12 type  1   force =     0.00000377   -0.00000680   -0.00000375
     atom   13 type  1   force =     0.00000367    0.00000040   -0.00001222
     atom   14 type  1   force =     0.00000831    0.00000196   -0.00001005
     atom   15 type  1   force =    -0.00000585    0.00000536   -0.00001460
     atom   16 type  1   force =    -0.00001300    0.00000236   -0.00001054
     atom   17 type  1   force =    -0.00001397    0.00000222   -0.00001487
     atom   18 type  1   force =    -0.00000728    0.00000819    0.00000046
     atom   19 type  1   force =    -0.00000305   -0.00000030   -0.00001427
     atom   20 type  1   force =    -0.00000039   -0.00000305    0.00000556
     atom   21 type  1   force =    -0.00000715   -0.00000259   -0.00001339
     atom   22 type  1   force =    -0.00000306    0.00000234   -0.00000214
     atom   23 type  1   force =    -0.00000066   -0.00000885   -0.00001530
     atom   24 type  1   force =     0.00001293   -0.00001195   -0.00000359
     atom   25 type  1   force =     0.00000936    0.00000144   -0.00001356
     atom   26 type  1   force =     0.00001197    0.00000370   -0.00000163
     atom   27 type  1   force =    -0.00000396    0.00000925   -0.00000651
     atom   28 type  1   force =     0.00000322    0.00000366    0.00000823
     atom   29 type  1   force =     0.00000328   -0.00000820   -0.00001123
     atom   30 type  1   force =     0.00000418   -0.00000114    0.00000363
     atom   31 type  1   force =    -0.00000565    0.00000651   -0.00001280
     atom   32 type  1   force =     0.00000348    0.00000633   -0.00000366
     atom   33 type  2   force =     0.00002051    0.00001550   -0.00000971
     atom   34 type  2   force =     0.00002168    0.00001504   -0.00000620
     atom   35 type  2   force =     0.00001865   -0.00001209   -0.00002029
     atom   36 type  2   force =     0.00001106   -0.00000250   -0.00000626
     atom   37 type  2   force =    -0.00000692    0.00000584   -0.00003335
     atom   38 type  2   force =    -0.00001132    0.00000411   -0.00000241
     atom   39 type  2   force =     0.00000649    0.00001640   -0.00002396
     atom   40 type  2   force =     0.00000648    0.00000422    0.00000126
     atom   41 type  2   force =    -0.00002884    0.00000727   -0.00001510
     atom   42 type  2   force =    -0.00001647    0.00001418    0.00001113
     atom   43 type  2   force =     0.00000015   -0.00002016   -0.00001908
     atom   44 type  2   force =     0.00001312   -0.00001111    0.00000538
     atom   45 type  2   force =     0.00000912   -0.00000480   -0.00003548
     atom   46 type  2   force =     0.00001518   -0.00000076    0.00000988
     atom   47 type  2   force =    -0.00001151    0.00000464   -0.00003561
     atom   48 type  2   force =    -0.00000660    0.00000565    0.00001091
     atom   49 type  2   force =    -0.00002457   -0.00001422   -0.00003553
     atom   50 type  2   force =    -0.00001276   -0.00000020    0.00000306
     atom   51 type  2   force =    -0.00003025    0.00000287   -0.00002223
     atom   52 type  2   force =    -0.00001990    0.00001061   -0.00000387
     atom   53 type  2   force =    -0.00000117   -0.00000748   -0.00002832
     atom   54 type  2   force =     0.00000546   -0.00000661    0.00000388
     atom   55 type  2   force =     0.00000158   -0.00000976   -0.00002547
     atom   56 type  2   force =     0.00000491   -0.00001204    0.00000658
     atom   57 type  2   force =     0.00002717   -0.00000452   -0.00002765
     atom   58 type  2   force =     0.00000538   -0.00000311   -0.00000793
     atom   59 type  2   force =     0.00001138    0.00002241   -0.00003699
     atom   60 type  2   force =    -0.00000865    0.00001859   -0.00001788
     atom   61 type  2   force =    -0.00000161    0.00000641   -0.00003202
     atom   62 type  2   force =    -0.00001082   -0.00000429   -0.00000556
     atom   63 type  2   force =     0.00000109    0.00000274   -0.00002406
     atom   64 type  2   force =    -0.00000616   -0.00001427   -0.00000565
     atom   65 type  2   force =     0.00003015    0.00000073    0.00004185
     atom   66 type  2   force =     0.00002693   -0.00000154    0.00000394
     atom   67 type  2   force =     0.00001071    0.00001034    0.00003429
     atom   68 type  2   force =     0.00000032    0.00000192    0.00001234
     atom   69 type  2   force =     0.00000759    0.00000373    0.00002064
     atom   70 type  2   force =    -0.00000667   -0.00000272    0.00000422
     atom   71 type  2   force =     0.00001961    0.00001115    0.00003863
     atom   72 type  2   force =     0.00000830    0.00001764    0.00000257
     atom   73 type  2   force =     0.00000597   -0.00000029    0.00002959
     atom   74 type  2   force =    -0.00000121   -0.00000017   -0.00000561
     atom   75 type  2   force =     0.00001822   -0.00001393    0.00003057
     atom   76 type  2   force =     0.00001712   -0.00002477    0.00000758
     atom   77 type  2   force =     0.00000035    0.00000896    0.00002477
     atom   78 type  2   force =    -0.00000614    0.00000311    0.00001407
     atom   79 type  2   force =    -0.00000196    0.00000853    0.00002895
     atom   80 type  2   force =    -0.00001301    0.00001921    0.00000670
     atom   81 type  2   force =    -0.00003782   -0.00000667    0.00002171
     atom   82 type  2   force =    -0.00003760    0.00000910    0.00001685
     atom   83 type  2   force =    -0.00001265   -0.00000702    0.00002203
     atom   84 type  2   force =    -0.00000162   -0.00000889    0.00001612
     atom   85 type  2   force =     0.00000770   -0.00000334    0.00002173
     atom   86 type  2   force =     0.00001694   -0.00000605    0.00001753
     atom   87 type  2   force =    -0.00000850   -0.00001907    0.00002880
     atom   88 type  2   force =    -0.00000270   -0.00000991    0.00002230
     atom   89 type  2   force =     0.00000549   -0.00000547    0.00003513
     atom   90 type  2   force =     0.00001072    0.00000322    0.00002830
     atom   91 type  2   force =    -0.00000930    0.00001380    0.00002380
     atom   92 type  2   force =    -0.00001609    0.00001542    0.00002372
     atom   93 type  2   force =    -0.00000819   -0.00000717    0.00002409
     atom   94 type  2   force =    -0.00000235   -0.00000687    0.00001417
     atom   95 type  2   force =    -0.00000239   -0.00001632    0.00003270
     atom   96 type  2   force =     0.00000845   -0.00001141    0.00001495
     The non-local contrib.  to forces
     atom    1 type  1   force =     0.00000474   -0.00002185    0.00001920
     atom    2 type  1   force =     0.00000216    0.00000880    0.00000533
     atom    3 type  1   force =     0.00002430   -0.00003662   -0.00002074
     atom    4 type  1   force =     0.00002099    0.00000303   -0.00002452
     atom    5 type  1   force =     0.00001743   -0.00002563    0.00001858
     atom    6 type  1   force =     0.00001806   -0.00001609    0.00001623
     atom    7 type  1   force =    -0.00001062   -0.00005452   -0.00001597
     atom    8 type  1   force =    -0.00000860   -0.00005739   -0.00001173
     atom    9 type  1   force =     0.00001679   -0.00001333    0.00001747
     atom   10 type  1   force =     0.00001304    0.00000732    0.00001492
     atom   11 type  1   force =     0.00000766   -0.00004589    0.00002194
     atom   12 type  1   force =    -0.00000593   -0.00001811    0.00001409
     atom   13 type  1   force =     0.00000937   -0.00004828    0.00002154
     atom   14 type  1   force =    -0.00001913   -0.00004273    0.00000195
     atom   15 type  1   force =     0.00002040   -0.00002979    0.00002192
     atom   16 type  1   force =     0.00001910   -0.00002521    0.00002990
     atom   17 type  1   force =     0.00002741   -0.00004155    0.00002335
     atom   18 type  1   force =     0.00003978   -0.00004176    0.00002113
     atom   19 type  1   force =     0.00002493   -0.00005074   -0.00001254
     atom   20 type  1   force =     0.00000602   -0.00001905   -0.00001172
     atom   21 type  1   force =     0.00003504   -0.00002846    0.00001393
     atom   22 type  1   force =     0.00000189   -0.00003692    0.00001143
     atom   23 type  1   force =     0.00000951   -0.00001404    0.00000301
     atom   24 type  1   force =    -0.00002972    0.00001257   -0.00001051
     atom   25 type  1   force =     0.00002042   -0.00003807    0.00000241
     atom   26 type  1   force =    -0.00002226   -0.00003484    0.00001076
     atom   27 type  1   force =     0.00002127   -0.00005836   -0.00000281
     atom   28 type  1   force =    -0.00001606   -0.00004894    0.00002734
     atom   29 type  1   force =     0.00000980   -0.00000926    0.00000873
     atom   30 type  1   force =    -0.00000862   -0.00000943   -0.00000391
     atom   31 type  1   force =     0.00003745   -0.00004890    0.00002142
     atom   32 type  1   force =    -0.00001885   -0.00004780    0.00001295
     atom   33 type  2   force =     0.00002083   -0.00000110    0.24664844
     atom   34 type  2   force =     0.00003024   -0.00000158    0.24667010
     atom   35 type  2   force =     0.00003088    0.00001082    0.24664516
     atom   36 type  2   force =     0.00001541    0.00003169    0.24666251
     atom   37 type  2   force =     0.00000512    0.00002183    0.24664307
     atom   38 type  2   force =     0.00000126    0.00002001    0.24666966
     atom   39 type  2   force =     0.00000360    0.00003504    0.24666351
     atom   40 type  2   force =     0.00000476    0.00003637    0.24668243
     atom   41 type  2   force =    -0.00001219   -0.00000182    0.24663460
     atom   42 type  2   force =    -0.00002480    0.00000392    0.24666382
     atom   43 type  2   force =    -0.00001773    0.00001071    0.24665125
     atom   44 type  2   force =    -0.00001087    0.00001080    0.24667818
     atom   45 type  2   force =    -0.00001255    0.00000944    0.24666771
     atom   46 type  2   force =    -0.00001886    0.00001324    0.24668807
     atom   47 type  2   force =    -0.00000640   -0.00000221    0.24665081
     atom   48 type  2   force =    -0.00002098    0.00000359    0.24667865
     atom   49 type  2   force =    -0.00000236   -0.00002258    0.24666860
     atom   50 type  2   force =     0.00000073    0.00000040    0.24668201
     atom   51 type  2   force =    -0.00004511    0.00002538    0.24664967
     atom   52 type  2   force =    -0.00003268    0.00003943    0.24666150
     atom   53 type  2   force =     0.00000582    0.00001320    0.24664951
     atom   54 type  2   force =     0.00000182    0.00001968    0.24666999
     atom   55 type  2   force =    -0.00000551    0.00000219    0.24663144
     atom   56 type  2   force =    -0.00000358    0.00000183    0.24665492
     atom   57 type  2   force =     0.00001326    0.00000350    0.24664293
     atom   58 type  2   force =    -0.00002050    0.00001384    0.24666112
     atom   59 type  2   force =     0.00001378    0.00003698    0.24663881
     atom   60 type  2   force =    -0.00000528    0.00003763    0.24667020
     atom   61 type  2   force =    -0.00000506    0.00001493    0.24664226
     atom   62 type  2   force =    -0.00001414    0.00000357    0.24666256
     atom   63 type  2   force =     0.00000691    0.00001361    0.24666318
     atom   64 type  2   force =    -0.00000750    0.00000368    0.24668690
     atom   65 type  2   force =     0.00000277    0.00002623   -0.24664082
     atom   66 type  2   force =     0.00000376    0.00002602   -0.24666522
     atom   67 type  2   force =    -0.00003126    0.00000590   -0.24664211
     atom   68 type  2   force =    -0.00002730   -0.00000558   -0.24665808
     atom   69 type  2   force =    -0.00000725    0.00001051   -0.24664520
     atom   70 type  2   force =    -0.00000372   -0.00000405   -0.24667067
     atom   71 type  2   force =    -0.00001145    0.00001924   -0.24667750
     atom   72 type  2   force =     0.00000562    0.00002480   -0.24669255
     atom   73 type  2   force =    -0.00000047    0.00004529   -0.24665233
     atom   74 type  2   force =    -0.00000371    0.00003082   -0.24665650
     atom   75 type  2   force =     0.00002459   -0.00000642   -0.24666263
     atom   76 type  2   force =     0.00002130   -0.00001635   -0.24668157
     atom   77 type  2   force =     0.00001041    0.00003188   -0.24666793
     atom   78 type  2   force =     0.00001120    0.00001537   -0.24668590
     atom   79 type  2   force =     0.00001069    0.00001456   -0.24665708
     atom   80 type  2   force =    -0.00000645    0.00001633   -0.24667380
     atom   81 type  2   force =    -0.00002715    0.00001832   -0.24665819
     atom   82 type  2   force =    -0.00001968    0.00002933   -0.24668098
     atom   83 type  2   force =    -0.00001016   -0.00000598   -0.24666021
     atom   84 type  2   force =     0.00000943   -0.00002040   -0.24667377
     atom   85 type  2   force =    -0.00000366    0.00000544   -0.24665411
     atom   86 type  2   force =     0.00001437   -0.00000239   -0.24666588
     atom   87 type  2   force =    -0.00001855    0.00001499   -0.24665428
     atom   88 type  2   force =    -0.00001065    0.00002599   -0.24667239
     atom   89 type  2   force =    -0.00001046    0.00002099   -0.24666943
     atom   90 type  2   force =    -0.00000387    0.00002341   -0.24668612
     atom   91 type  2   force =    -0.00000747    0.00001858   -0.24664995
     atom   92 type  2   force =    -0.00000148    0.00001651   -0.24666343
     atom   93 type  2   force =    -0.00002241    0.00001405   -0.24665605
     atom   94 type  2   force =    -0.00001610    0.00000531   -0.24667623
     atom   95 type  2   force =     0.00000145    0.00000111   -0.24664705
     atom   96 type  2   force =     0.00002596   -0.00000213   -0.24665836
     The ionic contribution  to forces
     atom    1 type  1   force =     0.00081171    0.00024814   -0.00024027
     atom    2 type  1   force =     0.00058402   -0.00199254   -0.00032048
     atom    3 type  1   force =    -0.00147159    0.00034173    0.00004761
     atom    4 type  1   force =    -0.00177699   -0.00235088   -0.00028241
     atom    5 type  1   force =    -0.00021248    0.00012750   -0.00108103
     atom    6 type  1   force =    -0.00138536    0.00031887   -0.00170606
     atom    7 type  1   force =     0.00229540    0.00325443   -0.00068981
     atom    8 type  1   force =     0.00059001    0.00456668   -0.00035310
     atom    9 type  1   force =    -0.00103972   -0.00050422    0.00061945
     atom   10 type  1   force =    -0.00243664   -0.00143900   -0.00030704
     atom   11 type  1   force =     0.00095485    0.00097962   -0.00032189
     atom   12 type  1   force =     0.00097989   -0.00108121   -0.00119687
     atom   13 type  1   force =     0.00084427    0.00194422   -0.00072338
     atom   14 type  1   force =     0.00180071    0.00185697   -0.00083678
     atom   15 type  1   force =    -0.00148378    0.00039841   -0.00024662
     atom   16 type  1   force =    -0.00308237    0.00063791   -0.00202791
     atom   17 type  1   force =    -0.00131927    0.00192906    0.00079256
     atom   18 type  1   force =    -0.00230174    0.00282870   -0.00070115
     atom   19 type  1   force =    -0.00042684    0.00101323    0.00123047
     atom   20 type  1   force =    -0.00036405   -0.00010344   -0.00057694
     atom   21 type  1   force =    -0.00244572    0.00012241   -0.00025920
     atom   22 type  1   force =    -0.00098197    0.00132191   -0.00089054
     atom   23 type  1   force =     0.00016292   -0.00162451    0.00010755
     atom   24 type  1   force =     0.00245151   -0.00286171   -0.00061850
     atom   25 type  1   force =     0.00034654    0.00136687    0.00154462
     atom   26 type  1   force =     0.00346876    0.00165027   -0.00047913
     atom   27 type  1   force =    -0.00063164    0.00174000    0.00151417
     atom   28 type  1   force =     0.00109149    0.00148409   -0.00213544
     atom   29 type  1   force =     0.00037997   -0.00244878    0.00039764
     atom   30 type  1   force =     0.00069607   -0.00073280   -0.00080930
     atom   31 type  1   force =    -0.00217783    0.00218893   -0.00023878
     atom   32 type  1   force =     0.00083236    0.00311039   -0.00117092
     atom   33 type  2   force =     0.00051125    0.00393509  -14.38576885
     atom   34 type  2   force =     0.00139590    0.00382442  -14.38789713
     atom   35 type  2   force =    -0.00130800   -0.00331142  -14.38812023
     atom   36 type  2   force =    -0.00024194   -0.00204916  -14.38690301
     atom   37 type  2   force =    -0.00377054   -0.00270240  -14.38908939
     atom   38 type  2   force =    -0.00195129   -0.00083857  -14.38481187
     atom   39 type  2   force =     0.00183164   -0.00011770  -14.38763549
     atom   40 type  2   force =     0.00303256   -0.00059917  -14.38566753
     atom   41 type  2   force =    -0.00227891    0.00169020  -14.38661240
     atom   42 type  2   force =    -0.00151846    0.00087524  -14.38528248
     atom   43 type  2   force =     0.00069092   -0.00397258  -14.38781698
     atom   44 type  2   force =     0.00064420   -0.00337835  -14.38670963
     atom   45 type  2   force =     0.00160222   -0.00010353  -14.38896416
     atom   46 type  2   force =     0.00131001    0.00104045  -14.38545858
     atom   47 type  2   force =    -0.00015355    0.00161193  -14.38865733
     atom   48 type  2   force =     0.00039932    0.00062104  -14.38475140
     atom   49 type  2   force =    -0.00162127   -0.00171275  -14.39098045
     atom   50 type  2   force =    -0.00018061   -0.00205801  -14.38437583
     atom   51 type  2   force =    -0.00133370    0.00051714  -14.39009716
     atom   52 type  2   force =    -0.00104009    0.00013668  -14.38580940
     atom   53 type  2   force =     0.00076720   -0.00032528  -14.38977555
     atom   54 type  2   force =     0.00019181    0.00047661  -14.38495097
     atom   55 type  2   force =     0.00133384    0.00004660  -14.38816863
     atom   56 type  2   force =     0.00052235   -0.00034884  -14.38479425
     atom   57 type  2   force =     0.00258866    0.00010907  -14.38973072
     atom   58 type  2   force =     0.00048738   -0.00065444  -14.38607076
     atom   59 type  2   force =     0.00238331    0.00368503  -14.39243065
     atom   60 type  2   force =     0.00100378    0.00192538  -14.38616747
     atom   61 type  2   force =     0.00154829   -0.00274235  -14.39092306
     atom   62 type  2   force =     0.00097899   -0.00216127  -14.38472247
     atom   63 type  2   force =    -0.00308479    0.00006231  -14.38882660
     atom   64 type  2   force =    -0.00349519   -0.00099565  -14.38645781
     atom   65 type  2   force =     0.00012680    0.00098180   14.38906092
     atom   66 type  2   force =     0.00270264    0.00050550   14.38648999
     atom   67 type  2   force =    -0.00134832   -0.00022941   14.38883503
     atom   68 type  2   force =     0.00083596   -0.00035629   14.38701429
     atom   69 type  2   force =     0.00077746   -0.00423887   14.38680438
     atom   70 type  2   force =     0.00097649   -0.00220205   14.38686563
     atom   71 type  2   force =     0.00134262    0.00119184   14.38882130
     atom   72 type  2   force =     0.00092891    0.00379042   14.38739648
     atom   73 type  2   force =     0.00105320   -0.00033236   14.38738031
     atom   74 type  2   force =    -0.00075496   -0.00100763   14.38588877
     atom   75 type  2   force =    -0.00036000   -0.00288786   14.38791010
     atom   76 type  2   force =    -0.00035900   -0.00441674   14.38795337
     atom   77 type  2   force =    -0.00145411    0.00021618   14.38624819
     atom   78 type  2   force =    -0.00120597    0.00032164   14.38889696
     atom   79 type  2   force =     0.00070416    0.00103972   14.38693570
     atom   80 type  2   force =    -0.00075529    0.00232343   14.38808312
     atom   81 type  2   force =    -0.00288724   -0.00029446   14.38705111
     atom   82 type  2   force =    -0.00553725   -0.00016839   14.38752397
     atom   83 type  2   force =     0.00114873   -0.00057587   14.38796202
     atom   84 type  2   force =    -0.00023876   -0.00161585   14.38768298
     atom   85 type  2   force =     0.00226590    0.00217440   14.38653503
     atom   86 type  2   force =     0.00117156    0.00239325   14.38828495
     atom   87 type  2   force =     0.00150773   -0.00191203   14.38675212
     atom   88 type  2   force =     0.00146404   -0.00340121   14.38883451
     atom   89 type  2   force =     0.00266717    0.00009703   14.38819622
     atom   90 type  2   force =     0.00411443   -0.00054486   14.38931331
     atom   91 type  2   force =     0.00151849    0.00211179   14.38857821
     atom   92 type  2   force =    -0.00025995    0.00215738   14.38820438
     atom   93 type  2   force =    -0.00065847   -0.00301234   14.38775954
     atom   94 type  2   force =    -0.00090214   -0.00121677   14.38765261
     atom   95 type  2   force =    -0.00275024   -0.00089533   14.38780693
     atom   96 type  2   force =    -0.00183238   -0.00077304   14.38766531
     The local contribution  to forces
     atom    1 type  1   force =    -0.00087377   -0.00022647    0.00015826
     atom    2 type  1   force =    -0.00062948    0.00199330    0.00035776
     atom    3 type  1   force =     0.00140655   -0.00031235   -0.00008074
     atom    4 type  1   force =     0.00171874    0.00235162    0.00035327
     atom    5 type  1   force =     0.00019919   -0.00012600    0.00099668
     atom    6 type  1   force =     0.00138448   -0.00032630    0.00173620
     atom    7 type  1   force =    -0.00228485   -0.00321326    0.00063221
     atom    8 type  1   force =    -0.00057035   -0.00451659    0.00040198
     atom    9 type  1   force =     0.00105299    0.00051122   -0.00068368
     atom   10 type  1   force =     0.00245078    0.00142631    0.00030994
     atom   11 type  1   force =    -0.00097564   -0.00090619    0.00025229
     atom   12 type  1   force =    -0.00098474    0.00113495    0.00121794
     atom   13 type  1   force =    -0.00084887   -0.00186774    0.00063378
     atom   14 type  1   force =    -0.00177360   -0.00178497    0.00088121
     atom   15 type  1   force =     0.00150583   -0.00037063    0.00015350
     atom   16 type  1   force =     0.00310538   -0.00062254    0.00202554
     atom   17 type  1   force =     0.00133641   -0.00189190   -0.00083362
     atom   18 type  1   force =     0.00230425   -0.00278848    0.00067362
     atom   19 type  1   force =     0.00044130   -0.00095820   -0.00123075
     atom   20 type  1   force =     0.00039076    0.00012449    0.00058906
     atom   21 type  1   force =     0.00239622   -0.00005382    0.00020781
     atom   22 type  1   force =     0.00095187   -0.00125192    0.00090119
     atom   23 type  1   force =    -0.00016404    0.00165393   -0.00015761
     atom   24 type  1   force =    -0.00241763    0.00285365    0.00064674
     atom   25 type  1   force =    -0.00038727   -0.00133043   -0.00157958
     atom   26 type  1   force =    -0.00347755   -0.00161041    0.00048773
     atom   27 type  1   force =     0.00062436   -0.00170207   -0.00152640
     atom   28 type  1   force =    -0.00106119   -0.00145672    0.00212332
     atom   29 type  1   force =    -0.00038573    0.00243994   -0.00044227
     atom   30 type  1   force =    -0.00068556    0.00072060    0.00084130
     atom   31 type  1   force =     0.00208630   -0.00212109    0.00016357
     atom   32 type  1   force =    -0.00087048   -0.00305177    0.00119069
     atom   33 type  2   force =    -0.00056686   -0.00392924   14.14447291
     atom   34 type  2   force =    -0.00145338   -0.00381652   14.14652897
     atom   35 type  2   force =     0.00121745    0.00329626   14.14682200
     atom   36 type  2   force =     0.00018380    0.00201347   14.14554938
     atom   37 type  2   force =     0.00374104    0.00265240   14.14779054
     atom   38 type  2   force =     0.00194605    0.00080713   14.14345222
     atom   39 type  2   force =    -0.00182399    0.00005109   14.14632507
     atom   40 type  2   force =    -0.00301665    0.00054915   14.14429308
     atom   41 type  2   force =     0.00232662   -0.00169216   14.14533849
     atom   42 type  2   force =     0.00155632   -0.00090191   14.14392528
     atom   43 type  2   force =    -0.00066978    0.00396838   14.14651597
     atom   44 type  2   force =    -0.00065404    0.00335850   14.14533502
     atom   45 type  2   force =    -0.00160317    0.00012487   14.14765677
     atom   46 type  2   force =    -0.00131848   -0.00102366   14.14406517
     atom   47 type  2   force =     0.00018773   -0.00160577   14.14737518
     atom   48 type  2   force =    -0.00036330   -0.00062564   14.14336948
     atom   49 type  2   force =     0.00165772    0.00173277   14.14964423
     atom   50 type  2   force =     0.00021609    0.00203793   14.14301581
     atom   51 type  2   force =     0.00142709   -0.00053763   14.14876982
     atom   52 type  2   force =     0.00110678   -0.00018387   14.14447386
     atom   53 type  2   force =    -0.00075480    0.00033774   14.14845924
     atom   54 type  2   force =    -0.00019553   -0.00046027   14.14359814
     atom   55 type  2   force =    -0.00133053   -0.00001581   14.14689531
     atom   56 type  2   force =    -0.00052867    0.00038078   14.14344984
     atom   57 type  2   force =    -0.00264117   -0.00010325   14.14841546
     atom   58 type  2   force =    -0.00049191    0.00064657   14.14473242
     atom   59 type  2   force =    -0.00238951   -0.00371858   14.15109742
     atom   60 type  2   force =    -0.00097385   -0.00196648   14.14482625
     atom   61 type  2   force =    -0.00152445    0.00269368   14.14959189
     atom   62 type  2   force =    -0.00093563    0.00214932   14.14339184
     atom   63 type  2   force =     0.00303758   -0.00007811   14.14749530
     atom   64 type  2   force =     0.00347199    0.00100995   14.14508899
     atom   65 type  2   force =    -0.00018684   -0.00100461  -14.14776807
     atom   66 type  2   force =    -0.00274329   -0.00052619  -14.14511150
     atom   67 type  2   force =     0.00134144    0.00020269  -14.14753313
     atom   68 type  2   force =    -0.00081761    0.00035857  -14.14566227
     atom   69 type  2   force =    -0.00076626    0.00417999  -14.14550642
     atom   70 type  2   force =    -0.00094554    0.00218113  -14.14550164
     atom   71 type  2   force =    -0.00135462   -0.00122244  -14.14749147
     atom   72 type  2   force =    -0.00094620   -0.00380970  -14.14598471
     atom   73 type  2   force =    -0.00105785    0.00028120  -14.14608319
     atom   74 type  2   force =     0.00074967    0.00096616  -14.14452141
     atom   75 type  2   force =     0.00029721    0.00289196  -14.14659725
     atom   76 type  2   force =     0.00030197    0.00443999  -14.14656074
     atom   77 type  2   force =     0.00142939   -0.00024783  -14.14493818
     atom   78 type  2   force =     0.00119219   -0.00032448  -14.14749914
     atom   79 type  2   force =    -0.00068890   -0.00107284  -14.14563349
     atom   80 type  2   force =     0.00079465   -0.00235738  -14.14668875
     atom   81 type  2   force =     0.00296246    0.00027544  -14.14572464
     atom   82 type  2   force =     0.00557982    0.00011313  -14.14614980
     atom   83 type  2   force =    -0.00110318    0.00059321  -14.14662716
     atom   84 type  2   force =     0.00023575    0.00164287  -14.14632127
     atom   85 type  2   force =    -0.00225172   -0.00213425  -14.14522153
     atom   86 type  2   force =    -0.00120564   -0.00234477  -14.14692166
     atom   87 type  2   force =    -0.00145409    0.00191037  -14.14544048
     atom   88 type  2   force =    -0.00143733    0.00336400  -14.14745557
     atom   89 type  2   force =    -0.00263929   -0.00011128  -14.14685551
     atom   90 type  2   force =    -0.00408978    0.00050971  -14.14793391
     atom   91 type  2   force =    -0.00146332   -0.00213839  -14.14724409
     atom   92 type  2   force =     0.00029930   -0.00217602  -14.14686641
     atom   93 type  2   force =     0.00068837    0.00299671  -14.14642995
     atom   94 type  2   force =     0.00091454    0.00122447  -14.14629354
     atom   95 type  2   force =     0.00271796    0.00091412  -14.14650144
     atom   96 type  2   force =     0.00177080    0.00078867  -14.14630673
     The core correction contribution to forces
     atom    1 type  1   force =    -0.00000097    0.00000007   -0.00000016
     atom    2 type  1   force =    -0.00000118    0.00000070    0.00000156
     atom    3 type  1   force =    -0.00000104    0.00000049    0.00000021
     atom    4 type  1   force =    -0.00000042    0.00000108    0.00000146
     atom    5 type  1   force =     0.00000043   -0.00000026   -0.00000070
     atom    6 type  1   force =     0.00000074   -0.00000030    0.00000101
     atom    7 type  1   force =    -0.00000072   -0.00000042    0.00000012
     atom    8 type  1   force =    -0.00000012   -0.00000091    0.00000194
     atom    9 type  1   force =     0.00000028    0.00000017    0.00000098
     atom   10 type  1   force =     0.00000140    0.00000053    0.00000109
     atom   11 type  1   force =    -0.00000047    0.00000084    0.00000048
     atom   12 type  1   force =    -0.00000046    0.00000132    0.00000075
     atom   13 type  1   force =    -0.00000049    0.00000094    0.00000015
     atom   14 type  1   force =    -0.00000051    0.00000070    0.00000199
     atom   15 type  1   force =     0.00000114   -0.00000056    0.00000031
     atom   16 type  1   force =     0.00000200   -0.00000029    0.00000112
     atom   17 type  1   force =     0.00000214    0.00000005    0.00000153
     atom   18 type  1   force =     0.00000079   -0.00000059   -0.00000049
     atom   19 type  1   force =     0.00000069    0.00000074    0.00000213
     atom   20 type  1   force =     0.00000057    0.00000045   -0.00000049
     atom   21 type  1   force =     0.00000011    0.00000112    0.00000097
     atom   22 type  1   force =    -0.00000006    0.00000063    0.00000048
     atom   23 type  1   force =    -0.00000008    0.00000104    0.00000148
     atom   24 type  1   force =    -0.00000074    0.00000075    0.00000108
     atom   25 type  1   force =    -0.00000159    0.00000020    0.00000132
     atom   26 type  1   force =    -0.00000129   -0.00000003    0.00000045
     atom   27 type  1   force =     0.00000043   -0.00000074    0.00000100
     atom   28 type  1   force =     0.00000023   -0.00000005   -0.00000130
     atom   29 type  1   force =    -0.00000042    0.00000045    0.00000093
     atom   30 type  1   force =    -0.00000024   -0.00000031    0.00000008
     atom   31 type  1   force =    -0.00000083   -0.00000001    0.00000049
     atom   32 type  1   force =    -0.00000110   -0.00000006    0.00000078
     atom   33 type  2   force =    -0.00000050    0.00000291   -0.00531410
     atom   34 type  2   force =    -0.00000060    0.00000319   -0.00531308
     atom   35 type  2   force =    -0.00000085    0.00000204   -0.00531193
     atom   36 type  2   force =    -0.00000060    0.00000241   -0.00531203
     atom   37 type  2   force =    -0.00000108    0.00000219   -0.00531271
     atom   38 type  2   force =    -0.00000058    0.00000273   -0.00531517
     atom   39 type  2   force =     0.00000003    0.00000210   -0.00531531
     atom   40 type  2   force =     0.00000008    0.00000207   -0.00531613
     atom   41 type  2   force =    -0.00000080    0.00000273   -0.00531306
     atom   42 type  2   force =    -0.00000055    0.00000271   -0.00531428
     atom   43 type  2   force =    -0.00000041    0.00000220   -0.00531177
     atom   44 type  2   force =    -0.00000068    0.00000237   -0.00531327
     atom   45 type  2   force =     0.00000014    0.00000235   -0.00531398
     atom   46 type  2   force =    -0.00000004    0.00000271   -0.00531584
     atom   47 type  2   force =    -0.00000051    0.00000272   -0.00531451
     atom   48 type  2   force =    -0.00000034    0.00000279   -0.00531675
     atom   49 type  2   force =    -0.00000111    0.00000256   -0.00531144
     atom   50 type  2   force =    -0.00000094    0.00000242   -0.00531486
     atom   51 type  2   force =    -0.00000023    0.00000225   -0.00531006
     atom   52 type  2   force =    -0.00000067    0.00000222   -0.00531163
     atom   53 type  2   force =    -0.00000055    0.00000236   -0.00531116
     atom   54 type  2   force =    -0.00000094    0.00000267   -0.00531419
     atom   55 type  2   force =    -0.00000026    0.00000255   -0.00531269
     atom   56 type  2   force =    -0.00000066    0.00000250   -0.00531403
     atom   57 type  2   force =    -0.00000008    0.00000236   -0.00530978
     atom   58 type  2   force =    -0.00000002    0.00000226   -0.00531297
     atom   59 type  2   force =    -0.00000042    0.00000287   -0.00530691
     atom   60 type  2   force =    -0.00000071    0.00000262   -0.00531214
     atom   61 type  2   force =    -0.00000019    0.00000248   -0.00530945
     atom   62 type  2   force =    -0.00000040    0.00000294   -0.00531371
     atom   63 type  2   force =    -0.00000093    0.00000253   -0.00531283
     atom   64 type  2   force =    -0.00000086    0.00000274   -0.00531511
[...]
              0.221479306730196E+03
              0.100576708248461E+03
              0.163724279901769E+03
             -0.916002864060699E+01
              0.503148854800042E+03
              0.843347169714448E+02
             -0.776269714321688E+02
              0.915568656126743E+01
             -0.509660808593817E+02
              0.413180056770242E+03
             -0.237001752079092E+02
              0.888930657697937E+02
              0.297955388842205E+03
              0.653616996361366E+02
             -0.235150195074058E+03
             -0.342708569350399E+03
              0.359661183604248E+01
             -0.385463106414740E+03
              0.130796241166986E+03
             -0.780249446292431E+02
             -0.181056226871013E+03
              0.162794601487821E+03
              0.624356027986310E+02
              0.146834430011258E+03
              0.130045777325297E+02
              0.233878119019331E+03
             -0.382205556982935E+03
             -0.350369303797002E+02
             -0.333344466316589E+03
              0.600981362358671E+02
              0.180526956102892E+03
             -0.333329046992289E+02
             -0.125554316487674E+03
              0.268573530214146E+03
             -0.124489356409362E+03
              0.874999905755180E+02
             -0.780965177251351E+02
              0.191733418903192E+03
              0.231550188058071E+03
             -0.998879226573981E+02
              0.199201573840785E+03
              0.764513647293925E+02
             -0.205409986093774E+03
             -0.122895933189390E+03
              0.331263956017032E+03
              0.157025826491726E+03
             -0.151499362238657E+02
             -0.445953575226031E+02
              0.486914085093109E+03
              0.291994968711014E+03
              0.107026880052437E+03
             -0.312028320941508E+03
              0.488694325323829E+03
             -0.221011104203197E+03
             -0.274033042150563E+03
             -0.424438570499489E+03
              0.204552187343245E+03
             -0.388325365389078E+03
              0.168408374972410E+03
              0.276488369704816E+03
              0.204884560752633E+03
              0.434562131139864E+02
              0.122192845931684E+03
             -0.306068924642403E+03
             -0.108807980906439E+03
             -0.987143291014022E+02
              0.147912760059109E+03
              0.330057191680491E+03
              0.325409270745663E+03
              0.249087755004563E+03
             -0.615071054988152E+02
              0.884692303042821E+02
              0.124089826368170E+02
             -0.977976886750787E+02
              0.145908477892053E+03
              0.139751614134836E+03
             -0.199327902072212E+03
             -0.201839622130651E+03
             -0.925213185645950E+02
              0.214385472125784E+03
              0.109073132028015E+03
             -0.145994543575147E+03
             -0.254326174532039E+03
             -0.349415413666200E+03
              0.730197320024456E+01
              0.994656879538079E+02
             -0.135192364183024E+03
              0.496330613071247E+03
              0.467867485156012E+01
             -0.576561036447252E+03
              0.144596363125124E+03
              0.237967463159697E+03
             -0.864467599008901E+02
              0.913400569019223E+01
             -0.130403823152324E+03
              0.221395074425173E+03
              0.109258265858596E+03
             -0.291364179543992E+03
              0.345959601333190E+03
              0.235723131089704E+02
             -0.138184071969073E+03
             -0.170321481272182E+03
              0.693606859713476E+03
              0.310032644879718E+03
             -0.777948253818222E+02
              0.171027529923939E+03
             -0.338024532335921E+03
             -0.733131531373174E+02
             -0.300425481605821E+03
              0.116055720643049E+03
              0.215638979637634E+03
              0.237189859905537E+03
             -0.103955595197550E+03
              0.179906496420713E+02
              0.295499998969100E+03
              0.945113629725770E+02
              0.176158236902493E+03
              0.716642174787723E+02
             -0.396718542700582E+02
              0.738015660734618E+00
             -0.549278857876434E+02
              0.612264022245781E+02
              0.205649794316685E+02
             -0.268452864294040E+03
              0.411267834465895E+03
              0.158272723842947E+03
             -0.291416523671598E+03
             -0.214146943848683E+03
             -0.302306356557873E+03
             -0.131055913363217E+03
             -0.950347852331320E+02
             -0.239135122612395E+03
             -0.236058550047990E+03
              0.284193421266111E+03
              0.226199491375219E+03
             -0.312430519487866E+02
              0.339589369277752E+03
              0.489320490209093E+02
             -0.545748321298683E+03
              0.293031685347218E+03
              0.500133651828783E+02
              0.230131595860983E+03
              0.311036985801875E+02
              0.259446839490051E+02
              0.468759057293175E+02
              0.124338724347099E+03
             -0.227717421326772E+03
             -0.107427558635113E+03
             -0.215344862072380E+03
             -0.178206634960534E+03
              0.742674268336709E+02
             -0.197738737455411E+03
              0.952554592530750E+02
              0.130822527083918E+03
             -0.121164793685808E+03
             -0.773834045943221E+02
              0.509652716337234E+01
              0.339272066643716E+03
              0.513052294216479E+02
              0.325672335331022E+03
              0.116764013454858E+03
             -0.430547618129721E+03
             -0.142773865991492E+03
              0.146808564561442E+03
              0.338779520899942E+03
              0.559140229372682E+02
              0.139253172327462E+03
              0.311766873723297E+03
             -0.180520403663352E+03
             -0.277128079623257E+03
              0.384264884360298E+03
              0.223871726605644E+02
             -0.406120136582121E+03
              0.148412670477655E+03
              0.257086934880438E+03
             -0.657737243614920E+02
             -0.267725793968617E+03
              0.557837127118867E+02
              0.115676206130884E+02
             -0.130088167936633E+03
              0.497809625738573E+02
             -0.433456620976074E+02
              0.604252720854025E+03
              0.175906743442059E+03
             -0.255914449614605E+03
              0.755751095903522E+02
              0.367907315966023E+03
             -0.248706409115063E+03
             -0.647719418229224E+02
             -0.235238531802645E+03
              0.188497710704204E+03
              0.596025934799756E+02
              0.124619968997053E+03
              0.225615915915023E+02
              0.427365950662703E+03
             -0.243109206678428E+03
             -0.191946214543585E+03
             -0.185319919342762E+03
              0.162803256874858E+03
              0.424674891586633E+03
             -0.710062181201334E+02
              0.173780999181261E+03
             -0.246781321438780E+03
              0.473785840142882E+02
             -0.789857755872782E+02
              0.173155631461277E+02
             -0.957095452989525E+02
             -0.780199549981406E+02
             -0.766647406212096E+02
              0.631268004737431E+02
              0.123349290433498E+03
             -0.269155824999253E+03
              0.199278426986497E+03
             -0.320789867371230E+03
              0.242021632306717E+03
             -0.255814102720027E+03
              0.414667608225577E+03
              0.227815631332410E+03
              0.262222008114560E+03
              0.651133416535738E+02
              0.765457177612616E+02
             -0.572848017256445E+03
              0.929082833277301E+02
              0.210163829844810E+02
              0.546160953243279E+02
             -0.935137810616210E+02
              0.442878635549925E+03
             -0.102850294801412E+03
             -0.183058717662265E+03
             -0.428557983897682E+03
             -0.148720036419718E+03
             -0.205634307769476E+03
             -0.178775614590468E+03
             -0.403144739174036E+02
             -0.978880593733761E+02
             -0.124451296071338E+03
             -0.190742244785721E+03
              0.145978924375014E+03
              0.460170760001835E+03
              0.388751468066367E+03
             -0.689890353728269E+02
             -0.467360837918953E+03
             -0.199256125175866E+03
              0.955392088433579E+02
              0.956489363881641E+02
              0.152771897857275E+03
              0.107385511473834E+03
              0.189948849989446E+02
              0.456611714105995E+03
             -0.110996999779838E+03
              0.224352191500491E+03
              0.115420704670628E+03
             -0.155529016500952E+03
             -0.745361168592033E+02
              0.206863340055828E+03
             -0.110523529311099E+03
             -0.678893928402858E+02
             -0.503174064416364E+02
              0.266397125210494E+03
             -0.350410069966698E+03
             -0.281711205020861E+02
             -0.270430307746739E+03
             -0.574577562566725E+03
             -0.154719213690214E+01
             -0.847843772905205E+02
              0.223309813821977E+03
              0.248264208177040E+03
              0.339534479704238E+03
             -0.220828092148544E+03
              0.343339529150105E+03
              0.858028911060270E+02
             -0.127463715758266E+03
              0.458286740664806E+02
             -0.108416775307879E+03
             -0.640809636173144E+02
              0.198303963779063E+03
             -0.164240725265608E+03
              0.440505883912538E+03
             -0.117456600935350E+03
             -0.243468744798593E+03
              0.460661481666184E+03
             -0.249344987976130E+03
             -0.200699796700060E+02
              0.242385281082813E+02
              0.132931491485467E+03
             -0.194619525572374E+03
             -0.148279947356858E+03
              0.236613555326453E+03
             -0.355951140129649E+03
              0.293553581386613E+03
              0.433867178341910E+02
              0.210362369727753E+03
              0.304762824406588E+03
              0.780788832366275E+02
             -0.423536441185117E+03
             -0.183271157683326E+03
             -0.305761729327113E+03
             -0.181906215401847E+03
             -0.484625577811830E+02
              0.656241276051437E+02
             -0.142625706697748E+03
             -0.246052896560877E+01
             -0.425280964472926E+03
              0.237776381040958E+02
             -0.274259909533974E+03
              0.265837705110866E+03
             -0.155821931342888E+03
             -0.375661517587664E+02
              0.200679938480292E+03
              0.396913929205770E+02
              0.186498303040051E+03
             -0.355525781878338E+03
              0.590607961993674E+02
              0.243259634597598E+02
              0.153040666008157E+03
              0.245338861508191E+03
             -0.453373021344507E+02
             -0.279272999555249E+03
             -0.161520712995545E+03
             -0.113964261601076E+03
             -0.335955842115727E+02
              0.260446995269700E+03
              0.169057813934523E+03
             -0.171295802127804E+03
             -0.160704843396716E+03
              0.118014507326773E+03
              0.128516346929484E+03
             -0.347183090798851E+03
              0.809519844239837E+02
              0.248990243511628E+03
             -0.110837516441327E+02
              0.313663878396720E+03
              0.144854756110780E+03
              0.246809149867232E+03
              0.375202926817888E+03
              0.565296188572410E+02
             -0.511246298940311E+03
              0.705287702741356E+02
              0.552756173392487E+03
              0.401792166506233E+03
             -0.277023581570740E+03
              0.249996779148520E+02
              0.359589236332970E+03
              0.311619515231241E+03
              0.136998430164034E+03
             -0.828793055803013E+02
              0.137596248762735E+03
              0.284858819434728E+03
             -0.131686622674923E+03
             -0.847573647857511E+02
              0.192926515348420E+03
             -0.116337127694255E+02
              0.173202826311115E+03
             -0.535840666714307E+02
              0.361223863617210E+03
             -0.137778169851282E+03
              0.828883541210623E+02
             -0.153075297126818E+03
              0.178773356984159E+03
             -0.242436666817387E+02
              0.266373070355740E+03
              0.190042550285863E+02
              0.119247273861643E+03
             -0.169385315815405E+03
             -0.118467063179773E+03
             -0.604124960311519E+02
             -0.550309605436745E+02
              0.290038018885603E+03
              0.142745849063444E+03
              0.351970121627848E+03
              0.324794498093424E+03
              0.911065111203793E+02
              0.163502571796918E+02
              0.346178574182535E+03
              0.194568156755745E+03
              0.313280472556926E+00
              0.337175002900488E+03
             -0.276724141886767E+03
              0.970077280677365E+02
             -0.180304139571446E+03
             -0.489064694522954E+02
              0.466189351720594E+03
             -0.652958045879459E+02
             -0.194414007558771E+02
             -0.507352607403886E+02
              0.382976478604063E+03
             -0.822337283930137E+02
             -0.705458535086677E+01
              0.772696794037359E+03
             -0.228701880618192E+03
             -0.285478623839624E+03
             -0.285715356784355E+03
             -0.182511024055850E+03
              0.166419587364901E+03
             -0.747002778181563E+02
              0.423484040757999E+02
             -0.193519788453068E+02
              0.979467099344211E+02
              0.157267680567164E+03
              0.183253935775958E+03
              0.263784404810467E+03
              0.168970897895732E+03
              0.172281673458473E+03
             -0.318818899224790E+03
             -0.329253056108355E+03
             -0.742362373066838E+02
             -0.294327600710338E+03
              0.467265403046967E+03
              0.393586486666759E+03
              0.185638795480011E+03
              0.511757630355537E+03
             -0.255716490000703E+03
             -0.110147630655420E+03
             -0.158786180538870E+03
              0.442721421390150E+03
 
 BEEF-vdW xc energy contributions
            1 :    -4002.022726442248     
            2 :     3667.135026013883     
            3 :    -3096.139845935619     
            4 :     2441.259118048301     
            5 :    -1845.806455983689     
            6 :     1397.983884949354     
            7 :    -1116.499050983548     
            8 :     963.8520589119803     
            9 :    -874.7710693175222     
           10 :     787.5528301463892     
           11 :    -667.5838708978445     
           12 :     514.9065094537918     
           13 :    -354.5704914141279     
           14 :     217.3636420054263     
           15 :    -122.5594268039840     
           16 :     70.66281565976897     
           17 :    -46.86322274702889     
           18 :     30.75461803547569     
           19 :    -6.691446495517084     
           20 :    -29.71110999170742     
           21 :     71.39479248476346     
           22 :    -105.6359010926772     
           23 :     122.3735671347240     
           24 :    -120.2714378216424     
           25 :     107.2638127149430     
           26 :    -95.82994807019259     
           27 :     96.12272303677128     
           28 :    -110.7471290409467     
           29 :     133.6918563348827     
           30 :    -153.7377238222762     
           31 :    -344.5202239805121     
           32 :    -247.8812213799374     

     Writing all to output data dir ./PbI2.save/
 
     init_run     :     10.28s CPU     17.52s WALL (       1 calls)
     electrons    :    213.52s CPU    223.01s WALL (       1 calls)
     forces       :      7.30s CPU      7.61s WALL (       1 calls)
     stress       :    110.67s CPU    112.06s WALL (       1 calls)

     Called by init_run:
     wfcinit      :      5.90s CPU     12.79s WALL (       1 calls)
     potinit      :      1.30s CPU      1.42s WALL (       1 calls)
     hinit0       :      0.66s CPU      0.71s WALL (       1 calls)

     Called by electrons:
     c_bands      :    203.72s CPU    212.35s WALL (       2 calls)
     sum_band     :      6.27s CPU      6.58s WALL (       2 calls)
     v_of_rho     :      1.65s CPU      1.77s WALL (       2 calls)
     v_h          :      0.02s CPU      0.02s WALL (       2 calls)
     v_xc         :     26.32s CPU     28.33s WALL (      38 calls)
     newd         :      0.58s CPU      0.81s WALL (       2 calls)
     PAW_pot      :      0.55s CPU      0.56s WALL (       2 calls)
     mix_rho      :      0.00s CPU      0.00s WALL (       2 calls)
     vdW_kernel   :      0.24s CPU      0.25s WALL (       1 calls)

     Called by c_bands:
     init_us_2    :      0.15s CPU      0.16s WALL (       4 calls)
     init_us_2:cp :      0.15s CPU      0.16s WALL (       4 calls)
     cegterg      :    201.19s CPU    208.83s WALL (       2 calls)

     Called by sum_band:
     sum_band:wei :      0.00s CPU      0.00s WALL (       2 calls)
     sum_band:loo :      5.52s CPU      5.56s WALL (       2 calls)
     sum_band:buf :      0.00s CPU      0.00s WALL (       2 calls)
     sum_band:ini :      0.14s CPU      0.14s WALL (       2 calls)
     sum_band:cal :      2.39s CPU      2.40s WALL (       2 calls)
     sum_band:bec :      0.04s CPU      0.04s WALL (       2 calls)
     addusdens    :      0.64s CPU      0.89s WALL (       2 calls)
     addusd:skk   :      0.04s CPU      0.05s WALL (       4 calls)
     addusd:dgemm :      0.35s CPU      0.59s WALL (       4 calls)
     addusd:qvan2 :      0.24s CPU      0.24s WALL (       4 calls)

     Called by *egterg:
     cdiaghg      :    151.62s CPU    158.02s WALL (      19 calls)
     cegterg:over :      8.49s CPU      8.73s WALL (      19 calls)
     cegterg:upda :      4.64s CPU      4.75s WALL (      19 calls)
     cegterg:last :      2.33s CPU      2.35s WALL (       2 calls)
     h_psi        :     25.26s CPU     25.62s WALL (      21 calls)
     s_psi        :      5.34s CPU      5.37s WALL (      21 calls)
     g_psi        :      0.04s CPU      0.04s WALL (      19 calls)

     Called by h_psi:
     h_psi:calbec :      5.89s CPU      5.93s WALL (      21 calls)
     vloc_psi     :     13.92s CPU     14.07s WALL (      21 calls)
     add_vuspsi   :      5.31s CPU      5.37s WALL (      21 calls)

     General routines
     calbec       :     14.30s CPU     14.41s WALL (      28 calls)
     fft          :     15.90s CPU     16.12s WALL (    2232 calls)
     ffts         :      0.03s CPU      0.03s WALL (       4 calls)
     fftw         :     15.94s CPU     16.10s WALL (   10220 calls)
     interpolate  :      0.03s CPU      0.04s WALL (       2 calls)
 
     Parallel routines

     PAW routines
     PAW_pot      :      0.55s CPU      0.56s WALL (       2 calls)
 
     PWSCF        :   6m11.31s CPU   6m37.62s WALL

 
   This run was terminated on:  11:50:45  18Feb2024            

=------------------------------------------------------------------------------=
   JOB DONE.
=------------------------------------------------------------------------------=
