
     Program PWSCF v.7.1 starts on 14Feb2024 at  8:12:53 

     This program is part of the open-source Quantum ESPRESSO suite
     for quantum simulation of materials; please cite
         "P. Giannozzi et al., J. Phys.:Condens. Matter 21 395502 (2009);
         "P. Giannozzi et al., J. Phys.:Condens. Matter 29 465901 (2017);
         "P. Giannozzi et al., J. Chem. Phys. 152 154105 (2020);
          URL http://www.quantum-espresso.org", 
     in publications or presentations arising from this work. More details at
     http://www.quantum-espresso.org/quote

     Parallel version (MPI & OpenMP), running on     128 processor cores
     Number of MPI processes:               128
     Threads/MPI process:                     1

     MPI processes distributed on     1 nodes
     996008 MiB available memory on the printing compute node when the environment starts
 
     Reading input from espresso.pwi
Warning: card &CELL ignored
Warning: card    CELL_DYNAMICS    = 'BFGS' ignored
Warning: card / ignored

     Current dimensions of program PWSCF are:
     Max number of different atomic species (ntypx) = 10
     Max number of k-points (npk) =  40000
     Max angular momentum in pseudopotentials (lmaxx) =  4
     file Pb.pbe-dn-kjpaw_psl.1.0.0.UPF: wavefunction(s)  6S 6P 5D renormalized
     file I.pbe-dn-kjpaw_psl.1.0.0.UPF: wavefunction(s)  5S 5P renormalized

     **************************************************************************
     Initializing libbeef V0.1.2 with the BEEF-vdW functional.
     Citation: Wellendorff et al., PRB 85, 235149 (2012).
     **************************************************************************


     IMPORTANT: XC functional enforced from input :
     Exchange-correlation= BEEF-VDW
                           (   1   4  43  14   2   0   0)
     Any further DFT definition will be discarded
     Please, verify this is what you really want

 
     K-points division:     npool     =       2
     R & G space division:  proc/nbgrp/npool/nimage =      64
     Subspace diagonalization in iterative solution of the eigenvalue problem:
     a serial algorithm will be used

 
     Parallelization info
     --------------------
     sticks:   dense  smooth     PW     G-vecs:    dense   smooth      PW
     Min         268     215     55                29758    21295    2791
     Max         269     216     56                29767    21298    2796
     Sum       17215   13777   3559              1904969  1362953  178821
 
     Using Slab Decomposition
 


     bravais-lattice index     =            4
     lattice parameter (alat)  =      26.7090  a.u.
     unit-cell volume          =   17226.5091 (a.u.)^3
     number of atoms/cell      =           54
     number of atomic types    =            2
     number of electrons       =       864.00
     number of Kohn-Sham states=          518
     kinetic-energy cutoff     =      70.0000  Ry
     charge density cutoff     =     350.0000  Ry
     scf convergence threshold =      1.0E-07
     mixing beta               =       0.7000
     number of iterations used =            8  plain     mixing
     Exchange-correlation= BEEF-VDW
                           (   1   4  43  14   2   0   0)

     celldm(1)=  26.709025  celldm(2)=   0.000000  celldm(3)=   1.043981
     celldm(4)=   0.000000  celldm(5)=   0.000000  celldm(6)=   0.000000

     crystal axes: (cart. coord. in units of alat)
               a(1) = (   1.000000   0.000000   0.000000 )  
               a(2) = (  -0.500000   0.866025   0.000000 )  
               a(3) = (   0.000000   0.000000   1.043981 )  

     reciprocal axes: (cart. coord. in units 2 pi/alat)
               b(1) = (  1.000000  0.577350 -0.000000 )  
               b(2) = (  0.000000  1.154701  0.000000 )  
               b(3) = (  0.000000 -0.000000  0.957872 )  


     PseudoPot. # 1 for Pb read from file:
     /trace/group/acmegroup/atimmins/packages/espresso/pseudo/psl_1.0.0/pslibrary.1.0.0/pbe/PSEUDOPOTENTIALS/Pb.pbe-dn-kjpaw_psl.1.0.0.UPF
     MD5 check sum: 39ab5b8a6bbd56b7735ad9f188aac93a
     Pseudo is Projector augmented-wave + core cor, Zval = 14.0
     Generated using 'atomic' code by A. Dal Corso  v.7.1
     Shape of augmentation charge: PSQ
     Using radial grid of 1281 points,  6 beta functions with: 
                l(1) =   0
                l(2) =   0
                l(3) =   1
                l(4) =   1
                l(5) =   2
                l(6) =   2
     Q(r) pseudized with 0 coefficients 


     PseudoPot. # 2 for I  read from file:
     /trace/group/acmegroup/atimmins/packages/espresso/pseudo/psl_1.0.0/pslibrary.1.0.0/pbe/PSEUDOPOTENTIALS/I.pbe-dn-kjpaw_psl.1.0.0.UPF
     MD5 check sum: bfa8781bc1224d19af3f3980e3fab11e
     Pseudo is Projector augmented-wave + core cor, Zval = 17.0
     Generated using 'atomic' code by A. Dal Corso  v.7.1
     Shape of augmentation charge: PSQ
     Using radial grid of 1247 points,  6 beta functions with: 
                l(1) =   0
                l(2) =   0
                l(3) =   1
                l(4) =   1
                l(5) =   2
                l(6) =   2
     Q(r) pseudized with 0 coefficients 


     atomic species   valence    mass     pseudopotential
        Pb            14.00   207.20000     Pb( 1.00)
        I             17.00   126.90447     I ( 1.00)

     No symmetry found


                                    s                        frac. trans.

      isym =  1     identity                                     

 cryst.   s( 1) = (     1          0          0      )
                  (     0          1          0      )
                  (     0          0          1      )

 cart.    s( 1) = (  1.0000000  0.0000000  0.0000000 )
                  (  0.0000000  1.0000000  0.0000000 )
                  (  0.0000000  0.0000000  1.0000000 )


     point group C_1 (1)    
     there are  1 classes
     the character table:

       E    
A      1.00

     the symmetry operations in each class and the name of the first element:

     E        1
          identity                                               

   Cartesian axes

     site n.     atom                  positions (alat units)
         1           Pb  tau(   1) = (   0.1666780   0.2886497   1.0439767  )
         2           Pb  tau(   2) = (   0.1666712   0.2886557   0.5219862  )
         3           Pb  tau(   3) = (   0.0000102   0.5773235   1.0439712  )
         4           Pb  tau(   4) = (   0.0000034   0.5773295   0.5219807  )
         5           Pb  tau(   5) = (  -0.1666576   0.8659973   1.0439657  )
         6           Pb  tau(   6) = (  -0.1666644   0.8660033   0.5219752  )
         7           Pb  tau(   7) = (   0.5000113   0.2886484   1.0439810  )
         8           Pb  tau(   8) = (   0.5000045   0.2886544   0.5219905  )
         9           Pb  tau(   9) = (   0.3333436   0.5773222   1.0439755  )
        10           Pb  tau(  10) = (   0.3333367   0.5773282   0.5219850  )
        11           Pb  tau(  11) = (   0.1666758   0.8659960   1.0439700  )
        12           Pb  tau(  12) = (   0.1666690   0.8660020   0.5219795  )
        13           Pb  tau(  13) = (   0.8333447   0.2886471   1.0439853  )
        14           Pb  tau(  14) = (   0.8333379   0.2886531   0.5219949  )
        15           Pb  tau(  15) = (   0.6666769   0.5773209   1.0439798  )
        16           Pb  tau(  16) = (   0.6666701   0.5773269   0.5219894  )
        17           Pb  tau(  17) = (   0.5000091   0.8659947   1.0439743  )
        18           Pb  tau(  18) = (   0.5000023   0.8660007   0.5219839  )
        19           I   tau(  19) = (   0.1666738   0.0962066   0.3879099  )
        20           I   tau(  20) = (   0.1666806   0.0962006   0.9099004  )
        21           I   tau(  21) = (   0.0000060   0.3848804   0.3879044  )
        22           I   tau(  22) = (   0.0000129   0.3848744   0.9098949  )
        23           I   tau(  23) = (  -0.1666617   0.6735542   0.3878990  )
        24           I   tau(  24) = (  -0.1666549   0.6735482   0.9098894  )
        25           I   tau(  25) = (   0.5000071   0.0962053   0.3879143  )
        26           I   tau(  26) = (   0.5000140   0.0961993   0.9099047  )
        27           I   tau(  27) = (   0.3333394   0.3848792   0.3879088  )
        28           I   tau(  28) = (   0.3333462   0.3848731   0.9098993  )
        29           I   tau(  29) = (   0.1666716   0.6735530   0.3879033  )
        30           I   tau(  30) = (   0.1666784   0.6735469   0.9098938  )
        31           I   tau(  31) = (   0.8333405   0.0962041   0.3879186  )
        32           I   tau(  32) = (   0.8333473   0.0961980   0.9099091  )
        33           I   tau(  33) = (   0.6666727   0.3848779   0.3879131  )
        34           I   tau(  34) = (   0.6666795   0.3848718   0.9099036  )
        35           I   tau(  35) = (   0.5000049   0.6735517   0.3879076  )
        36           I   tau(  36) = (   0.5000117   0.6735457   0.9098981  )
        37           I   tau(  37) = (  -0.0000023   0.1924396   0.1340740  )
        38           I   tau(  38) = (   0.0000045   0.1924336   0.6560644  )
        39           I   tau(  39) = (  -0.1666701   0.4811134   0.1340685  )
        40           I   tau(  40) = (  -0.1666632   0.4811074   0.6560589  )
        41           I   tau(  41) = (  -0.3333378   0.7697873   0.1340630  )
        42           I   tau(  42) = (  -0.3333310   0.7697812   0.6560534  )
        43           I   tau(  43) = (   0.3333311   0.1924384   0.1340783  )
        44           I   tau(  44) = (   0.3333379   0.1924323   0.6560688  )
        45           I   tau(  45) = (   0.1666633   0.4811122   0.1340728  )
        46           I   tau(  46) = (   0.1666701   0.4811061   0.6560633  )
        47           I   tau(  47) = (  -0.0000045   0.7697860   0.1340673  )
        48           I   tau(  48) = (   0.0000023   0.7697799   0.6560578  )
        49           I   tau(  49) = (   0.6666644   0.1924371   0.1340827  )
        50           I   tau(  50) = (   0.6666712   0.1924310   0.6560731  )
        51           I   tau(  51) = (   0.4999966   0.4811109   0.1340772  )
        52           I   tau(  52) = (   0.5000034   0.4811049   0.6560676  )
        53           I   tau(  53) = (   0.3333288   0.7697847   0.1340717  )
        54           I   tau(  54) = (   0.3333356   0.7697787   0.6560621  )

   Crystallographic axes

     site n.     atom                  positions (cryst. coord.)
         1           Pb  tau(   1) = (  0.3333300  0.3333039  0.9999959  )
         2           Pb  tau(   2) = (  0.3333266  0.3333109  0.4999959  )
         3           Pb  tau(   3) = (  0.3333281  0.6666357  0.9999906  )
         4           Pb  tau(   4) = (  0.3333248  0.6666427  0.4999906  )
         5           Pb  tau(   5) = (  0.3333262  0.9999675  0.9999854  )
         6           Pb  tau(   6) = (  0.3333229  0.9999745  0.4999854  )
         7           Pb  tau(   7) = (  0.6666626  0.3333025  1.0000001  )
         8           Pb  tau(   8) = (  0.6666592  0.3333094  0.5000001  )
         9           Pb  tau(   9) = (  0.6666607  0.6666343  0.9999948  )
        10           Pb  tau(  10) = (  0.6666573  0.6666412  0.4999948  )
        11           Pb  tau(  11) = (  0.6666588  0.9999661  0.9999895  )
        12           Pb  tau(  12) = (  0.6666555  0.9999730  0.4999895  )
        13           Pb  tau(  13) = (  0.9999951  0.3333010  1.0000042  )
        14           Pb  tau(  14) = (  0.9999918  0.3333079  0.5000042  )
        15           Pb  tau(  15) = (  0.9999933  0.6666328  0.9999990  )
        16           Pb  tau(  16) = (  0.9999899  0.6666397  0.4999990  )
        17           Pb  tau(  17) = (  0.9999914  0.9999646  0.9999937  )
        18           Pb  tau(  18) = (  0.9999881  0.9999715  0.4999937  )
        19           I   tau(  19) = (  0.2222187  0.1110899  0.3715680  )
        20           I   tau(  20) = (  0.2222221  0.1110829  0.8715680  )
        21           I   tau(  21) = (  0.2222169  0.4444217  0.3715628  )
        22           I   tau(  22) = (  0.2222202  0.4444147  0.8715628  )
        23           I   tau(  23) = (  0.2222150  0.7777534  0.3715575  )
        24           I   tau(  24) = (  0.2222183  0.7777465  0.8715575  )
        25           I   tau(  25) = (  0.5555513  0.1110884  0.3715722  )
        26           I   tau(  26) = (  0.5555547  0.1110814  0.8715722  )
        27           I   tau(  27) = (  0.5555495  0.4444202  0.3715669  )
        28           I   tau(  28) = (  0.5555528  0.4444132  0.8715669  )
        29           I   tau(  29) = (  0.5555476  0.7777520  0.3715617  )
        30           I   tau(  30) = (  0.5555509  0.7777450  0.8715617  )
        31           I   tau(  31) = (  0.8888839  0.1110869  0.3715764  )
        32           I   tau(  32) = (  0.8888873  0.1110799  0.8715764  )
        33           I   tau(  33) = (  0.8888820  0.4444187  0.3715711  )
        34           I   tau(  34) = (  0.8888854  0.4444117  0.8715711  )
        35           I   tau(  35) = (  0.8888802  0.7777505  0.3715658  )
        36           I   tau(  36) = (  0.8888835  0.7777435  0.8715658  )
        37           I   tau(  37) = (  0.1111028  0.2222102  0.1284257  )
        38           I   tau(  38) = (  0.1111061  0.2222032  0.6284257  )
        39           I   tau(  39) = (  0.1111009  0.5555420  0.1284204  )
        40           I   tau(  40) = (  0.1111043  0.5555350  0.6284204  )
        41           I   tau(  41) = (  0.1110991  0.8888738  0.1284152  )
        42           I   tau(  42) = (  0.1111024  0.8888668  0.6284152  )
        43           I   tau(  43) = (  0.4444354  0.2222087  0.1284299  )
        44           I   tau(  44) = (  0.4444387  0.2222017  0.6284299  )
        45           I   tau(  45) = (  0.4444335  0.5555405  0.1284246  )
        46           I   tau(  46) = (  0.4444369  0.5555335  0.6284246  )
        47           I   tau(  47) = (  0.4444316  0.8888723  0.1284193  )
        48           I   tau(  48) = (  0.4444350  0.8888653  0.6284193  )
        49           I   tau(  49) = (  0.7777680  0.2222072  0.1284340  )
        50           I   tau(  50) = (  0.7777713  0.2222002  0.6284340  )
        51           I   tau(  51) = (  0.7777661  0.5555390  0.1284287  )
        52           I   tau(  52) = (  0.7777694  0.5555320  0.6284287  )
        53           I   tau(  53) = (  0.7777642  0.8888708  0.1284235  )
        54           I   tau(  54) = (  0.7777676  0.8888638  0.6284235  )

     number of k points=     4  Gaussian smearing, width (Ry)=  0.0100
                       cart. coord. in units 2pi/alat
        k(    1) = (   0.0000000   0.0000000   0.0000000), wk =   0.5000000
        k(    2) = (   0.0000000  -0.5773503   0.0000000), wk =   0.5000000
        k(    3) = (   0.5000000  -0.2886751   0.0000000), wk =   0.5000000
        k(    4) = (  -0.5000000  -0.2886751   0.0000000), wk =   0.5000000

                       cryst. coord.
        k(    1) = (   0.0000000   0.0000000   0.0000000), wk =   0.5000000
        k(    2) = (   0.0000000  -0.5000000   0.0000000), wk =   0.5000000
        k(    3) = (   0.5000000  -0.5000000   0.0000000), wk =   0.5000000
        k(    4) = (  -0.5000000   0.0000000   0.0000000), wk =   0.5000000

     Dense  grid:  1904969 G-vectors     FFT dimensions: ( 160, 160, 180)

     Smooth grid:  1362953 G-vectors     FFT dimensions: ( 144, 144, 150)

     Dynamical RAM for                 wfc:      21.04 MB

     Dynamical RAM for     wfc (w. buffer):      63.12 MB

     Dynamical RAM for           str. fact:       0.91 MB

     Dynamical RAM for           local pot:       0.00 MB

     Dynamical RAM for          nlocal pot:      39.48 MB

     Dynamical RAM for                qrad:       3.00 MB

     Dynamical RAM for          rho,v,vnew:       3.12 MB

     Dynamical RAM for               rhoin:       1.04 MB

     Dynamical RAM for            rho*nmix:       7.27 MB

     Dynamical RAM for           G-vectors:       1.87 MB

     Dynamical RAM for          h,s,v(r/c):     196.53 MB

     Dynamical RAM for          <psi|beta>:       7.68 MB

     Dynamical RAM for                 psi:      84.16 MB

     Dynamical RAM for                hpsi:      84.16 MB

     Dynamical RAM for                spsi:      84.16 MB

     Dynamical RAM for      wfcinit/wfcrot:      48.23 MB

     Dynamical RAM for           addusdens:      50.64 MB

     Dynamical RAM for          addusforce:      66.68 MB

     Dynamical RAM for         addusstress:      45.76 MB

     Estimated static dynamical RAM per process >     116.83 MB

     Estimated max dynamical RAM per process >     580.80 MB

     Estimated total dynamical RAM >      72.15 GB

     Atomic positions and unit cell read from directory:
     ./PbI2.save/
     Atomic positions from file used, from input discarded
 

     Check: negative core charge=   -0.000001

     The initial density is read from file :
     ./PbI2.save/charge-density



     %%%%%%%%%%%%%%%%%%%%%%%%%%%%%%%%%%%%%%%%%%%%%%%%%%%%%%%%%%%%%%%%%%%%%%%%
     %                                                                      %
     % You are using vdW-DF, which was implemented by the Thonhauser group. %
     % Please cite the following two papers that made this development      %
     % possible and the two reviews that describe the various versions:     %
     %                                                                      %
     %   T. Thonhauser et al., PRL 115, 136402 (2015).                      %
     %   T. Thonhauser et al., PRB 76, 125112 (2007).                       %
     %   K. Berland et al., Rep. Prog. Phys. 78, 066501 (2015).             %
     %   D.C. Langreth et al., J. Phys.: Condens. Matter 21, 084203 (2009). %
     %                                                                      %
     % If you are calculating stress with vdW-DF, please also cite:         %
     %                                                                      %
     %   R. Sabatini et al., J. Phys.: Condens. Matter 24, 424209 (2012).   %
     %                                                                      %
     %%%%%%%%%%%%%%%%%%%%%%%%%%%%%%%%%%%%%%%%%%%%%%%%%%%%%%%%%%%%%%%%%%%%%%%%

     %%%%%%%%%%%%%%%%%%%%%%%%%%%%%%%%%%%%%%%%%%%%%%%%%%%%%%%%%%%%%%%%%%%%%%%%
     %                                                                      %
     %  vdW-DF NEWS:                                                        %
     %                                                                      %
     %  * vdW-DF3 is now available. DOI: 10.1021/acs.jctc.0c00471           %
     %    use with input_dft = 'vdW-DF3-opt1' or 'vdW-DF3-opt2'             %
     %                                                                      %
     %  * Unscreened and range-separated vdW-DF hybrid functionals          %
     %    DOI: 10.1063/1.4986522 and 10.1088/1361-648X/ac2ad2               %
     %    use with input_dft = 'vdW-DF-cx0' (etc) and 'vdW-DF-ahcx'         %
     %                                                                      %
     %%%%%%%%%%%%%%%%%%%%%%%%%%%%%%%%%%%%%%%%%%%%%%%%%%%%%%%%%%%%%%%%%%%%%%%%


     Carrying out vdW-DF run using the following parameters:
     Nqs    =  20  Npoints =  1024  r_max =  100.000
     q_mesh =  0.00001000  0.04494208  0.09755937  0.15916263
               0.23128650  0.31572767  0.41458969  0.53033537
               0.66584808  0.82450364  1.01025438  1.22772762
               1.48234092  1.78043706  2.12944203  2.53805004
               3.01644009  3.57652955  4.23227104  5.00000000


     -----------------------------------------------
     Non-local corr. energy    =      25.88797497 Ry
     -----------------------------------------------

     Starting wfcs from file
     Checking if some PAW data can be deallocated... 
       PAW data deallocated on   74 nodes for type:  1
       PAW data deallocated on   54 nodes for type:  2

     total cpu time spent up to now is       11.3 secs

     Self-consistent Calculation

     iteration #  1     ecut=    70.00 Ry     beta= 0.70
     Davidson diagonalization with overlap

---- Real-time Memory Report at c_bands before calling an iterative solver
           265 MiB given to the printing process from OS
             0 MiB allocation reported by mallinfo(arena+hblkhd)
        976347 MiB available memory on the node where the printing process lives
------------------
     ethr =  1.00E-05,  avg # of iterations =  1.0

     Threshold (ethr) on eigenvalues was too large:
     Diagonalizing with lowered threshold

     Davidson diagonalization with overlap

---- Real-time Memory Report at c_bands before calling an iterative solver
           540 MiB given to the printing process from OS
             0 MiB allocation reported by mallinfo(arena+hblkhd)
        969899 MiB available memory on the node where the printing process lives
------------------
     c_bands:  4 eigenvalues not converged
     c_bands:  4 eigenvalues not converged
     ethr =  4.92E-15,  avg # of iterations = 27.0


     -----------------------------------------------
     Non-local corr. energy    =      25.88797513 Ry
     -----------------------------------------------


     total cpu time spent up to now is      165.2 secs

     End of self-consistent calculation

          k = 0.0000 0.0000 0.0000 (170421 PWs)   bands (ev):

   -40.7753 -40.7753 -40.7753 -40.7753 -40.7753 -40.7753 -40.7752 -40.7752
   -40.7752 -40.7752 -40.7752 -40.7752 -40.7752 -40.7752 -40.7752 -40.7752
   -40.7752 -40.7752 -40.7751 -40.7751 -40.7751 -40.7751 -40.7751 -40.7751
   -40.7736 -40.7736 -40.7736 -40.7735 -40.7735 -40.7735 -40.7735 -40.7735
   -40.7735 -40.7735 -40.7735 -40.7734 -40.7734 -40.7734 -40.7734 -40.7734
   -40.7734 -40.7734 -40.7734 -40.7734 -40.7733 -40.7733 -40.7733 -40.7733
   -40.7730 -40.7730 -40.7730 -40.7730 -40.7729 -40.7729 -40.7729 -40.7729
   -40.7729 -40.7729 -40.7729 -40.7729 -40.7718 -40.7718 -40.7718 -40.7718
   -40.7718 -40.7718 -40.7718 -40.7718 -40.7718 -40.7718 -40.7717 -40.7717
   -40.7717 -40.7717 -40.7717 -40.7717 -40.7717 -40.7717 -40.7717 -40.7717
   -40.7717 -40.7717 -40.7716 -40.7716 -40.7711 -40.7710 -40.7710 -40.7710
   -40.7710 -40.7710 -40.7710 -40.7709 -40.7709 -40.7709 -40.7709 -40.7709
   -40.7709 -40.7709 -40.7708 -40.7708 -40.7708 -40.7708 -40.7708 -40.7708
   -40.7708 -40.7708 -40.7707 -40.7707 -40.7703 -40.7703 -40.7703 -40.7702
   -40.7702 -40.7702 -40.7702 -40.7702 -40.7702 -40.7702 -40.7702 -40.7701
   -40.7700 -40.7700 -40.7700 -40.7700 -40.7700 -40.7700 -40.7700 -40.7700
   -40.7700 -40.7700 -40.7699 -40.7699 -40.7696 -40.7695 -40.7695 -40.7695
   -40.7695 -40.7695 -40.7695 -40.7695 -40.7695 -40.7695 -40.7695 -40.7695
   -40.7692 -40.7691 -40.7691 -40.7691 -40.7691 -40.7691 -40.7691 -40.7691
   -40.7691 -40.7691 -40.7690 -40.7690 -40.7690 -40.7690 -40.7690 -40.7690
   -40.7690 -40.7690 -40.7690 -40.7690 -40.7690 -40.7690 -40.7689 -40.7689
   -40.7686 -40.7686 -40.7685 -40.7685 -40.7685 -40.7685 -40.7685 -40.7685
   -40.7685 -40.7685 -40.7684 -40.7684 -12.9340 -12.9340 -12.9340 -12.9340
   -12.9304 -12.9304 -12.9303 -12.9303 -12.9287 -12.9287 -12.9287 -12.9287
   -12.9239 -12.9239 -12.9239 -12.9239 -12.9236 -12.9236 -12.9236 -12.9236
   -12.9156 -12.9156 -12.9156 -12.9156 -12.9153 -12.9153 -12.9142 -12.9142
   -12.9142 -12.9142 -12.9112 -12.9112 -12.9111 -12.9110 -12.9110 -12.9110
   -12.9110 -12.9109 -12.9098 -12.9098 -12.9096 -12.9096 -12.9095 -12.9095
   -12.9091 -12.9091 -12.9083 -12.9083 -12.9083 -12.9083 -12.9069 -12.9069
   -12.9063 -12.9063 -12.9063 -12.9063 -12.9047 -12.9047 -12.9047 -12.9047
   -12.9036 -12.9035 -12.9035 -12.9035 -12.9035 -12.9035 -12.9033 -12.9033
   -12.9033 -12.9032 -12.9028 -12.9028 -12.9028 -12.9028 -12.9009 -12.9008
   -12.9008 -12.9007 -12.9006 -12.9006 -12.9006 -12.9005 -12.8993 -12.8993
   -12.8993 -12.8993 -12.8982 -12.8982 -12.8982 -12.8982  -8.1078  -8.0197
    -7.7853  -7.7853  -7.7841  -7.7836  -7.7826  -7.7826  -7.7251  -7.7251
    -7.7243  -7.7233  -7.7226  -7.7226  -7.6930  -7.5787  -7.5486  -7.5486
    -7.5484  -7.5465  -7.5464  -7.5464  -7.5132  -7.5132  -7.5130  -7.5130
    -7.5118  -7.5118  -7.5117  -7.5117  -7.4823  -7.4820  -7.4820  -7.4801
    -7.4801  -7.4798  -3.6939  -3.6938  -3.6874  -3.6873  -3.4914  -3.4899
    -3.4896  -3.4896  -3.4882  -3.4881  -3.4879  -3.4879  -3.4864  -3.4864
    -3.4863  -3.4848  -3.1803  -3.1015   1.1981   1.1981   1.1981   1.1981
     1.2170   1.2170   1.2170   1.2174   1.2175   1.2175   1.3001   1.3001
     1.3004   1.3006   1.3008   1.3008   1.4723   1.4725   1.4829   1.4829
     1.4829   1.4829   1.6819   1.6821   1.8240   1.8240   1.8249   1.8259
     1.8266   1.8266   2.0547   2.0548   2.0548   2.0548   2.0549   2.0549
     2.1677   2.1678   2.1678   2.1678   2.1679   2.1679   2.2050   2.2193
     2.2194   2.2208   2.2218   2.2230   2.2230   2.4388   2.4389   2.4389
     2.4390   2.5972   2.5972   2.5984   2.5993   2.6004   2.6005   2.6559
     2.6896   2.6896   2.7645   2.7646   2.8129   2.8131   2.8131   2.8132
     2.8138   2.8139   2.8139   2.8147   2.8147   2.8152   2.8152   2.8168
     2.8844   2.8844   2.9534   2.9534   2.9534   2.9534   2.9818   2.9818
     2.9890   2.9898   2.9898   2.9898   2.9898   2.9906   3.0103   3.0911
     3.0930   3.0930   3.0958   3.0959   3.0975   3.1053   3.1054   3.2657
     3.2677   3.2677   3.2687   3.2687   3.2706   3.4549   3.4549   3.4639
     5.9286   6.1300   6.5553   6.5561   6.5561   6.5566   6.5567   6.5575
     6.8014   6.8015   6.8208   6.8210   6.8211   6.8212   6.8212   6.8214
     6.9037   6.9037   7.0913   7.0913   7.0915   7.0916   7.2700   7.2700
     7.2712   7.2722   7.2732   7.2732   7.4349   7.4349   7.4358   7.4375
     7.4382   7.4382   7.5478   7.5499   7.5499   7.5504   7.5504   7.5520
     7.6509   7.6523   7.6523   7.6526   7.6527   7.6541   7.6785   7.6785
     7.6785   7.6786   7.6899   7.6900   7.9064   7.9066   9.5085   9.5086
     9.5086   9.5112   9.5112   9.5113   9.8571   9.8693   9.8694   9.8705
     9.8716   9.8727   9.8727  10.2045  10.2047  10.4428  10.7718  10.7719
    10.9922  10.9922  10.9923  10.9923  11.0689  11.0690  11.0696  11.0735
    11.0743  11.0743  11.1370  11.1375  11.1375  11.1383

     occupation numbers 
     1.0000   1.0000   1.0000   1.0000   1.0000   1.0000   1.0000   1.0000
     1.0000   1.0000   1.0000   1.0000   1.0000   1.0000   1.0000   1.0000
     1.0000   1.0000   1.0000   1.0000   1.0000   1.0000   1.0000   1.0000
     1.0000   1.0000   1.0000   1.0000   1.0000   1.0000   1.0000   1.0000
     1.0000   1.0000   1.0000   1.0000   1.0000   1.0000   1.0000   1.0000
     1.0000   1.0000   1.0000   1.0000   1.0000   1.0000   1.0000   1.0000
     1.0000   1.0000   1.0000   1.0000   1.0000   1.0000   1.0000   1.0000
     1.0000   1.0000   1.0000   1.0000   1.0000   1.0000   1.0000   1.0000
     1.0000   1.0000   1.0000   1.0000   1.0000   1.0000   1.0000   1.0000
     1.0000   1.0000   1.0000   1.0000   1.0000   1.0000   1.0000   1.0000
     1.0000   1.0000   1.0000   1.0000   1.0000   1.0000   1.0000   1.0000
     1.0000   1.0000   1.0000   1.0000   1.0000   1.0000   1.0000   1.0000
     1.0000   1.0000   1.0000   1.0000   1.0000   1.0000   1.0000   1.0000
     1.0000   1.0000   1.0000   1.0000   1.0000   1.0000   1.0000   1.0000
     1.0000   1.0000   1.0000   1.0000   1.0000   1.0000   1.0000   1.0000
     1.0000   1.0000   1.0000   1.0000   1.0000   1.0000   1.0000   1.0000
     1.0000   1.0000   1.0000   1.0000   1.0000   1.0000   1.0000   1.0000
     1.0000   1.0000   1.0000   1.0000   1.0000   1.0000   1.0000   1.0000
     1.0000   1.0000   1.0000   1.0000   1.0000   1.0000   1.0000   1.0000
     1.0000   1.0000   1.0000   1.0000   1.0000   1.0000   1.0000   1.0000
     1.0000   1.0000   1.0000   1.0000   1.0000   1.0000   1.0000   1.0000
     1.0000   1.0000   1.0000   1.0000   1.0000   1.0000   1.0000   1.0000
     1.0000   1.0000   1.0000   1.0000   1.0000   1.0000   1.0000   1.0000
     1.0000   1.0000   1.0000   1.0000   1.0000   1.0000   1.0000   1.0000
     1.0000   1.0000   1.0000   1.0000   1.0000   1.0000   1.0000   1.0000
     1.0000   1.0000   1.0000   1.0000   1.0000   1.0000   1.0000   1.0000
     1.0000   1.0000   1.0000   1.0000   1.0000   1.0000   1.0000   1.0000
     1.0000   1.0000   1.0000   1.0000   1.0000   1.0000   1.0000   1.0000
     1.0000   1.0000   1.0000   1.0000   1.0000   1.0000   1.0000   1.0000
     1.0000   1.0000   1.0000   1.0000   1.0000   1.0000   1.0000   1.0000
     1.0000   1.0000   1.0000   1.0000   1.0000   1.0000   1.0000   1.0000
     1.0000   1.0000   1.0000   1.0000   1.0000   1.0000   1.0000   1.0000
     1.0000   1.0000   1.0000   1.0000   1.0000   1.0000   1.0000   1.0000
     1.0000   1.0000   1.0000   1.0000   1.0000   1.0000   1.0000   1.0000
     1.0000   1.0000   1.0000   1.0000   1.0000   1.0000   1.0000   1.0000
     1.0000   1.0000   1.0000   1.0000   1.0000   1.0000   1.0000   1.0000
     1.0000   1.0000   1.0000   1.0000   1.0000   1.0000   1.0000   1.0000
     1.0000   1.0000   1.0000   1.0000   1.0000   1.0000   1.0000   1.0000
     1.0000   1.0000   1.0000   1.0000   1.0000   1.0000   1.0000   1.0000
     1.0000   1.0000   1.0000   1.0000   1.0000   1.0000   1.0000   1.0000
     1.0000   1.0000   1.0000   1.0000   1.0000   1.0000   1.0000   1.0000
     1.0000   1.0000   1.0000   1.0000   1.0000   1.0000   1.0000   1.0000
     1.0000   1.0000   1.0000   1.0000   1.0000   1.0000   1.0000   1.0000
     1.0000   1.0000   1.0000   1.0000   1.0000   1.0000   1.0000   1.0000
     1.0000   1.0000   1.0000   1.0000   1.0000   1.0000   1.0000   1.0000
     1.0000   1.0000   1.0000   1.0000   1.0000   1.0000   1.0000   1.0000
     1.0000   1.0000   1.0000   1.0000   1.0000   1.0000   1.0000   1.0000
     1.0000   1.0000   1.0000   1.0000   1.0000   1.0000   1.0000   1.0000
     1.0000   1.0000   1.0000   1.0000   1.0000   1.0000   1.0000   1.0000
     1.0000   1.0000   1.0000   1.0000   1.0000   1.0000   1.0000   1.0000
     1.0000   1.0000   1.0000   1.0000   1.0000   1.0000   1.0000   1.0000
     1.0000   1.0000   1.0000   1.0000   1.0000   1.0000   1.0000   1.0000
     1.0000   1.0000   1.0000   1.0000   1.0000   1.0000   1.0000   1.0000
     1.0000   1.0000   1.0000   1.0000   1.0000   1.0000   1.0000   1.0000
     0.0000   0.0000   0.0000   0.0000   0.0000   0.0000   0.0000   0.0000
     0.0000   0.0000   0.0000   0.0000   0.0000   0.0000   0.0000   0.0000
     0.0000   0.0000   0.0000   0.0000   0.0000   0.0000   0.0000   0.0000
     0.0000   0.0000   0.0000   0.0000   0.0000   0.0000   0.0000   0.0000
     0.0000   0.0000   0.0000   0.0000   0.0000   0.0000   0.0000   0.0000
     0.0000   0.0000   0.0000   0.0000   0.0000   0.0000   0.0000   0.0000
     0.0000   0.0000   0.0000   0.0000   0.0000   0.0000   0.0000   0.0000
     0.0000   0.0000   0.0000   0.0000   0.0000   0.0000   0.0000   0.0000
     0.0000   0.0000   0.0000   0.0000   0.0000   0.0000   0.0000   0.0000
     0.0000   0.0000   0.0000   0.0000   0.0000   0.0000   0.0000   0.0000
     0.0000   0.0000   0.0000   0.0000   0.0000   0.0000

          k = 0.0000-0.5774 0.0000 (170366 PWs)   bands (ev):

   -40.7753 -40.7753 -40.7753 -40.7753 -40.7753 -40.7753 -40.7752 -40.7752
   -40.7752 -40.7752 -40.7752 -40.7752 -40.7752 -40.7752 -40.7752 -40.7752
   -40.7752 -40.7752 -40.7751 -40.7751 -40.7751 -40.7751 -40.7751 -40.7751
   -40.7736 -40.7736 -40.7736 -40.7735 -40.7735 -40.7735 -40.7735 -40.7735
   -40.7735 -40.7735 -40.7735 -40.7734 -40.7734 -40.7734 -40.7734 -40.7734
   -40.7734 -40.7734 -40.7734 -40.7734 -40.7733 -40.7733 -40.7733 -40.7733
   -40.7730 -40.7730 -40.7730 -40.7730 -40.7729 -40.7729 -40.7729 -40.7729
   -40.7729 -40.7729 -40.7729 -40.7729 -40.7718 -40.7718 -40.7718 -40.7718
   -40.7718 -40.7718 -40.7718 -40.7718 -40.7718 -40.7718 -40.7717 -40.7717
   -40.7717 -40.7717 -40.7717 -40.7717 -40.7717 -40.7717 -40.7717 -40.7717
   -40.7717 -40.7717 -40.7716 -40.7716 -40.7711 -40.7710 -40.7710 -40.7710
   -40.7710 -40.7710 -40.7710 -40.7709 -40.7709 -40.7709 -40.7709 -40.7709
   -40.7709 -40.7709 -40.7708 -40.7708 -40.7708 -40.7708 -40.7708 -40.7708
   -40.7708 -40.7708 -40.7707 -40.7707 -40.7703 -40.7703 -40.7703 -40.7702
   -40.7702 -40.7702 -40.7702 -40.7702 -40.7702 -40.7702 -40.7702 -40.7701
   -40.7700 -40.7700 -40.7700 -40.7700 -40.7700 -40.7700 -40.7700 -40.7700
   -40.7700 -40.7700 -40.7699 -40.7699 -40.7696 -40.7695 -40.7695 -40.7695
   -40.7695 -40.7695 -40.7695 -40.7695 -40.7695 -40.7695 -40.7695 -40.7695
   -40.7692 -40.7691 -40.7691 -40.7691 -40.7691 -40.7691 -40.7691 -40.7691
   -40.7691 -40.7691 -40.7690 -40.7690 -40.7690 -40.7690 -40.7690 -40.7690
   -40.7690 -40.7690 -40.7690 -40.7690 -40.7690 -40.7690 -40.7689 -40.7689
   -40.7686 -40.7686 -40.7685 -40.7685 -40.7685 -40.7685 -40.7685 -40.7685
   -40.7685 -40.7685 -40.7684 -40.7684 -12.9372 -12.9371 -12.9344 -12.9344
   -12.9319 -12.9319 -12.9304 -12.9303 -12.9298 -12.9298 -12.9256 -12.9255
   -12.9254 -12.9254 -12.9217 -12.9217 -12.9186 -12.9186 -12.9172 -12.9172
   -12.9164 -12.9164 -12.9154 -12.9154 -12.9143 -12.9143 -12.9141 -12.9141
   -12.9133 -12.9133 -12.9133 -12.9133 -12.9132 -12.9131 -12.9131 -12.9131
   -12.9112 -12.9112 -12.9110 -12.9109 -12.9100 -12.9099 -12.9090 -12.9090
   -12.9089 -12.9088 -12.9075 -12.9075 -12.9075 -12.9074 -12.9074 -12.9074
   -12.9074 -12.9073 -12.9071 -12.9071 -12.9067 -12.9067 -12.9066 -12.9066
   -12.9050 -12.9050 -12.9049 -12.9048 -12.9041 -12.9041 -12.9035 -12.9035
   -12.9034 -12.9033 -12.9031 -12.9031 -12.9022 -12.9021 -12.9016 -12.9016
   -12.9005 -12.9005 -12.9005 -12.9005 -12.8997 -12.8997 -12.8984 -12.8984
   -12.8978 -12.8978 -12.8977 -12.8977 -12.8966 -12.8966  -8.0125  -8.0117
    -7.9307  -7.9298  -7.8489  -7.8488  -7.7813  -7.7812  -7.6430  -7.6420
    -7.6370  -7.6362  -7.6359  -7.6352  -7.6216  -7.5999  -7.5992  -7.5987
    -7.5980  -7.5856  -7.5686  -7.5685  -7.5410  -7.5400  -7.5220  -7.5100
    -7.5100  -7.5088  -7.5086  -7.4909  -7.4907  -7.4878  -7.4734  -7.4731
    -7.4717  -7.4716  -3.6376  -3.6264  -3.6253  -3.6243  -3.6236  -3.6233
    -3.6227  -3.6226  -3.6220  -3.6210  -3.4258  -3.4257  -3.4131  -3.4130
    -3.2676  -3.2659  -3.2211  -3.2193   0.8596   1.0504   1.0506   1.0512
     1.0513   1.1230   1.2669   1.2671   1.2678   1.2678   1.5514   1.5515
     1.5519   1.5520   1.5523   1.5524   1.5747   1.5748   1.6186   1.6188
     1.6189   1.6193   1.6445   1.6446   1.7431   1.8393   1.8393   1.8718
     1.8720   1.8998   1.8999   1.9014   1.9017   1.9063   1.9178   1.9180
     1.9181   1.9182   2.0294   2.0794   2.0797   2.1646   2.2321   2.2321
     2.3564   2.3572   2.3602   2.3623   2.4276   2.4296   2.4654   2.4654
     2.4738   2.4894   2.4895   2.4908   2.4914   2.4921   2.4939   2.5923
     2.5924   2.5926   2.5926   2.6067   2.7047   2.7048   2.7172   2.7174
     2.7189   2.7192   2.7549   2.7579   2.7579   2.8119   2.8126   2.8127
     2.8134   2.8885   2.8888   2.8894   2.8897   2.9307   2.9307   2.9596
     3.0055   3.0057   3.0140   3.0211   3.0212   3.0546   3.0555   3.2081
     3.2107   3.2114   3.2117   3.2128   3.2770   3.2777   3.2796   3.2800
     3.3520   3.3525   3.3578   3.3582   3.3868   3.3875   3.3938   3.3949
     6.4614   6.4639   6.4657   6.4678   6.5924   6.7911   6.7912   6.8551
     6.8599   6.8701   6.9308   6.9311   7.0109   7.0133   7.0134   7.0135
     7.0145   7.0166   7.0494   7.0535   7.0639   7.0678   7.1232   7.1238
     7.1272   7.1279   7.1467   7.1511   7.3106   7.3118   7.3158   7.3167
     7.3227   7.3368   7.3369   7.3869   7.3874   7.4199   7.4210   7.4235
     7.4244   7.4321   7.5022   7.5025   7.5524   7.5552   7.5563   7.5590
     7.5758   7.8767   7.8778   7.8813   7.8823   8.0621   9.1889   9.6594
     9.6597   9.6605   9.6609   9.7636  10.1024  10.1025  10.1616  10.1617
    10.2130  10.2131  10.2138  10.2140  10.2920  10.2922  10.3220  10.3221
    10.3237  10.3248  10.7411  10.7453  10.7669  10.7673  10.9030  10.9037
    10.9056  10.9063  10.9940  10.9954  10.9966  10.9976

     occupation numbers 
     1.0000   1.0000   1.0000   1.0000   1.0000   1.0000   1.0000   1.0000
     1.0000   1.0000   1.0000   1.0000   1.0000   1.0000   1.0000   1.0000
     1.0000   1.0000   1.0000   1.0000   1.0000   1.0000   1.0000   1.0000
     1.0000   1.0000   1.0000   1.0000   1.0000   1.0000   1.0000   1.0000
     1.0000   1.0000   1.0000   1.0000   1.0000   1.0000   1.0000   1.0000
     1.0000   1.0000   1.0000   1.0000   1.0000   1.0000   1.0000   1.0000
     1.0000   1.0000   1.0000   1.0000   1.0000   1.0000   1.0000   1.0000
     1.0000   1.0000   1.0000   1.0000   1.0000   1.0000   1.0000   1.0000
     1.0000   1.0000   1.0000   1.0000   1.0000   1.0000   1.0000   1.0000
     1.0000   1.0000   1.0000   1.0000   1.0000   1.0000   1.0000   1.0000
     1.0000   1.0000   1.0000   1.0000   1.0000   1.0000   1.0000   1.0000
     1.0000   1.0000   1.0000   1.0000   1.0000   1.0000   1.0000   1.0000
     1.0000   1.0000   1.0000   1.0000   1.0000   1.0000   1.0000   1.0000
     1.0000   1.0000   1.0000   1.0000   1.0000   1.0000   1.0000   1.0000
     1.0000   1.0000   1.0000   1.0000   1.0000   1.0000   1.0000   1.0000
     1.0000   1.0000   1.0000   1.0000   1.0000   1.0000   1.0000   1.0000
     1.0000   1.0000   1.0000   1.0000   1.0000   1.0000   1.0000   1.0000
     1.0000   1.0000   1.0000   1.0000   1.0000   1.0000   1.0000   1.0000
     1.0000   1.0000   1.0000   1.0000   1.0000   1.0000   1.0000   1.0000
     1.0000   1.0000   1.0000   1.0000   1.0000   1.0000   1.0000   1.0000
     1.0000   1.0000   1.0000   1.0000   1.0000   1.0000   1.0000   1.0000
     1.0000   1.0000   1.0000   1.0000   1.0000   1.0000   1.0000   1.0000
     1.0000   1.0000   1.0000   1.0000   1.0000   1.0000   1.0000   1.0000
     1.0000   1.0000   1.0000   1.0000   1.0000   1.0000   1.0000   1.0000
     1.0000   1.0000   1.0000   1.0000   1.0000   1.0000   1.0000   1.0000
     1.0000   1.0000   1.0000   1.0000   1.0000   1.0000   1.0000   1.0000
     1.0000   1.0000   1.0000   1.0000   1.0000   1.0000   1.0000   1.0000
     1.0000   1.0000   1.0000   1.0000   1.0000   1.0000   1.0000   1.0000
     1.0000   1.0000   1.0000   1.0000   1.0000   1.0000   1.0000   1.0000
     1.0000   1.0000   1.0000   1.0000   1.0000   1.0000   1.0000   1.0000
     1.0000   1.0000   1.0000   1.0000   1.0000   1.0000   1.0000   1.0000
     1.0000   1.0000   1.0000   1.0000   1.0000   1.0000   1.0000   1.0000
     1.0000   1.0000   1.0000   1.0000   1.0000   1.0000   1.0000   1.0000
     1.0000   1.0000   1.0000   1.0000   1.0000   1.0000   1.0000   1.0000
     1.0000   1.0000   1.0000   1.0000   1.0000   1.0000   1.0000   1.0000
     1.0000   1.0000   1.0000   1.0000   1.0000   1.0000   1.0000   1.0000
     1.0000   1.0000   1.0000   1.0000   1.0000   1.0000   1.0000   1.0000
     1.0000   1.0000   1.0000   1.0000   1.0000   1.0000   1.0000   1.0000
     1.0000   1.0000   1.0000   1.0000   1.0000   1.0000   1.0000   1.0000
     1.0000   1.0000   1.0000   1.0000   1.0000   1.0000   1.0000   1.0000
     1.0000   1.0000   1.0000   1.0000   1.0000   1.0000   1.0000   1.0000
     1.0000   1.0000   1.0000   1.0000   1.0000   1.0000   1.0000   1.0000
     1.0000   1.0000   1.0000   1.0000   1.0000   1.0000   1.0000   1.0000
     1.0000   1.0000   1.0000   1.0000   1.0000   1.0000   1.0000   1.0000
     1.0000   1.0000   1.0000   1.0000   1.0000   1.0000   1.0000   1.0000
     1.0000   1.0000   1.0000   1.0000   1.0000   1.0000   1.0000   1.0000
     1.0000   1.0000   1.0000   1.0000   1.0000   1.0000   1.0000   1.0000
     1.0000   1.0000   1.0000   1.0000   1.0000   1.0000   1.0000   1.0000
     1.0000   1.0000   1.0000   1.0000   1.0000   1.0000   1.0000   1.0000
     1.0000   1.0000   1.0000   1.0000   1.0000   1.0000   1.0000   1.0000
     1.0000   1.0000   1.0000   1.0000   1.0000   1.0000   1.0000   1.0000
     1.0000   1.0000   1.0000   1.0000   1.0000   1.0000   1.0000   1.0000
     1.0000   1.0000   1.0000   1.0000   1.0000   1.0000   1.0000   1.0000
     1.0000   1.0000   1.0000   1.0000   1.0000   1.0000   1.0000   1.0000
     0.0000   0.0000   0.0000   0.0000   0.0000   0.0000   0.0000   0.0000
     0.0000   0.0000   0.0000   0.0000   0.0000   0.0000   0.0000   0.0000
     0.0000   0.0000   0.0000   0.0000   0.0000   0.0000   0.0000   0.0000
     0.0000   0.0000   0.0000   0.0000   0.0000   0.0000   0.0000   0.0000
     0.0000   0.0000   0.0000   0.0000   0.0000   0.0000   0.0000   0.0000
     0.0000   0.0000   0.0000   0.0000   0.0000   0.0000   0.0000   0.0000
     0.0000   0.0000   0.0000   0.0000   0.0000   0.0000   0.0000   0.0000
     0.0000   0.0000   0.0000   0.0000   0.0000   0.0000   0.0000   0.0000
     0.0000   0.0000   0.0000   0.0000   0.0000   0.0000   0.0000   0.0000
     0.0000   0.0000   0.0000   0.0000   0.0000   0.0000   0.0000   0.0000
     0.0000   0.0000   0.0000   0.0000   0.0000   0.0000

          k = 0.5000-0.2887 0.0000 (170366 PWs)   bands (ev):

   -40.7753 -40.7753 -40.7753 -40.7753 -40.7753 -40.7753 -40.7752 -40.7752
   -40.7752 -40.7752 -40.7752 -40.7752 -40.7752 -40.7752 -40.7752 -40.7752
   -40.7752 -40.7752 -40.7751 -40.7751 -40.7751 -40.7751 -40.7751 -40.7751
   -40.7736 -40.7736 -40.7736 -40.7735 -40.7735 -40.7735 -40.7735 -40.7735
   -40.7735 -40.7735 -40.7735 -40.7734 -40.7734 -40.7734 -40.7734 -40.7734
   -40.7734 -40.7734 -40.7734 -40.7734 -40.7733 -40.7733 -40.7733 -40.7733
   -40.7730 -40.7730 -40.7730 -40.7730 -40.7729 -40.7729 -40.7729 -40.7729
   -40.7729 -40.7729 -40.7729 -40.7729 -40.7718 -40.7718 -40.7718 -40.7718
   -40.7718 -40.7718 -40.7718 -40.7718 -40.7718 -40.7718 -40.7717 -40.7717
   -40.7717 -40.7717 -40.7717 -40.7717 -40.7717 -40.7717 -40.7717 -40.7717
   -40.7717 -40.7717 -40.7716 -40.7716 -40.7711 -40.7710 -40.7710 -40.7710
   -40.7710 -40.7710 -40.7710 -40.7709 -40.7709 -40.7709 -40.7709 -40.7709
   -40.7709 -40.7709 -40.7708 -40.7708 -40.7708 -40.7708 -40.7708 -40.7708
   -40.7708 -40.7708 -40.7707 -40.7707 -40.7703 -40.7703 -40.7703 -40.7702
   -40.7702 -40.7702 -40.7702 -40.7702 -40.7702 -40.7702 -40.7702 -40.7701
   -40.7700 -40.7700 -40.7700 -40.7700 -40.7700 -40.7700 -40.7700 -40.7700
   -40.7700 -40.7700 -40.7699 -40.7699 -40.7696 -40.7695 -40.7695 -40.7695
   -40.7695 -40.7695 -40.7695 -40.7695 -40.7695 -40.7695 -40.7695 -40.7695
   -40.7692 -40.7691 -40.7691 -40.7691 -40.7691 -40.7691 -40.7691 -40.7691
   -40.7691 -40.7691 -40.7690 -40.7690 -40.7690 -40.7690 -40.7690 -40.7690
   -40.7690 -40.7690 -40.7690 -40.7690 -40.7690 -40.7690 -40.7689 -40.7689
   -40.7686 -40.7686 -40.7685 -40.7685 -40.7685 -40.7685 -40.7685 -40.7685
   -40.7685 -40.7685 -40.7684 -40.7684 -12.9372 -12.9371 -12.9345 -12.9344
   -12.9319 -12.9319 -12.9303 -12.9303 -12.9298 -12.9298 -12.9256 -12.9255
   -12.9254 -12.9254 -12.9217 -12.9217 -12.9187 -12.9186 -12.9172 -12.9172
   -12.9164 -12.9164 -12.9154 -12.9154 -12.9143 -12.9143 -12.9141 -12.9141
   -12.9133 -12.9133 -12.9133 -12.9133 -12.9132 -12.9131 -12.9131 -12.9131
   -12.9112 -12.9112 -12.9110 -12.9110 -12.9100 -12.9099 -12.9090 -12.9090
   -12.9089 -12.9089 -12.9075 -12.9075 -12.9075 -12.9074 -12.9074 -12.9074
   -12.9073 -12.9073 -12.9071 -12.9071 -12.9067 -12.9067 -12.9066 -12.9066
   -12.9050 -12.9050 -12.9048 -12.9048 -12.9041 -12.9040 -12.9035 -12.9035
   -12.9034 -12.9033 -12.9031 -12.9031 -12.9022 -12.9021 -12.9016 -12.9016
   -12.9005 -12.9005 -12.9005 -12.9005 -12.8997 -12.8997 -12.8984 -12.8984
   -12.8978 -12.8978 -12.8977 -12.8977 -12.8966 -12.8966  -8.0125  -8.0117
    -7.9307  -7.9298  -7.8489  -7.8488  -7.7813  -7.7812  -7.6430  -7.6420
    -7.6370  -7.6362  -7.6359  -7.6351  -7.6216  -7.5999  -7.5992  -7.5987
    -7.5980  -7.5856  -7.5686  -7.5685  -7.5410  -7.5400  -7.5220  -7.5100
    -7.5100  -7.5088  -7.5086  -7.4909  -7.4908  -7.4878  -7.4734  -7.4731
    -7.4718  -7.4716  -3.6376  -3.6264  -3.6253  -3.6243  -3.6237  -3.6233
    -3.6227  -3.6226  -3.6220  -3.6210  -3.4258  -3.4257  -3.4130  -3.4130
    -3.2676  -3.2659  -3.2211  -3.2193   0.8596   1.0504   1.0506   1.0512
     1.0513   1.1230   1.2670   1.2671   1.2678   1.2678   1.5514   1.5514
     1.5519   1.5520   1.5524   1.5524   1.5747   1.5748   1.6186   1.6188
     1.6189   1.6193   1.6445   1.6446   1.7430   1.8393   1.8393   1.8718
     1.8720   1.8998   1.8999   1.9014   1.9017   1.9063   1.9179   1.9180
     1.9181   1.9182   2.0294   2.0794   2.0797   2.1646   2.2321   2.2321
     2.3564   2.3571   2.3602   2.3623   2.4276   2.4296   2.4653   2.4654
     2.4738   2.4895   2.4895   2.4908   2.4914   2.4921   2.4939   2.5923
     2.5924   2.5926   2.5926   2.6067   2.7047   2.7048   2.7172   2.7174
     2.7189   2.7191   2.7549   2.7578   2.7579   2.8119   2.8126   2.8127
     2.8134   2.8885   2.8888   2.8894   2.8896   2.9307   2.9308   2.9596
     3.0055   3.0058   3.0140   3.0211   3.0212   3.0546   3.0555   3.2081
     3.2108   3.2114   3.2117   3.2128   3.2770   3.2777   3.2796   3.2800
     3.3520   3.3525   3.3578   3.3582   3.3868   3.3875   3.3938   3.3949
     6.4614   6.4639   6.4657   6.4678   6.5924   6.7912   6.7913   6.8552
     6.8600   6.8701   6.9307   6.9311   7.0108   7.0134   7.0134   7.0135
     7.0144   7.0166   7.0494   7.0535   7.0639   7.0678   7.1231   7.1238
     7.1271   7.1280   7.1468   7.1512   7.3107   7.3119   7.3159   7.3167
     7.3227   7.3368   7.3368   7.3869   7.3873   7.4199   7.4210   7.4235
     7.4245   7.4322   7.5021   7.5025   7.5524   7.5551   7.5563   7.5590
     7.5758   7.8767   7.8778   7.8813   7.8822   8.0622   9.1889   9.6594
     9.6598   9.6605   9.6610   9.7636  10.1024  10.1025  10.1616  10.1618
    10.2130  10.2132  10.2139  10.2140  10.2920  10.2922  10.3219  10.3221
    10.3237  10.3248  10.7412  10.7453  10.7669  10.7673  10.9030  10.9037
    10.9056  10.9064  10.9940  10.9954  10.9966  10.9976

     occupation numbers 
     1.0000   1.0000   1.0000   1.0000   1.0000   1.0000   1.0000   1.0000
     1.0000   1.0000   1.0000   1.0000   1.0000   1.0000   1.0000   1.0000
     1.0000   1.0000   1.0000   1.0000   1.0000   1.0000   1.0000   1.0000
     1.0000   1.0000   1.0000   1.0000   1.0000   1.0000   1.0000   1.0000
     1.0000   1.0000   1.0000   1.0000   1.0000   1.0000   1.0000   1.0000
     1.0000   1.0000   1.0000   1.0000   1.0000   1.0000   1.0000   1.0000
     1.0000   1.0000   1.0000   1.0000   1.0000   1.0000   1.0000   1.0000
     1.0000   1.0000   1.0000   1.0000   1.0000   1.0000   1.0000   1.0000
     1.0000   1.0000   1.0000   1.0000   1.0000   1.0000   1.0000   1.0000
     1.0000   1.0000   1.0000   1.0000   1.0000   1.0000   1.0000   1.0000
     1.0000   1.0000   1.0000   1.0000   1.0000   1.0000   1.0000   1.0000
     1.0000   1.0000   1.0000   1.0000   1.0000   1.0000   1.0000   1.0000
     1.0000   1.0000   1.0000   1.0000   1.0000   1.0000   1.0000   1.0000
     1.0000   1.0000   1.0000   1.0000   1.0000   1.0000   1.0000   1.0000
     1.0000   1.0000   1.0000   1.0000   1.0000   1.0000   1.0000   1.0000
     1.0000   1.0000   1.0000   1.0000   1.0000   1.0000   1.0000   1.0000
     1.0000   1.0000   1.0000   1.0000   1.0000   1.0000   1.0000   1.0000
     1.0000   1.0000   1.0000   1.0000   1.0000   1.0000   1.0000   1.0000
     1.0000   1.0000   1.0000   1.0000   1.0000   1.0000   1.0000   1.0000
     1.0000   1.0000   1.0000   1.0000   1.0000   1.0000   1.0000   1.0000
     1.0000   1.0000   1.0000   1.0000   1.0000   1.0000   1.0000   1.0000
     1.0000   1.0000   1.0000   1.0000   1.0000   1.0000   1.0000   1.0000
     1.0000   1.0000   1.0000   1.0000   1.0000   1.0000   1.0000   1.0000
     1.0000   1.0000   1.0000   1.0000   1.0000   1.0000   1.0000   1.0000
     1.0000   1.0000   1.0000   1.0000   1.0000   1.0000   1.0000   1.0000
     1.0000   1.0000   1.0000   1.0000   1.0000   1.0000   1.0000   1.0000
     1.0000   1.0000   1.0000   1.0000   1.0000   1.0000   1.0000   1.0000
     1.0000   1.0000   1.0000   1.0000   1.0000   1.0000   1.0000   1.0000
     1.0000   1.0000   1.0000   1.0000   1.0000   1.0000   1.0000   1.0000
     1.0000   1.0000   1.0000   1.0000   1.0000   1.0000   1.0000   1.0000
     1.0000   1.0000   1.0000   1.0000   1.0000   1.0000   1.0000   1.0000
     1.0000   1.0000   1.0000   1.0000   1.0000   1.0000   1.0000   1.0000
     1.0000   1.0000   1.0000   1.0000   1.0000   1.0000   1.0000   1.0000
     1.0000   1.0000   1.0000   1.0000   1.0000   1.0000   1.0000   1.0000
     1.0000   1.0000   1.0000   1.0000   1.0000   1.0000   1.0000   1.0000
     1.0000   1.0000   1.0000   1.0000   1.0000   1.0000   1.0000   1.0000
     1.0000   1.0000   1.0000   1.0000   1.0000   1.0000   1.0000   1.0000
     1.0000   1.0000   1.0000   1.0000   1.0000   1.0000   1.0000   1.0000
     1.0000   1.0000   1.0000   1.0000   1.0000   1.0000   1.0000   1.0000
     1.0000   1.0000   1.0000   1.0000   1.0000   1.0000   1.0000   1.0000
     1.0000   1.0000   1.0000   1.0000   1.0000   1.0000   1.0000   1.0000
     1.0000   1.0000   1.0000   1.0000   1.0000   1.0000   1.0000   1.0000
     1.0000   1.0000   1.0000   1.0000   1.0000   1.0000   1.0000   1.0000
     1.0000   1.0000   1.0000   1.0000   1.0000   1.0000   1.0000   1.0000
     1.0000   1.0000   1.0000   1.0000   1.0000   1.0000   1.0000   1.0000
     1.0000   1.0000   1.0000   1.0000   1.0000   1.0000   1.0000   1.0000
     1.0000   1.0000   1.0000   1.0000   1.0000   1.0000   1.0000   1.0000
     1.0000   1.0000   1.0000   1.0000   1.0000   1.0000   1.0000   1.0000
     1.0000   1.0000   1.0000   1.0000   1.0000   1.0000   1.0000   1.0000
     1.0000   1.0000   1.0000   1.0000   1.0000   1.0000   1.0000   1.0000
     1.0000   1.0000   1.0000   1.0000   1.0000   1.0000   1.0000   1.0000
     1.0000   1.0000   1.0000   1.0000   1.0000   1.0000   1.0000   1.0000
     1.0000   1.0000   1.0000   1.0000   1.0000   1.0000   1.0000   1.0000
     1.0000   1.0000   1.0000   1.0000   1.0000   1.0000   1.0000   1.0000
     0.0000   0.0000   0.0000   0.0000   0.0000   0.0000   0.0000   0.0000
     0.0000   0.0000   0.0000   0.0000   0.0000   0.0000   0.0000   0.0000
     0.0000   0.0000   0.0000   0.0000   0.0000   0.0000   0.0000   0.0000
     0.0000   0.0000   0.0000   0.0000   0.0000   0.0000   0.0000   0.0000
     0.0000   0.0000   0.0000   0.0000   0.0000   0.0000   0.0000   0.0000
     0.0000   0.0000   0.0000   0.0000   0.0000   0.0000   0.0000   0.0000
     0.0000   0.0000   0.0000   0.0000   0.0000   0.0000   0.0000   0.0000
     0.0000   0.0000   0.0000   0.0000   0.0000   0.0000   0.0000   0.0000
     0.0000   0.0000   0.0000   0.0000   0.0000   0.0000   0.0000   0.0000
     0.0000   0.0000   0.0000   0.0000   0.0000   0.0000   0.0000   0.0000
     0.0000   0.0000   0.0000   0.0000   0.0000   0.0000

          k =-0.5000-0.2887 0.0000 (170366 PWs)   bands (ev):

   -40.7753 -40.7753 -40.7753 -40.7753 -40.7753 -40.7753 -40.7752 -40.7752
   -40.7752 -40.7752 -40.7752 -40.7752 -40.7752 -40.7752 -40.7752 -40.7752
   -40.7752 -40.7752 -40.7751 -40.7751 -40.7751 -40.7751 -40.7751 -40.7751
   -40.7736 -40.7736 -40.7736 -40.7735 -40.7735 -40.7735 -40.7735 -40.7735
   -40.7735 -40.7735 -40.7735 -40.7734 -40.7734 -40.7734 -40.7734 -40.7734
   -40.7734 -40.7734 -40.7734 -40.7734 -40.7733 -40.7733 -40.7733 -40.7733
   -40.7730 -40.7730 -40.7730 -40.7730 -40.7729 -40.7729 -40.7729 -40.7729
   -40.7729 -40.7729 -40.7729 -40.7729 -40.7718 -40.7718 -40.7718 -40.7718
   -40.7718 -40.7718 -40.7718 -40.7718 -40.7718 -40.7718 -40.7717 -40.7717
   -40.7717 -40.7717 -40.7717 -40.7717 -40.7717 -40.7717 -40.7717 -40.7717
   -40.7717 -40.7717 -40.7716 -40.7716 -40.7711 -40.7710 -40.7710 -40.7710
   -40.7710 -40.7710 -40.7710 -40.7709 -40.7709 -40.7709 -40.7709 -40.7709
   -40.7709 -40.7709 -40.7708 -40.7708 -40.7708 -40.7708 -40.7708 -40.7708
   -40.7708 -40.7708 -40.7707 -40.7707 -40.7703 -40.7703 -40.7703 -40.7702
   -40.7702 -40.7702 -40.7702 -40.7702 -40.7702 -40.7702 -40.7702 -40.7701
   -40.7700 -40.7700 -40.7700 -40.7700 -40.7700 -40.7700 -40.7700 -40.7700
   -40.7700 -40.7700 -40.7699 -40.7699 -40.7696 -40.7695 -40.7695 -40.7695
   -40.7695 -40.7695 -40.7695 -40.7695 -40.7695 -40.7695 -40.7695 -40.7695
   -40.7692 -40.7691 -40.7691 -40.7691 -40.7691 -40.7691 -40.7691 -40.7691
   -40.7691 -40.7691 -40.7690 -40.7690 -40.7690 -40.7690 -40.7690 -40.7690
   -40.7690 -40.7690 -40.7690 -40.7690 -40.7690 -40.7690 -40.7689 -40.7689
   -40.7686 -40.7686 -40.7685 -40.7685 -40.7685 -40.7685 -40.7685 -40.7685
   -40.7685 -40.7685 -40.7684 -40.7684 -12.9372 -12.9371 -12.9344 -12.9344
   -12.9319 -12.9319 -12.9303 -12.9303 -12.9298 -12.9298 -12.9256 -12.9255
   -12.9254 -12.9254 -12.9217 -12.9217 -12.9187 -12.9186 -12.9172 -12.9172
   -12.9164 -12.9164 -12.9154 -12.9154 -12.9143 -12.9143 -12.9141 -12.9141
   -12.9133 -12.9133 -12.9133 -12.9133 -12.9132 -12.9132 -12.9131 -12.9131
   -12.9112 -12.9112 -12.9110 -12.9110 -12.9100 -12.9099 -12.9090 -12.9089
   -12.9089 -12.9089 -12.9075 -12.9075 -12.9075 -12.9075 -12.9074 -12.9074
   -12.9073 -12.9073 -12.9071 -12.9071 -12.9067 -12.9067 -12.9066 -12.9066
   -12.9050 -12.9050 -12.9048 -12.9048 -12.9041 -12.9040 -12.9035 -12.9035
   -12.9034 -12.9033 -12.9031 -12.9031 -12.9022 -12.9021 -12.9016 -12.9016
   -12.9005 -12.9005 -12.9005 -12.9005 -12.8997 -12.8997 -12.8984 -12.8984
   -12.8978 -12.8978 -12.8977 -12.8977 -12.8966 -12.8966  -8.0125  -8.0117
    -7.9307  -7.9298  -7.8489  -7.8488  -7.7813  -7.7812  -7.6430  -7.6420
    -7.6370  -7.6362  -7.6359  -7.6351  -7.6216  -7.5999  -7.5992  -7.5987
    -7.5980  -7.5856  -7.5686  -7.5685  -7.5410  -7.5400  -7.5220  -7.5100
    -7.5100  -7.5088  -7.5086  -7.4909  -7.4907  -7.4878  -7.4734  -7.4731
    -7.4717  -7.4716  -3.6376  -3.6264  -3.6253  -3.6243  -3.6237  -3.6233
    -3.6227  -3.6226  -3.6220  -3.6210  -3.4258  -3.4257  -3.4131  -3.4130
    -3.2676  -3.2659  -3.2211  -3.2193   0.8596   1.0504   1.0506   1.0512
     1.0513   1.1230   1.2670   1.2670   1.2678   1.2678   1.5514   1.5515
     1.5519   1.5520   1.5523   1.5524   1.5747   1.5748   1.6186   1.6188
     1.6189   1.6193   1.6445   1.6446   1.7431   1.8393   1.8393   1.8718
     1.8720   1.8998   1.8999   1.9014   1.9017   1.9063   1.9178   1.9180
     1.9181   1.9182   2.0294   2.0794   2.0797   2.1646   2.2321   2.2321
     2.3564   2.3572   2.3602   2.3623   2.4276   2.4296   2.4654   2.4654
     2.4738   2.4894   2.4895   2.4908   2.4914   2.4921   2.4939   2.5923
     2.5924   2.5926   2.5926   2.6067   2.7047   2.7048   2.7172   2.7174
     2.7189   2.7192   2.7549   2.7579   2.7579   2.8119   2.8126   2.8127
     2.8134   2.8885   2.8888   2.8894   2.8897   2.9307   2.9307   2.9596
     3.0055   3.0057   3.0140   3.0211   3.0212   3.0546   3.0554   3.2081
     3.2108   3.2114   3.2117   3.2128   3.2770   3.2777   3.2796   3.2800
     3.3520   3.3525   3.3578   3.3582   3.3868   3.3875   3.3938   3.3949
     6.4614   6.4639   6.4657   6.4678   6.5924   6.7911   6.7913   6.8551
     6.8599   6.8701   6.9308   6.9311   7.0109   7.0133   7.0134   7.0135
     7.0145   7.0166   7.0494   7.0535   7.0639   7.0678   7.1231   7.1238
     7.1272   7.1280   7.1467   7.1511   7.3107   7.3118   7.3158   7.3167
     7.3227   7.3368   7.3369   7.3869   7.3874   7.4199   7.4210   7.4235
     7.4245   7.4321   7.5021   7.5025   7.5524   7.5551   7.5563   7.5590
     7.5758   7.8767   7.8778   7.8813   7.8823   8.0621   9.1889   9.6594
     9.6597   9.6605   9.6609   9.7636  10.1024  10.1025  10.1616  10.1618
    10.2130  10.2131  10.2138  10.2140  10.2920  10.2922  10.3220  10.3221
    10.3237  10.3248  10.7412  10.7453  10.7669  10.7673  10.9030  10.9037
    10.9056  10.9063  10.9940  10.9954  10.9966  10.9976

     occupation numbers 
     1.0000   1.0000   1.0000   1.0000   1.0000   1.0000   1.0000   1.0000
     1.0000   1.0000   1.0000   1.0000   1.0000   1.0000   1.0000   1.0000
     1.0000   1.0000   1.0000   1.0000   1.0000   1.0000   1.0000   1.0000
     1.0000   1.0000   1.0000   1.0000   1.0000   1.0000   1.0000   1.0000
     1.0000   1.0000   1.0000   1.0000   1.0000   1.0000   1.0000   1.0000
     1.0000   1.0000   1.0000   1.0000   1.0000   1.0000   1.0000   1.0000
     1.0000   1.0000   1.0000   1.0000   1.0000   1.0000   1.0000   1.0000
     1.0000   1.0000   1.0000   1.0000   1.0000   1.0000   1.0000   1.0000
     1.0000   1.0000   1.0000   1.0000   1.0000   1.0000   1.0000   1.0000
     1.0000   1.0000   1.0000   1.0000   1.0000   1.0000   1.0000   1.0000
     1.0000   1.0000   1.0000   1.0000   1.0000   1.0000   1.0000   1.0000
     1.0000   1.0000   1.0000   1.0000   1.0000   1.0000   1.0000   1.0000
     1.0000   1.0000   1.0000   1.0000   1.0000   1.0000   1.0000   1.0000
     1.0000   1.0000   1.0000   1.0000   1.0000   1.0000   1.0000   1.0000
     1.0000   1.0000   1.0000   1.0000   1.0000   1.0000   1.0000   1.0000
     1.0000   1.0000   1.0000   1.0000   1.0000   1.0000   1.0000   1.0000
     1.0000   1.0000   1.0000   1.0000   1.0000   1.0000   1.0000   1.0000
     1.0000   1.0000   1.0000   1.0000   1.0000   1.0000   1.0000   1.0000
     1.0000   1.0000   1.0000   1.0000   1.0000   1.0000   1.0000   1.0000
     1.0000   1.0000   1.0000   1.0000   1.0000   1.0000   1.0000   1.0000
     1.0000   1.0000   1.0000   1.0000   1.0000   1.0000   1.0000   1.0000
     1.0000   1.0000   1.0000   1.0000   1.0000   1.0000   1.0000   1.0000
     1.0000   1.0000   1.0000   1.0000   1.0000   1.0000   1.0000   1.0000
     1.0000   1.0000   1.0000   1.0000   1.0000   1.0000   1.0000   1.0000
     1.0000   1.0000   1.0000   1.0000   1.0000   1.0000   1.0000   1.0000
     1.0000   1.0000   1.0000   1.0000   1.0000   1.0000   1.0000   1.0000
     1.0000   1.0000   1.0000   1.0000   1.0000   1.0000   1.0000   1.0000
     1.0000   1.0000   1.0000   1.0000   1.0000   1.0000   1.0000   1.0000
     1.0000   1.0000   1.0000   1.0000   1.0000   1.0000   1.0000   1.0000
     1.0000   1.0000   1.0000   1.0000   1.0000   1.0000   1.0000   1.0000
     1.0000   1.0000   1.0000   1.0000   1.0000   1.0000   1.0000   1.0000
     1.0000   1.0000   1.0000   1.0000   1.0000   1.0000   1.0000   1.0000
     1.0000   1.0000   1.0000   1.0000   1.0000   1.0000   1.0000   1.0000
     1.0000   1.0000   1.0000   1.0000   1.0000   1.0000   1.0000   1.0000
     1.0000   1.0000   1.0000   1.0000   1.0000   1.0000   1.0000   1.0000
     1.0000   1.0000   1.0000   1.0000   1.0000   1.0000   1.0000   1.0000
     1.0000   1.0000   1.0000   1.0000   1.0000   1.0000   1.0000   1.0000
     1.0000   1.0000   1.0000   1.0000   1.0000   1.0000   1.0000   1.0000
     1.0000   1.0000   1.0000   1.0000   1.0000   1.0000   1.0000   1.0000
     1.0000   1.0000   1.0000   1.0000   1.0000   1.0000   1.0000   1.0000
     1.0000   1.0000   1.0000   1.0000   1.0000   1.0000   1.0000   1.0000
     1.0000   1.0000   1.0000   1.0000   1.0000   1.0000   1.0000   1.0000
     1.0000   1.0000   1.0000   1.0000   1.0000   1.0000   1.0000   1.0000
     1.0000   1.0000   1.0000   1.0000   1.0000   1.0000   1.0000   1.0000
     1.0000   1.0000   1.0000   1.0000   1.0000   1.0000   1.0000   1.0000
     1.0000   1.0000   1.0000   1.0000   1.0000   1.0000   1.0000   1.0000
     1.0000   1.0000   1.0000   1.0000   1.0000   1.0000   1.0000   1.0000
     1.0000   1.0000   1.0000   1.0000   1.0000   1.0000   1.0000   1.0000
     1.0000   1.0000   1.0000   1.0000   1.0000   1.0000   1.0000   1.0000
     1.0000   1.0000   1.0000   1.0000   1.0000   1.0000   1.0000   1.0000
     1.0000   1.0000   1.0000   1.0000   1.0000   1.0000   1.0000   1.0000
     1.0000   1.0000   1.0000   1.0000   1.0000   1.0000   1.0000   1.0000
     1.0000   1.0000   1.0000   1.0000   1.0000   1.0000   1.0000   1.0000
     1.0000   1.0000   1.0000   1.0000   1.0000   1.0000   1.0000   1.0000
     0.0000   0.0000   0.0000   0.0000   0.0000   0.0000   0.0000   0.0000
     0.0000   0.0000   0.0000   0.0000   0.0000   0.0000   0.0000   0.0000
     0.0000   0.0000   0.0000   0.0000   0.0000   0.0000   0.0000   0.0000
     0.0000   0.0000   0.0000   0.0000   0.0000   0.0000   0.0000   0.0000
     0.0000   0.0000   0.0000   0.0000   0.0000   0.0000   0.0000   0.0000
     0.0000   0.0000   0.0000   0.0000   0.0000   0.0000   0.0000   0.0000
     0.0000   0.0000   0.0000   0.0000   0.0000   0.0000   0.0000   0.0000
     0.0000   0.0000   0.0000   0.0000   0.0000   0.0000   0.0000   0.0000
     0.0000   0.0000   0.0000   0.0000   0.0000   0.0000   0.0000   0.0000
     0.0000   0.0000   0.0000   0.0000   0.0000   0.0000   0.0000   0.0000
     0.0000   0.0000   0.0000   0.0000   0.0000   0.0000

     the Fermi energy is     4.8159 ev

!    total energy              =  -36425.39744565 Ry
     total all-electron energy =  -1265045.825403 Ry
     estimated scf accuracy    <          5.0E-11 Ry
     smearing contrib. (-TS)   =      -0.00000000 Ry
     internal energy E=F+TS    =  -36425.39744565 Ry

     The total energy is F=E-TS. E is the sum of the following terms:
     one-electron contribution =   -6718.16366818 Ry
     hartree contribution      =    3753.33752754 Ry
     xc contribution           =   -2551.86325036 Ry
     ewald contribution        =   -5556.48260220 Ry
     one-center paw contrib.   =  -25352.22545245 Ry
      -> PAW hartree energy AE =      95.92462620 Ry
      -> PAW hartree energy PS =     -96.16157784 Ry
      -> PAW xc energy AE      =    -798.43158020 Ry
      -> PAW xc energy PS      =      33.31150948 Ry
      -> total E_H with PAW    =    3753.10057590 Ry
      -> total E_XC with PAW   =   -3316.98332108 Ry

     convergence has been achieved in   1 iterations


     -----------------------------------------------
     Non-local corr. energy    =      25.88797513 Ry
     -----------------------------------------------


     Forces acting on atoms (cartesian axes, Ry/au):

     atom    1 type  1   force =     0.00005870    0.00010572   -0.00000146
     atom    2 type  1   force =     0.00006052    0.00010349   -0.00000129
     atom    3 type  1   force =    -0.00000279    0.00000157   -0.00009779
     atom    4 type  1   force =    -0.00000158    0.00000094   -0.00009767
     atom    5 type  1   force =     0.00011768    0.00000098   -0.00000182
     atom    6 type  1   force =     0.00011944   -0.00000078   -0.00000199
     atom    7 type  1   force =    -0.00000303    0.00000308    0.00009338
     atom    8 type  1   force =    -0.00000066    0.00000095    0.00009388
     atom    9 type  1   force =    -0.00006082   -0.00010307   -0.00000054
     atom   10 type  1   force =    -0.00005888   -0.00010393   -0.00000076
     atom   11 type  1   force =    -0.00012211    0.00000132   -0.00000421
     atom   12 type  1   force =    -0.00012053    0.00000012   -0.00000364
     atom   13 type  1   force =    -0.00006071    0.00010847   -0.00000338
     atom   14 type  1   force =    -0.00005981    0.00010669   -0.00000245
     atom   15 type  1   force =     0.00005919   -0.00010027    0.00000003
     atom   16 type  1   force =     0.00006127   -0.00010159   -0.00000036
     atom   17 type  1   force =     0.00000144    0.00000199   -0.00000120
     atom   18 type  1   force =     0.00000319    0.00000022   -0.00000136
     atom   19 type  2   force =     0.00005580    0.00003492    0.00010068
     atom   20 type  2   force =     0.00005346    0.00003541    0.00010135
     atom   21 type  2   force =    -0.00000359   -0.00009962   -0.00000066
     atom   22 type  2   force =    -0.00000405   -0.00009830   -0.00000160
     atom   23 type  2   force =    -0.00008847    0.00004355   -0.00000297
     atom   24 type  2   force =    -0.00008968    0.00004541   -0.00000299
     atom   25 type  2   force =     0.00000395    0.00011357    0.00006034
     atom   26 type  2   force =     0.00000347    0.00011387    0.00006108
     atom   27 type  2   force =     0.00009739   -0.00005196    0.00006151
     atom   28 type  2   force =     0.00009536   -0.00004944    0.00006344
     atom   29 type  2   force =     0.00009005    0.00004861   -0.00000211
     atom   30 type  2   force =     0.00008963    0.00005022   -0.00000304
     atom   31 type  2   force =    -0.00006311    0.00003633    0.00010147
     atom   32 type  2   force =    -0.00006402    0.00003621    0.00009972
     atom   33 type  2   force =    -0.00009552   -0.00005586    0.00006213
     atom   34 type  2   force =    -0.00009660   -0.00005463    0.00006238
     atom   35 type  2   force =    -0.00000227   -0.00007054    0.00010096
     atom   36 type  2   force =    -0.00000482   -0.00006825    0.00010166
     atom   37 type  2   force =    -0.00000175    0.00006225   -0.00010050
     atom   38 type  2   force =    -0.00000547    0.00006530   -0.00010061
     atom   39 type  2   force =     0.00009650    0.00005260   -0.00005895
     atom   40 type  2   force =     0.00009499    0.00005418   -0.00006150
     atom   41 type  2   force =     0.00006464   -0.00003932   -0.00009623
     atom   42 type  2   force =     0.00006117   -0.00003649   -0.00009841
     atom   43 type  2   force =    -0.00007662   -0.00005778    0.00000596
     atom   44 type  2   force =    -0.00008031   -0.00005533    0.00000401
     atom   45 type  2   force =    -0.00009268    0.00005727   -0.00005974
     atom   46 type  2   force =    -0.00009696    0.00005994   -0.00006047
     atom   47 type  2   force =     0.00000556   -0.00010932   -0.00005957
     atom   48 type  2   force =     0.00000373   -0.00010792   -0.00006135
     atom   49 type  2   force =     0.00008732   -0.00005719    0.00000310
     atom   50 type  2   force =     0.00008586   -0.00005506    0.00000147
     atom   51 type  2   force =     0.00000601    0.00009660    0.00000720
     atom   52 type  2   force =     0.00000298    0.00010016    0.00000512
     atom   53 type  2   force =    -0.00005956   -0.00003423   -0.00010042
     atom   54 type  2   force =    -0.00006288   -0.00003103   -0.00009983
     The non-local contrib.  to forces
     atom    1 type  1   force =    -0.00029938   -0.00055411   -0.00000756
     atom    2 type  1   force =    -0.00031726   -0.00053782   -0.00000876
     atom    3 type  1   force =     0.00002286   -0.00003050    0.00143951
     atom    4 type  1   force =     0.00000305   -0.00001395    0.00143955
     atom    5 type  1   force =    -0.00060759   -0.00000991    0.00000642
     atom    6 type  1   force =    -0.00062451    0.00000475    0.00001331
     atom    7 type  1   force =     0.00001412   -0.00002339   -0.00143508
     atom    8 type  1   force =    -0.00000215   -0.00000835   -0.00143421
     atom    9 type  1   force =     0.00031644    0.00051149   -0.00001478
     atom   10 type  1   force =     0.00029972    0.00052844   -0.00001405
     atom   11 type  1   force =     0.00063350   -0.00001631    0.00003295
     atom   12 type  1   force =     0.00061421   -0.00000084    0.00002771
     atom   13 type  1   force =     0.00033411   -0.00056501    0.00001729
     atom   14 type  1   force =     0.00031637   -0.00054882    0.00000840
     atom   15 type  1   force =    -0.00029195    0.00050541   -0.00001859
     atom   16 type  1   force =    -0.00031011    0.00052092   -0.00001081
     atom   17 type  1   force =     0.00000735   -0.00001276    0.00000177
     atom   18 type  1   force =    -0.00001033    0.00000246    0.00000083
     atom   19 type  2   force =    -0.00014467   -0.00008995    0.24338248
     atom   20 type  2   force =    -0.00015085   -0.00008648    0.24338295
     atom   21 type  2   force =     0.00000624   -0.00032440    0.24313438
     atom   22 type  2   force =     0.00000001   -0.00031777    0.24313173
     atom   23 type  2   force =    -0.00028424    0.00016906    0.24312790
     atom   24 type  2   force =    -0.00029147    0.00017525    0.24312870
     atom   25 type  2   force =    -0.00000112    0.00013683    0.24321120
     atom   26 type  2   force =    -0.00000778    0.00014114    0.24321171
     atom   27 type  2   force =     0.00011723   -0.00006321    0.24321644
     atom   28 type  2   force =     0.00011199   -0.00005647    0.24321662
     atom   29 type  2   force =     0.00028805    0.00016512    0.24313224
     atom   30 type  2   force =     0.00028200    0.00017124    0.24313091
     atom   31 type  2   force =     0.00015459   -0.00009118    0.24338271
     atom   32 type  2   force =     0.00014843   -0.00008767    0.24338054
     atom   33 type  2   force =    -0.00012558   -0.00006119    0.24321372
     atom   34 type  2   force =    -0.00013203   -0.00005403    0.24321358
     atom   35 type  2   force =    -0.00000226    0.00017871    0.24338416
     atom   36 type  2   force =    -0.00000810    0.00018491    0.24338478
     atom   37 type  2   force =    -0.00002284   -0.00016171   -0.24338840
     atom   38 type  2   force =    -0.00001640   -0.00016682   -0.24338748
     atom   39 type  2   force =     0.00011494    0.00006029   -0.24321441
     atom   40 type  2   force =     0.00012206    0.00005540   -0.24321578
     atom   41 type  2   force =    -0.00016307    0.00009765   -0.24337836
     atom   42 type  2   force =    -0.00015731    0.00009184   -0.24338005
     atom   43 type  2   force =    -0.00028601   -0.00015271   -0.24313225
     atom   44 type  2   force =    -0.00028106   -0.00015755   -0.24313333
     atom   45 type  2   force =    -0.00012615    0.00007436   -0.24321801
     atom   46 type  2   force =    -0.00012036    0.00006861   -0.24321856
     atom   47 type  2   force =     0.00001086   -0.00012781   -0.24321454
     atom   48 type  2   force =     0.00001678   -0.00013488   -0.24321526
     atom   49 type  2   force =     0.00028894   -0.00015828   -0.24313740
     atom   50 type  2   force =     0.00029526   -0.00016312   -0.24313669
     atom   51 type  2   force =    -0.00000229    0.00032924   -0.24313067
     atom   52 type  2   force =     0.00000348    0.00032514   -0.24313210
     atom   53 type  2   force =     0.00014256    0.00010536   -0.24338793
     atom   54 type  2   force =     0.00014945    0.00009880   -0.24338621
     The ionic contribution  to forces
     atom    1 type  1   force =     0.00414220    0.00781726    0.00016498
     atom    2 type  1   force =     0.00447133    0.00757345    0.00077550
     atom    3 type  1   force =    -0.00071087    0.00096813   -0.06249120
     atom    4 type  1   force =    -0.00016706    0.00041323   -0.06194193
     atom    5 type  1   force =     0.00889733   -0.00000181   -0.00126180
     atom    6 type  1   force =     0.00912547   -0.00012916   -0.00112256
     atom    7 type  1   force =     0.00002741    0.00007409    0.06177267
     atom    8 type  1   force =     0.00020495   -0.00013926    0.06226125
     atom    9 type  1   force =    -0.00460830   -0.00691223    0.00023942
     atom   10 type  1   force =    -0.00440419   -0.00741739    0.00081005
     atom   11 type  1   force =    -0.00930666    0.00045123   -0.00167701
     atom   12 type  1   force =    -0.00882444    0.00014695   -0.00090535
     atom   13 type  1   force =    -0.00511955    0.00810491   -0.00021156
     atom   14 type  1   force =    -0.00461931    0.00778409    0.00077234
     atom   15 type  1   force =     0.00436378   -0.00699199    0.00037118
     atom   16 type  1   force =     0.00469844   -0.00737086    0.00055354
     atom   17 type  1   force =    -0.00022561    0.00031357   -0.00043041
     atom   18 type  1   force =     0.00012774    0.00017318    0.00019201
     atom   19 type  2   force =    -0.06122211   -0.03502414  -14.41585194
     atom   20 type  2   force =    -0.06130242   -0.03533015  -14.41657732
     atom   21 type  2   force =    -0.00077361   -0.01103077  -14.41355911
     atom   22 type  2   force =    -0.00102789   -0.01103512  -14.41461481
     atom   23 type  2   force =    -0.00785201    0.00579996  -14.41372637
     atom   24 type  2   force =    -0.00779814    0.00581981  -14.41399880
     atom   25 type  2   force =     0.00068885   -0.05688714  -14.41684953
     atom   26 type  2   force =     0.00101443   -0.05707457  -14.41718027
     atom   27 type  2   force =    -0.04905452    0.02686963  -14.41675058
     atom   28 type  2   force =    -0.04881851    0.02694042  -14.41766135
     atom   29 type  2   force =     0.00791771    0.00663851  -14.41368318
     atom   30 type  2   force =     0.00796008    0.00702006  -14.41436775
     atom   31 type  2   force =     0.06008578   -0.03467664  -14.41613727
     atom   32 type  2   force =     0.05992945   -0.03480556  -14.41694634
     atom   33 type  2   force =     0.04975744    0.02630058  -14.41705408
     atom   34 type  2   force =     0.04985278    0.02617621  -14.41766002
     atom   35 type  2   force =    -0.00010423    0.07168791  -14.41621924
     atom   36 type  2   force =    -0.00013052    0.07177197  -14.41670620
     atom   37 type  2   force =     0.00017013   -0.07071971   14.41600162
     atom   38 type  2   force =    -0.00011112   -0.07014164   14.41647716
     atom   39 type  2   force =    -0.04822080   -0.02914003   14.41686465
     atom   40 type  2   force =    -0.04815353   -0.02940184   14.41744346
     atom   41 type  2   force =    -0.06063004    0.03526479   14.41632823
     atom   42 type  2   force =    -0.06118926    0.03574874   14.41701581
     atom   43 type  2   force =    -0.00880666   -0.00548338   14.41396788
     atom   44 type  2   force =    -0.00942902   -0.00471775   14.41438478
     atom   45 type  2   force =     0.04865280   -0.02899066   14.41700891
     atom   46 type  2   force =     0.04835363   -0.02905215   14.41742916
     atom   47 type  2   force =     0.00020954    0.05615509   14.41712812
     atom   48 type  2   force =     0.00024312    0.05619399   14.41783893
     atom   49 type  2   force =     0.00959707   -0.00538517   14.41372984
     atom   50 type  2   force =     0.00968038   -0.00497704   14.41438014
     atom   51 type  2   force =     0.00045300    0.00951769   14.41388906
     atom   52 type  2   force =    -0.00021484    0.00959236   14.41459627
     atom   53 type  2   force =     0.06126458    0.03562701   14.41617916
     atom   54 type  2   force =     0.06093581    0.03589131   14.41700984
     The local contribution  to forces
     atom    1 type  1   force =    -0.00377937   -0.00715533   -0.00016205
     atom    2 type  1   force =    -0.00408886   -0.00693015   -0.00076781
     atom    3 type  1   force =     0.00068561   -0.00093677    0.06097136
     atom    4 type  1   force =     0.00016439   -0.00040072    0.06042215
     atom    5 type  1   force =    -0.00816956    0.00001479    0.00125192
     atom    6 type  1   force =    -0.00837971    0.00012862    0.00110723
     atom    7 type  1   force =    -0.00005257   -0.00005009   -0.06026751
     atom    8 type  1   force =    -0.00021289    0.00014566   -0.06075073
     atom    9 type  1   force =     0.00422543    0.00628809   -0.00022859
     atom   10 type  1   force =     0.00403893    0.00677442   -0.00079752
     atom   11 type  1   force =     0.00854077   -0.00043621    0.00163975
     atom   12 type  1   force =     0.00808019   -0.00014763    0.00087136
     atom   13 type  1   force =     0.00472821   -0.00742506    0.00018954
     atom   14 type  1   force =     0.00424783   -0.00712341   -0.00078398
     atom   15 type  1   force =    -0.00400716    0.00638609   -0.00035569
     atom   16 type  1   force =    -0.00432250    0.00674758   -0.00054225
     atom   17 type  1   force =     0.00022751   -0.00029618    0.00042696
     atom   18 type  1   force =    -0.00010682   -0.00017068   -0.00019596
     atom   19 type  2   force =     0.06127623    0.03506661   14.17780000
     atom   20 type  2   force =     0.06136270    0.03536792   14.17852322
     atom   21 type  2   force =     0.00077183    0.01127025   14.17564726
     atom   22 type  2   force =     0.00102979    0.01127139   14.17670281
     atom   23 type  2   force =     0.00806926   -0.00592520   14.17581676
     atom   24 type  2   force =     0.00801873   -0.00595019   14.17609125
     atom   25 type  2   force =    -0.00069261    0.05670288   14.17892149
     atom   26 type  2   force =    -0.00101355    0.05688794   14.17925288
     atom   27 type  2   force =     0.04888933   -0.02678865   14.17882213
     atom   28 type  2   force =     0.04866000   -0.02686362   14.17972922
     atom   29 type  2   force =    -0.00813799   -0.00676513   14.17577025
     atom   30 type  2   force =    -0.00817571   -0.00715110   14.17645750
     atom   31 type  2   force =    -0.06014843    0.03471782   14.17808064
     atom   32 type  2   force =    -0.05998857    0.03484416   14.17889164
     atom   33 type  2   force =    -0.04958996   -0.02621981   14.17912337
     atom   34 type  2   force =    -0.04968219   -0.02609887   14.17972858
     atom   35 type  2   force =     0.00010509   -0.07175704   14.17816213
     atom   36 type  2   force =     0.00013735   -0.07184818   14.17864987
     atom   37 type  2   force =    -0.00013938    0.07077276  -14.17794207
     atom   38 type  2   force =     0.00013462    0.07020515  -14.17841939
     atom   39 type  2   force =     0.04807321    0.02905460  -14.17893452
     atom   40 type  2   force =     0.04799707    0.02932087  -14.17950948
     atom   41 type  2   force =     0.06071110   -0.03530750  -14.17827625
     atom   42 type  2   force =     0.06126017   -0.03578168  -14.17895914
     atom   43 type  2   force =     0.00902258    0.00558721  -14.17605553
     atom   44 type  2   force =     0.00963479    0.00483336  -14.17646975
     atom   45 type  2   force =    -0.04848552    0.02888736  -14.17907534
     atom   46 type  2   force =    -0.04819388    0.02895298  -14.17949380
     atom   47 type  2   force =    -0.00021990   -0.05598147  -14.17919698
     atom   48 type  2   force =    -0.00026193   -0.05601135  -14.17990571
     atom   49 type  2   force =    -0.00981484    0.00549543  -14.17581246
     atom   50 type  2   force =    -0.00990741    0.00509782  -14.17646256
     atom   51 type  2   force =    -0.00044931   -0.00977033  -14.17597753
     atom   52 type  2   force =     0.00020696   -0.00984043  -14.17667740
     atom   53 type  2   force =    -0.06131426   -0.03568028  -14.17811835
     atom   54 type  2   force =    -0.06099445   -0.03593690  -14.17894905
     The core correction contribution to forces
     atom    1 type  1   force =    -0.00000263   -0.00000440    0.00000035
     atom    2 type  1   force =    -0.00000251   -0.00000444    0.00000040
     atom    3 type  1   force =    -0.00000008    0.00000031   -0.00001864
     atom    4 type  1   force =     0.00000015    0.00000007   -0.00001868
     atom    5 type  1   force =    -0.00000514    0.00000016    0.00000002
     atom    6 type  1   force =    -0.00000509    0.00000017   -0.00000010
     atom    7 type  1   force =    -0.00000005   -0.00000003    0.00001908
     atom    8 type  1   force =    -0.00000008   -0.00000005    0.00001913
     atom    9 type  1   force =     0.00000243    0.00000470    0.00000036
     atom   10 type  1   force =     0.00000249    0.00000447    0.00000041
     atom   11 type  1   force =     0.00000506    0.00000015   -0.00000013
     atom   12 type  1   force =     0.00000522    0.00000004   -0.00000017
     atom   13 type  1   force =     0.00000242   -0.00000447    0.00000019
     atom   14 type  1   force =     0.00000264   -0.00000456    0.00000026
     atom   15 type  1   force =    -0.00000268    0.00000466    0.00000038
     atom   16 type  1   force =    -0.00000262    0.00000455    0.00000033
     atom   17 type  1   force =    -0.00000015    0.00000019    0.00000017
     atom   18 type  1   force =    -0.00000002    0.00000015    0.00000015
     atom   19 type  2   force =     0.00014880    0.00008697   -0.00522985
     atom   20 type  2   force =     0.00014912    0.00008715   -0.00522954
     atom   21 type  2   force =     0.00000091   -0.00001809   -0.00522245
[...]
              0.124574740880365E+03
              0.565670103279401E+02
              0.920975335892994E+02
             -0.516034491758163E+01
              0.283020465955948E+03
              0.474384898251774E+02
             -0.436720503889787E+02
              0.516137952994131E+01
             -0.286671909488809E+02
              0.232409172120970E+03
             -0.133209984959745E+02
              0.500081407180980E+02
              0.167602428188124E+03
              0.367620594348323E+02
             -0.132275119796927E+03
             -0.192771317210591E+03
              0.202625517312913E+01
             -0.216823476505382E+03
              0.735714048679131E+02
             -0.438871364252371E+02
             -0.101841216271840E+03
              0.915761176201436E+02
              0.351216784433386E+02
              0.825953571731079E+02
              0.731153781139938E+01
              0.131546573237078E+03
             -0.214994164656783E+03
             -0.197128009422106E+02
             -0.187506455171322E+03
              0.338016714599137E+02
              0.101538636881188E+03
             -0.187559048655045E+02
             -0.706226416265628E+02
              0.151070535831573E+03
             -0.700160952047823E+02
              0.492122930167524E+02
             -0.439317797736237E+02
              0.107850463185946E+03
              0.130241652533994E+03
             -0.561888583116943E+02
              0.112051568658908E+03
              0.430043563150180E+02
             -0.115546052773159E+03
             -0.691329615346358E+02
              0.186342069665398E+03
              0.883282043126181E+02
             -0.852074407784266E+01
             -0.250925565026801E+02
              0.273894175417210E+03
              0.164245365505359E+03
              0.602029998097805E+02
             -0.175519211261062E+03
              0.274889170925498E+03
             -0.124327200345553E+03
             -0.154147930844593E+03
             -0.238740153300915E+03
              0.115048957003059E+03
             -0.218432179297571E+03
              0.947338135389830E+02
              0.155536225079874E+03
              0.115241039975103E+03
              0.244362452652604E+02
              0.687294546574014E+02
             -0.172157027411761E+03
             -0.611911678334013E+02
             -0.555203970733845E+02
              0.832186513977827E+02
              0.185648072818441E+03
              0.183045153864929E+03
              0.140126901254975E+03
             -0.345997039361168E+02
              0.497702961843866E+02
              0.698894381587775E+01
             -0.550073267633617E+02
              0.820759683508385E+02
              0.786122894983971E+02
             -0.112120051563881E+03
             -0.113537016655319E+03
             -0.520395932090586E+02
              0.120587458936555E+03
              0.613521336745916E+02
             -0.821284200672975E+02
             -0.143071680849383E+03
             -0.196554474645102E+03
              0.410833747276598E+01
              0.559422676825652E+02
             -0.760455332381584E+02
              0.279184593700741E+03
              0.262537557392784E+01
             -0.324306934308341E+03
              0.813327571318455E+02
              0.133863762337852E+03
             -0.486381181391098E+02
              0.513820051572492E+01
             -0.733584571335532E+02
              0.124529421030533E+03
              0.614520763833238E+02
             -0.163896563310316E+03
              0.194585604556192E+03
              0.132557952431927E+02
             -0.777363659707045E+02
             -0.957948286981193E+02
              0.390152329536080E+03
              0.174399859940453E+03
             -0.437537738199187E+02
              0.961955108747695E+02
             -0.190135995152143E+03
             -0.412354533107323E+02
             -0.168989965266078E+03
              0.652909035115829E+02
              0.121305908310738E+03
              0.133425908349685E+03
             -0.584702833474346E+02
              0.101188667646315E+02
              0.166215365414394E+03
              0.531656748590617E+02
              0.990743638770934E+02
              0.403116422743440E+02
             -0.223149702126948E+02
              0.413743126497025E+00
             -0.308965797926435E+02
              0.344322394474048E+02
              0.115651011563625E+02
             -0.151016001861094E+03
              0.231340051900430E+03
              0.890285446091134E+02
             -0.163919046093825E+03
             -0.120447368874142E+03
             -0.170042488104550E+03
             -0.737135791552832E+02
             -0.534447309596196E+02
             -0.134509720614776E+03
             -0.132777764129364E+03
              0.159856049492032E+03
              0.127230915937978E+03
             -0.175737637350244E+02
              0.191017188673279E+03
              0.275183449123806E+02
             -0.306986422797688E+03
              0.164828032984226E+03
              0.281331396314937E+02
              0.129456873812866E+03
              0.174910413144734E+02
              0.145973778687004E+02
              0.263542862809771E+02
              0.699413212293225E+02
             -0.128093280228521E+03
             -0.604261020623348E+02
             -0.121134828465988E+03
             -0.100246655436848E+03
              0.417714129299253E+02
             -0.111232612021594E+03
              0.535804918527456E+02
              0.735917093275151E+02
             -0.681391449511893E+02
             -0.435159659928195E+02
              0.286562278024905E+01
              0.190851137672050E+03
              0.288527451832474E+02
              0.183188947833001E+03
              0.656782556205440E+02
             -0.242182815893390E+03
             -0.803020111188183E+02
              0.825749906714132E+02
              0.190562162757138E+03
              0.314490066037006E+02
              0.783275165757890E+02
              0.175375987517888E+03
             -0.101546130294868E+03
             -0.155885315990267E+03
              0.216148718130805E+03
              0.125991840632923E+02
             -0.228444777399380E+03
              0.834945582457240E+02
              0.144616942076997E+03
             -0.369948658502794E+02
             -0.150590089156729E+03
              0.313678394550201E+02
              0.651102555601756E+01
             -0.731785642419779E+02
              0.280031571206041E+02
             -0.243903287378858E+02
              0.339890182552346E+03
              0.989502250741025E+02
             -0.143943650652568E+03
              0.425054192591997E+02
              0.206946866903596E+03
             -0.139892294451449E+03
             -0.364358085862074E+02
             -0.132330113638645E+03
              0.106033022811051E+03
              0.335260450367322E+02
              0.700963540586338E+02
              0.126930143634688E+02
              0.240384251518228E+03
             -0.136757065783411E+03
             -0.107958988625021E+03
             -0.104243258709862E+03
              0.915734546257036E+02
              0.238870211906697E+03
             -0.399509454568339E+02
              0.977506027637294E+02
             -0.138803691671684E+03
              0.266434323570853E+02
             -0.444245529830047E+02
              0.974617379755261E+01
             -0.538413057570694E+02
             -0.438884470707445E+02
             -0.431326929670959E+02
              0.355154907206097E+02
              0.693700885854383E+02
             -0.151409051513992E+03
              0.112086456549895E+03
             -0.180442323437065E+03
              0.136137646087731E+03
             -0.143899064033955E+03
              0.233247802273314E+03
              0.128151770625188E+03
              0.147495826037436E+03
              0.366283558466196E+02
              0.430570005170698E+02
             -0.322228671637204E+03
              0.522430553508476E+02
              0.118166702571186E+02
              0.307171458627290E+02
             -0.526000181373566E+02
              0.249116175011060E+03
             -0.578587365796905E+02
             -0.102966667795241E+03
             -0.241060361133765E+03
             -0.836523049711823E+02
             -0.115671317870708E+03
             -0.100573113295777E+03
             -0.226571870166485E+02
             -0.550616668125770E+02
             -0.699955939222749E+02
             -0.107298601172363E+03
              0.821193863114524E+02
              0.258836928968020E+03
              0.218661908101661E+03
             -0.388116142331055E+02
             -0.262899089908524E+03
             -0.112076377079067E+03
              0.537407427762299E+02
              0.538161510605526E+02
              0.859206222044936E+02
              0.604053077446570E+02
              0.107041186151428E+02
              0.256838083287656E+03
             -0.624377831701196E+02
              0.126205322537608E+03
              0.649337451862988E+02
             -0.874818008789589E+02
             -0.419158461482670E+02
              0.116354339409950E+03
             -0.621616993525924E+02
             -0.381942759040781E+02
             -0.283099098676353E+02
              0.149849943614243E+03
             -0.197106005377607E+03
             -0.158515907993808E+02
             -0.152118498527744E+03
             -0.323199937050317E+03
             -0.872485099084429E+00
             -0.476919434242490E+02
              0.125613720791311E+03
              0.139648523104213E+03
              0.190976165661704E+03
             -0.124218742507800E+03
              0.193135695128614E+03
              0.482503988502608E+02
             -0.716936668613065E+02
              0.257715144920982E+02
             -0.609857597495554E+02
             -0.360298880244832E+02
              0.111548685235248E+03
             -0.923891472575348E+02
              0.247786498940055E+03
             -0.660776768432170E+02
             -0.136942395212702E+03
              0.259124268266774E+03
             -0.140242403885194E+03
             -0.112939195635499E+02
              0.136348594538474E+02
              0.747689646486166E+02
             -0.109482011279927E+03
             -0.834068841462482E+02
              0.133099923108399E+03
             -0.200217721983858E+03
              0.165126574369291E+03
              0.244039581331076E+02
              0.118333948428416E+03
              0.171427195162520E+03
              0.439207080510104E+02
             -0.238238274874727E+03
             -0.103085039491871E+03
             -0.171993231674415E+03
             -0.102332071729303E+03
             -0.272509926584432E+02
              0.369089130024275E+02
             -0.802246021910712E+02
             -0.138433708912180E+01
             -0.239225312913032E+03
              0.133843943724107E+02
             -0.154272680684948E+03
              0.149524490230588E+03
             -0.876566624772886E+02
             -0.211344311518487E+02
              0.112891374290968E+03
              0.223299790569679E+02
              0.104907775689456E+03
             -0.199975562024468E+03
              0.332079658086177E+02
              0.136969872985337E+02
              0.860801210479692E+02
              0.138011897796282E+03
             -0.255011531889000E+02
             -0.157082669754124E+03
             -0.908633940399491E+02
             -0.641019545498405E+02
             -0.188993596847422E+02
              0.146500041325339E+03
              0.950893220607745E+02
             -0.963530483956974E+02
             -0.903966381317575E+02
              0.663931757686137E+02
              0.722884547843329E+02
             -0.195273926334651E+03
              0.455306424311115E+02
              0.140052126201323E+03
             -0.623415251137340E+01
              0.176446338097006E+03
              0.814757081154175E+02
              0.138839763360542E+03
              0.211055360025694E+03
              0.317813023927256E+02
             -0.287565225114002E+03
              0.396726042622724E+02
              0.310923685925673E+03
              0.226007150928032E+03
             -0.155822204114491E+03
              0.140550413505023E+02
              0.202275314559565E+03
              0.175273721802786E+03
              0.770648894691615E+02
             -0.466232482297350E+02
              0.774111266602713E+02
              0.160226883527099E+03
             -0.740711893852194E+02
             -0.476782883012421E+02
              0.108513828339653E+03
             -0.656090101167774E+01
              0.974312987132427E+02
             -0.301372549788281E+02
              0.203186434961886E+03
             -0.774834209992373E+02
              0.466195083432754E+02
             -0.861057404014155E+02
              0.100554944313164E+03
             -0.136315285052988E+02
              0.149836358756788E+03
              0.106861354726659E+02
              0.670719928173849E+02
             -0.952721999829959E+02
             -0.666376718308645E+02
             -0.339821841675363E+02
             -0.309553414352518E+02
              0.163154228082546E+03
              0.803022471065910E+02
              0.197987356312379E+03
              0.182690281469016E+03
              0.512387578517048E+02
              0.919385338227042E+01
              0.194720926383630E+03
              0.109449593672419E+03
              0.173460924617302E+00
              0.189660174121783E+03
             -0.155659594943217E+03
              0.545639852617867E+02
             -0.101422172269321E+03
             -0.275116695125798E+02
              0.262226004053647E+03
             -0.367298537072284E+02
             -0.109358371380754E+02
             -0.285376504383905E+02
              0.215414114719781E+03
             -0.462478543853813E+02
             -0.398012993563532E+01
              0.434644765153543E+03
             -0.128641041837478E+03
             -0.160584316064256E+03
             -0.160708095954209E+03
             -0.102650291649287E+03
              0.936165669786712E+02
             -0.420227995231232E+02
              0.238279476876569E+02
             -0.108795350469231E+02
              0.551108861340317E+02
              0.884716543100024E+02
              0.103068778571678E+03
              0.148383547689117E+03
              0.950417554538071E+02
              0.969103834562234E+02
             -0.179337567903570E+03
             -0.185203339099434E+03
             -0.417647842296886E+02
             -0.165574028614820E+03
              0.262838867433377E+03
              0.221380187883691E+03
              0.104413415388249E+03
              0.287863559777186E+03
             -0.143831139154437E+03
             -0.619536901499501E+02
             -0.893181002765484E+02
              0.249016373464613E+03
 
 BEEF-vdW xc energy contributions
            1 :    -2251.129817864759     
            2 :     2062.759485732602     
            3 :    -1741.574687128897     
            4 :     1373.195908534215     
            5 :    -1038.243781434564     
            6 :     786.3431805265238     
            7 :    -628.0211186421516     
            8 :     542.1772855444931     
            9 :    -492.0854927880932     
           10 :     443.0301498286394     
           11 :    -375.5399467481525     
           12 :     289.6430900401706     
           13 :    -199.4368512316701     
           14 :     122.2435862808052     
           15 :    -68.90345655087413     
           16 :     39.69709957648865     
           17 :    -26.29497047180894     
           18 :     17.22994159306609     
           19 :    -3.720727689951673     
           20 :    -16.68198806451710     
           21 :     40.00894973904497     
           22 :    -59.13518759237240     
           23 :     68.46443336204220     
           24 :    -67.32132698063424     
           25 :     60.22681059419347     
           26 :    -54.20148550142630     
           27 :     54.87079864990892     
           28 :    -63.52908900145303     
           29 :     76.58350989585188     
           30 :    -87.54860299356233     
           31 :    -193.7920236759846     
           32 :    -139.4330615010808     

     Writing all to output data dir ./PbI2.save/
 
     init_run     :      5.01s CPU      9.63s WALL (       1 calls)
     electrons    :    150.63s CPU    154.16s WALL (       1 calls)
     forces       :      5.97s CPU      6.15s WALL (       1 calls)
     stress       :     72.08s CPU     72.87s WALL (       1 calls)

     Called by init_run:
     wfcinit      :      2.30s CPU      6.63s WALL (       1 calls)
     potinit      :      0.99s CPU      1.16s WALL (       1 calls)
     hinit0       :      0.64s CPU      0.70s WALL (       1 calls)

     Called by electrons:
     c_bands      :    144.70s CPU    147.72s WALL (       2 calls)
     sum_band     :      4.76s CPU      4.97s WALL (       2 calls)
     v_of_rho     :      1.34s CPU      1.47s WALL (       2 calls)
     v_h          :      0.01s CPU      0.01s WALL (       2 calls)
     v_xc         :     20.84s CPU     21.26s WALL (      38 calls)
     newd         :      0.36s CPU      0.38s WALL (       2 calls)
     PAW_pot      :      0.31s CPU      0.32s WALL (       2 calls)
     mix_rho      :      0.00s CPU      0.00s WALL (       2 calls)
     vdW_kernel   :      0.25s CPU      0.26s WALL (       1 calls)

     Called by c_bands:
     init_us_2    :      0.41s CPU      0.42s WALL (      12 calls)
     init_us_2:cp :      0.41s CPU      0.42s WALL (      12 calls)
     cegterg      :    143.66s CPU    145.77s WALL (       5 calls)

     Called by sum_band:
     sum_band:wei :      0.00s CPU      0.00s WALL (       2 calls)
     sum_band:loo :      4.38s CPU      4.44s WALL (       2 calls)
     sum_band:buf :      0.11s CPU      0.12s WALL (       4 calls)
     sum_band:ini :      0.16s CPU      0.17s WALL (       4 calls)
     sum_band:cal :      1.65s CPU      1.67s WALL (       4 calls)
     sum_band:bec :      0.02s CPU      0.02s WALL (       4 calls)
     addusdens    :      0.33s CPU      0.47s WALL (       2 calls)
     addusd:skk   :      0.01s CPU      0.01s WALL (       4 calls)
     addusd:dgemm :      0.19s CPU      0.32s WALL (       4 calls)
     addusd:qvan2 :      0.12s CPU      0.12s WALL (       4 calls)

     Called by *egterg:
     cdiaghg      :     92.14s CPU     92.69s WALL (      62 calls)
     cegterg:over :      9.64s CPU      9.87s WALL (      62 calls)
     cegterg:upda :      5.56s CPU      5.74s WALL (      62 calls)
     cegterg:last :      2.41s CPU      2.43s WALL (       5 calls)
     h_psi        :     24.77s CPU     25.27s WALL (      67 calls)
     s_psi        :      5.34s CPU      5.40s WALL (      67 calls)
     g_psi        :      0.05s CPU      0.06s WALL (      62 calls)

     Called by h_psi:
     h_psi:calbec :      5.92s CPU      5.98s WALL (      67 calls)
     vloc_psi     :     13.30s CPU     13.49s WALL (      67 calls)
     add_vuspsi   :      5.35s CPU      5.42s WALL (      67 calls)

     General routines
     calbec       :     13.17s CPU     13.31s WALL (      81 calls)
     fft          :      9.05s CPU      9.20s WALL (    2232 calls)
     ffts         :      0.01s CPU      0.01s WALL (       4 calls)
     fftw         :     14.53s CPU     14.72s WALL (   13966 calls)
     interpolate  :      0.01s CPU      0.02s WALL (       2 calls)
 
     Parallel routines

     PAW routines
     PAW_pot      :      0.31s CPU      0.32s WALL (       2 calls)
 
     PWSCF        :   4m14.90s CPU   4m30.06s WALL

 
   This run was terminated on:   8:17:23  14Feb2024            

=------------------------------------------------------------------------------=
   JOB DONE.
=------------------------------------------------------------------------------=
