
     Program PWSCF v.7.1 starts on  6Mar2024 at  8:42:58 

     This program is part of the open-source Quantum ESPRESSO suite
     for quantum simulation of materials; please cite
         "P. Giannozzi et al., J. Phys.:Condens. Matter 21 395502 (2009);
         "P. Giannozzi et al., J. Phys.:Condens. Matter 29 465901 (2017);
         "P. Giannozzi et al., J. Chem. Phys. 152 154105 (2020);
          URL http://www.quantum-espresso.org", 
     in publications or presentations arising from this work. More details at
     http://www.quantum-espresso.org/quote

     Parallel version (MPI & OpenMP), running on     128 processor cores
     Number of MPI processes:               128
     Threads/MPI process:                     1

     MPI processes distributed on     1 nodes
     1829206 MiB available memory on the printing compute node when the environment starts
 
     Reading input from espresso.pwi
Warning: card &CELL ignored
Warning: card    CELL_DYNAMICS    = 'BFGS' ignored
Warning: card / ignored

     Current dimensions of program PWSCF are:
     Max number of different atomic species (ntypx) = 10
     Max number of k-points (npk) =  40000
     Max angular momentum in pseudopotentials (lmaxx) =  4
     file Pb.pbe-dn-kjpaw_psl.1.0.0.UPF: wavefunction(s)  6S 6P 5D renormalized
     file I.pbe-dn-kjpaw_psl.1.0.0.UPF: wavefunction(s)  5S 5P renormalized

     **************************************************************************
     Initializing libbeef V0.1.2 with the BEEF-vdW functional.
     Citation: Wellendorff et al., PRB 85, 235149 (2012).
     **************************************************************************


     IMPORTANT: XC functional enforced from input :
     Exchange-correlation= BEEF-VDW
                           (   1   4  43  14   2   0   0)
     Any further DFT definition will be discarded
     Please, verify this is what you really want

 
     R & G space division:  proc/nbgrp/npool/nimage =     128
     Subspace diagonalization in iterative solution of the eigenvalue problem:
     a serial algorithm will be used

 
     Parallelization info
     --------------------
     sticks:   dense  smooth     PW     G-vecs:    dense   smooth      PW
     Min         238     190     47                26444    18918    2361
     Max         239     191     48                26451    18927    2368
     Sum       30577   24439   6121              3385235  2422379  302703
 
     Using Slab Decomposition
 


     bravais-lattice index     =            4
     lattice parameter (alat)  =      35.6073  a.u.
     unit-cell volume          =   30614.2220 (a.u.)^3
     number of atoms/cell      =           96
     number of atomic types    =            2
     number of electrons       =      1542.00
     number of Kohn-Sham states=          925
     kinetic-energy cutoff     =      70.0000  Ry
     charge density cutoff     =     350.0000  Ry
     scf convergence threshold =      1.0E-07
     mixing beta               =       0.7000
     number of iterations used =            8  plain     mixing
     energy convergence thresh.=      1.0E-04
     force convergence thresh. =      1.0E-03
     Exchange-correlation= BEEF-VDW
                           (   1   4  43  14   2   0   0)
     nstep                     =           50


     celldm(1)=  35.607290  celldm(2)=   0.000000  celldm(3)=   0.783025
     celldm(4)=   0.000000  celldm(5)=   0.000000  celldm(6)=   0.000000

     crystal axes: (cart. coord. in units of alat)
               a(1) = (   1.000000   0.000000   0.000000 )  
               a(2) = (  -0.500000   0.866025   0.000000 )  
               a(3) = (   0.000000   0.000000   0.783025 )  

     reciprocal axes: (cart. coord. in units 2 pi/alat)
               b(1) = (  1.000000  0.577350 -0.000000 )  
               b(2) = (  0.000000  1.154701  0.000000 )  
               b(3) = (  0.000000 -0.000000  1.277098 )  


     PseudoPot. # 1 for Pb read from file:
     //group///packages/espresso/pseudo/psl_1.0.0/pslibrary.1.0.0/pbe/PSEUDOPOTENTIALS/Pb.pbe-dn-kjpaw_psl.1.0.0.UPF
     MD5 check sum: 39ab5b8a6bbd56b7735ad9f188aac93a
     Pseudo is Projector augmented-wave + core cor, Zval = 14.0
     Generated using 'atomic' code by A. Dal Corso  v.7.1
     Shape of augmentation charge: PSQ
     Using radial grid of 1281 points,  6 beta functions with: 
                l(1) =   0
                l(2) =   0
                l(3) =   1
                l(4) =   1
                l(5) =   2
                l(6) =   2
     Q(r) pseudized with 0 coefficients 


     PseudoPot. # 2 for I  read from file:
     //group///packages/espresso/pseudo/psl_1.0.0/pslibrary.1.0.0/pbe/PSEUDOPOTENTIALS/I.pbe-dn-kjpaw_psl.1.0.0.UPF
     MD5 check sum: bfa8781bc1224d19af3f3980e3fab11e
     Pseudo is Projector augmented-wave + core cor, Zval = 17.0
     Generated using 'atomic' code by A. Dal Corso  v.7.1
     Shape of augmentation charge: PSQ
     Using radial grid of 1247 points,  6 beta functions with: 
                l(1) =   0
                l(2) =   0
                l(3) =   1
                l(4) =   1
                l(5) =   2
                l(6) =   2
     Q(r) pseudized with 0 coefficients 


     atomic species   valence    mass     pseudopotential
        Pb            14.00   207.20000     Pb( 1.00)
        I             17.00   126.90447     I ( 1.00)

     No symmetry found


                                    s                        frac. trans.

      isym =  1     identity                                     

 cryst.   s( 1) = (     1          0          0      )
                  (     0          1          0      )
                  (     0          0          1      )

 cart.    s( 1) = (  1.0000000  0.0000000  0.0000000 )
                  (  0.0000000  1.0000000  0.0000000 )
                  (  0.0000000  0.0000000  1.0000000 )


     point group C_1 (1)    
     there are  1 classes
     the character table:

       E    
A      1.00

     the symmetry operations in each class and the name of the first element:

     E        1
          identity                                               

   Cartesian axes

     site n.     atom                  positions (alat units)
         1           Pb  tau(   1) = (   0.1250034   0.2164916   0.3915076  )
         2           Pb  tau(   2) = (   0.0000077   0.4329922   0.7830161  )
         3           Pb  tau(   3) = (   0.0000025   0.4329968   0.3915034  )
         4           Pb  tau(   4) = (  -0.1249932   0.6494975   0.7830119  )
         5           Pb  tau(   5) = (  -0.1249984   0.6495021   0.3914992  )
         6           Pb  tau(   6) = (  -0.2499941   0.8660028   0.7830077  )
         7           Pb  tau(   7) = (  -0.2499993   0.8660074   0.3914950  )
         8           Pb  tau(   8) = (   0.3750086   0.2164859   0.7830237  )
         9           Pb  tau(   9) = (   0.3750034   0.2164905   0.3915110  )
        10           Pb  tau(  10) = (   0.2500077   0.4329912   0.7830194  )
        11           Pb  tau(  11) = (   0.2500025   0.4329958   0.3915068  )
        12           Pb  tau(  12) = (   0.1250068   0.6494965   0.7830152  )
        13           Pb  tau(  13) = (   0.1250016   0.6495011   0.3915026  )
        14           Pb  tau(  14) = (   0.0000059   0.8660017   0.7830110  )
        15           Pb  tau(  15) = (   0.0000007   0.8660063   0.3914983  )
        16           Pb  tau(  16) = (   0.6250086   0.2164849   0.7830270  )
        17           Pb  tau(  17) = (   0.6250034   0.2164895   0.3915143  )
        18           Pb  tau(  18) = (   0.5000077   0.4329901   0.7830228  )
        19           Pb  tau(  19) = (   0.5000025   0.4329947   0.3915101  )
        20           Pb  tau(  20) = (   0.3750068   0.6494954   0.7830186  )
        21           Pb  tau(  21) = (   0.3750016   0.6495000   0.3915059  )
        22           Pb  tau(  22) = (   0.2500059   0.8660007   0.7830144  )
        23           Pb  tau(  23) = (   0.2500007   0.8660053   0.3915017  )
        24           Pb  tau(  24) = (   0.8750086   0.2164838   0.7830303  )
        25           Pb  tau(  25) = (   0.8750034   0.2164884   0.3915177  )
        26           Pb  tau(  26) = (   0.7500077   0.4329891   0.7830261  )
        27           Pb  tau(  27) = (   0.7500025   0.4329937   0.3915135  )
        28           Pb  tau(  28) = (   0.6250068   0.6494944   0.7830219  )
        29           Pb  tau(  29) = (   0.6250016   0.6494990   0.3915092  )
        30           Pb  tau(  30) = (   0.5000059   0.8659996   0.7830177  )
        31           Pb  tau(  31) = (   0.5000007   0.8660042   0.3915050  )
        32           I   tau(  32) = (   0.1250056   0.0721546   0.2909163  )
        33           I   tau(  33) = (   0.1250108   0.0721500   0.6824290  )
        34           I   tau(  34) = (   0.0000047   0.2886599   0.2909121  )
        35           I   tau(  35) = (   0.0000099   0.2886553   0.6824248  )
        36           I   tau(  36) = (  -0.1249962   0.5051652   0.2909079  )
        37           I   tau(  37) = (  -0.1249910   0.5051606   0.6824206  )
        38           I   tau(  38) = (  -0.2499972   0.7216704   0.2909037  )
        39           I   tau(  39) = (  -0.2499919   0.7216658   0.6824164  )
        40           I   tau(  40) = (   0.3750056   0.0721536   0.2909197  )
        41           I   tau(  41) = (   0.3750108   0.0721490   0.6824324  )
        42           I   tau(  42) = (   0.2500047   0.2886589   0.2909155  )
        43           I   tau(  43) = (   0.2500099   0.2886543   0.6824282  )
        44           I   tau(  44) = (   0.1250038   0.5051641   0.2909113  )
        45           I   tau(  45) = (   0.1250090   0.5051595   0.6824240  )
        46           I   tau(  46) = (   0.0000028   0.7216694   0.2909071  )
        47           I   tau(  47) = (   0.0000081   0.7216648   0.6824197  )
        48           I   tau(  48) = (   0.6250056   0.0721525   0.2909230  )
        49           I   tau(  49) = (   0.6250108   0.0721479   0.6824357  )
        50           I   tau(  50) = (   0.5000047   0.2886578   0.2909188  )
        51           I   tau(  51) = (   0.5000099   0.2886532   0.6824315  )
        52           I   tau(  52) = (   0.3750038   0.5051631   0.2909146  )
        53           I   tau(  53) = (   0.3750090   0.5051585   0.6824273  )
        54           I   tau(  54) = (   0.2500028   0.7216683   0.2909104  )
        55           I   tau(  55) = (   0.2500081   0.7216637   0.6824231  )
        56           I   tau(  56) = (   0.8750056   0.0721515   0.2909264  )
        57           I   tau(  57) = (   0.8750108   0.0721469   0.6824391  )
        58           I   tau(  58) = (   0.7500047   0.2886567   0.2909222  )
        59           I   tau(  59) = (   0.7500099   0.2886521   0.6824348  )
        60           I   tau(  60) = (   0.6250038   0.5051620   0.2909180  )
        61           I   tau(  61) = (   0.6250090   0.5051574   0.6824306  )
        62           I   tau(  62) = (   0.5000028   0.7216673   0.2909137  )
        63           I   tau(  63) = (   0.5000081   0.7216627   0.6824264  )
        64           I   tau(  64) = (  -0.0000018   0.1443297   0.1005933  )
        65           I   tau(  65) = (   0.0000034   0.1443251   0.4921060  )
        66           I   tau(  66) = (  -0.1250027   0.3608350   0.1005891  )
        67           I   tau(  67) = (  -0.1249975   0.3608304   0.4921018  )
        68           I   tau(  68) = (  -0.2500036   0.5773403   0.1005849  )
        69           I   tau(  69) = (  -0.2499984   0.5773357   0.4920975  )
        70           I   tau(  70) = (  -0.3750045   0.7938455   0.1005807  )
        71           I   tau(  71) = (  -0.3749993   0.7938409   0.4920933  )
        72           I   tau(  72) = (   0.2499982   0.1443287   0.1005966  )
        73           I   tau(  73) = (   0.2500034   0.1443241   0.4921093  )
        74           I   tau(  74) = (   0.1249973   0.3608340   0.1005924  )
        75           I   tau(  75) = (   0.1250025   0.3608294   0.4921051  )
        76           I   tau(  76) = (  -0.0000036   0.5773392   0.1005882  )
        77           I   tau(  77) = (   0.0000016   0.5773346   0.4921009  )
        78           I   tau(  78) = (  -0.1250045   0.7938445   0.1005840  )
        79           I   tau(  79) = (  -0.1249993   0.7938399   0.4920967  )
        80           I   tau(  80) = (   0.4999982   0.1443276   0.1006000  )
        81           I   tau(  81) = (   0.5000034   0.1443230   0.4921126  )
        82           I   tau(  82) = (   0.3749973   0.3608329   0.1005958  )
        83           I   tau(  83) = (   0.3750025   0.3608283   0.4921084  )
        84           I   tau(  84) = (   0.2499964   0.5773382   0.1005915  )
        85           I   tau(  85) = (   0.2500016   0.5773336   0.4921042  )
        86           I   tau(  86) = (   0.1249955   0.7938434   0.1005873  )
        87           I   tau(  87) = (   0.1250007   0.7938388   0.4921000  )
        88           I   tau(  88) = (   0.7499982   0.1443266   0.1006033  )
        89           I   tau(  89) = (   0.7500034   0.1443220   0.4921160  )
        90           I   tau(  90) = (   0.6249973   0.3608319   0.1005991  )
        91           I   tau(  91) = (   0.6250025   0.3608273   0.4921118  )
        92           I   tau(  92) = (   0.4999964   0.5773371   0.1005949  )
        93           I   tau(  93) = (   0.5000016   0.5773325   0.4921076  )
        94           I   tau(  94) = (   0.3749955   0.7938424   0.1005907  )
        95           I   tau(  95) = (   0.3750007   0.7938378   0.4921034  )
        96           I   tau(  96) = (   0.1250086   0.2164870   0.7830203  )

   Crystallographic axes

     site n.     atom                  positions (cryst. coord.)
         1           Pb  tau(   1) = (  0.2499949  0.2499829  0.4999935  )
         2           Pb  tau(   2) = (  0.2499959  0.4999764  0.9999882  )
         3           Pb  tau(   3) = (  0.2499933  0.4999817  0.4999882  )
         4           Pb  tau(   4) = (  0.2499944  0.7499751  0.9999828  )
         5           Pb  tau(   5) = (  0.2499918  0.7499804  0.4999828  )
         6           Pb  tau(   6) = (  0.2499928  0.9999739  0.9999774  )
         7           Pb  tau(   7) = (  0.2499903  0.9999792  0.4999774  )
         8           Pb  tau(   8) = (  0.4999968  0.2499764  0.9999978  )
         9           Pb  tau(   9) = (  0.4999943  0.2499817  0.4999978  )
        10           Pb  tau(  10) = (  0.4999953  0.4999752  0.9999924  )
        11           Pb  tau(  11) = (  0.4999927  0.4999805  0.4999924  )
        12           Pb  tau(  12) = (  0.4999938  0.7499739  0.9999871  )
        13           Pb  tau(  13) = (  0.4999912  0.7499792  0.4999871  )
        14           Pb  tau(  14) = (  0.4999922  0.9999727  0.9999817  )
        15           Pb  tau(  15) = (  0.4999896  0.9999780  0.4999817  )
        16           Pb  tau(  16) = (  0.7499962  0.2499752  1.0000021  )
        17           Pb  tau(  17) = (  0.7499936  0.2499805  0.5000021  )
        18           Pb  tau(  18) = (  0.7499947  0.4999739  0.9999967  )
        19           Pb  tau(  19) = (  0.7499921  0.4999793  0.4999967  )
        20           Pb  tau(  20) = (  0.7499932  0.7499727  0.9999913  )
        21           Pb  tau(  21) = (  0.7499906  0.7499780  0.4999913  )
        22           Pb  tau(  22) = (  0.7499916  0.9999714  0.9999860  )
        23           Pb  tau(  23) = (  0.7499890  0.9999767  0.4999860  )
        24           Pb  tau(  24) = (  0.9999956  0.2499740  1.0000064  )
        25           Pb  tau(  25) = (  0.9999930  0.2499793  0.5000064  )
        26           Pb  tau(  26) = (  0.9999941  0.4999727  1.0000010  )
        27           Pb  tau(  27) = (  0.9999915  0.4999780  0.5000010  )
        28           Pb  tau(  28) = (  0.9999926  0.7499715  0.9999956  )
        29           Pb  tau(  29) = (  0.9999900  0.7499768  0.4999956  )
        30           Pb  tau(  30) = (  0.9999910  0.9999702  0.9999902  )
        31           Pb  tau(  31) = (  0.9999884  0.9999755  0.4999902  )
        32           I   tau(  32) = (  0.1666641  0.0833170  0.3715286  )
        33           I   tau(  33) = (  0.1666667  0.0833117  0.8715286  )
        34           I   tau(  34) = (  0.1666625  0.3333157  0.3715233  )
        35           I   tau(  35) = (  0.1666651  0.3333104  0.8715233  )
        36           I   tau(  36) = (  0.1666610  0.5833145  0.3715179  )
        37           I   tau(  37) = (  0.1666636  0.5833092  0.8715179  )
        38           I   tau(  38) = (  0.1666595  0.8333132  0.3715125  )
        39           I   tau(  39) = (  0.1666621  0.8333079  0.8715125  )
        40           I   tau(  40) = (  0.4166635  0.0833158  0.3715329  )
        41           I   tau(  41) = (  0.4166661  0.0833105  0.8715329  )
        42           I   tau(  42) = (  0.4166619  0.3333145  0.3715275  )
        43           I   tau(  43) = (  0.4166645  0.3333092  0.8715275  )
        44           I   tau(  44) = (  0.4166604  0.5833133  0.3715222  )
        45           I   tau(  45) = (  0.4166630  0.5833080  0.8715221  )
        46           I   tau(  46) = (  0.4166589  0.8333120  0.3715168  )
        47           I   tau(  47) = (  0.4166614  0.8333067  0.8715168  )
        48           I   tau(  48) = (  0.6666629  0.0833146  0.3715372  )
        49           I   tau(  49) = (  0.6666655  0.0833093  0.8715372  )
        50           I   tau(  50) = (  0.6666613  0.3333133  0.3715318  )
        51           I   tau(  51) = (  0.6666639  0.3333080  0.8715318  )
        52           I   tau(  52) = (  0.6666598  0.5833121  0.3715264  )
        53           I   tau(  53) = (  0.6666624  0.5833068  0.8715264  )
        54           I   tau(  54) = (  0.6666582  0.8333108  0.3715210  )
        55           I   tau(  55) = (  0.6666608  0.8333055  0.8715210  )
        56           I   tau(  56) = (  0.9166623  0.0833134  0.3715414  )
        57           I   tau(  57) = (  0.9166648  0.0833080  0.8715414  )
        58           I   tau(  58) = (  0.9166607  0.3333121  0.3715361  )
        59           I   tau(  59) = (  0.9166633  0.3333068  0.8715361  )
        60           I   tau(  60) = (  0.9166592  0.5833108  0.3715307  )
        61           I   tau(  61) = (  0.9166618  0.5833055  0.8715307  )
        62           I   tau(  62) = (  0.9166576  0.8333096  0.3715253  )
        63           I   tau(  63) = (  0.9166602  0.8333043  0.8715253  )
        64           I   tau(  64) = (  0.0833270  0.1666576  0.1284675  )
        65           I   tau(  65) = (  0.0833296  0.1666523  0.6284675  )
        66           I   tau(  66) = (  0.0833255  0.4166564  0.1284621  )
        67           I   tau(  67) = (  0.0833281  0.4166511  0.6284621  )
        68           I   tau(  68) = (  0.0833239  0.6666551  0.1284567  )
        69           I   tau(  69) = (  0.0833265  0.6666498  0.6284567  )
        70           I   tau(  70) = (  0.0833224  0.9166539  0.1284513  )
        71           I   tau(  71) = (  0.0833250  0.9166486  0.6284513  )
        72           I   tau(  72) = (  0.3333264  0.1666564  0.1284717  )
        73           I   tau(  73) = (  0.3333290  0.1666511  0.6284717  )
        74           I   tau(  74) = (  0.3333249  0.4166552  0.1284664  )
        75           I   tau(  75) = (  0.3333275  0.4166499  0.6284663  )
        76           I   tau(  76) = (  0.3333233  0.6666539  0.1284610  )
        77           I   tau(  77) = (  0.3333259  0.6666486  0.6284610  )
        78           I   tau(  78) = (  0.3333218  0.9166527  0.1284556  )
        79           I   tau(  79) = (  0.3333244  0.9166473  0.6284556  )
        80           I   tau(  80) = (  0.5833258  0.1666552  0.1284760  )
        81           I   tau(  81) = (  0.5833284  0.1666499  0.6284760  )
        82           I   tau(  82) = (  0.5833243  0.4166539  0.1284706  )
        83           I   tau(  83) = (  0.5833269  0.4166486  0.6284706  )
        84           I   tau(  84) = (  0.5833227  0.6666527  0.1284652  )
        85           I   tau(  85) = (  0.5833253  0.6666474  0.6284652  )
        86           I   tau(  86) = (  0.5833212  0.9166514  0.1284599  )
        87           I   tau(  87) = (  0.5833238  0.9166461  0.6284599  )
        88           I   tau(  88) = (  0.8333252  0.1666540  0.1284803  )
        89           I   tau(  89) = (  0.8333278  0.1666487  0.6284803  )
        90           I   tau(  90) = (  0.8333237  0.4166527  0.1284749  )
        91           I   tau(  91) = (  0.8333262  0.4166474  0.6284749  )
        92           I   tau(  92) = (  0.8333221  0.6666515  0.1284695  )
        93           I   tau(  93) = (  0.8333247  0.6666462  0.6284695  )
        94           I   tau(  94) = (  0.8333206  0.9166502  0.1284641  )
        95           I   tau(  95) = (  0.8333232  0.9166449  0.6284641  )
        96           I   tau(  96) = (  0.2499975  0.2499776  0.9999935  )

     number of k points=     1  Gaussian smearing, width (Ry)=  0.0100
                       cart. coord. in units 2pi/alat
        k(    1) = (   0.0000000   0.0000000   0.0000000), wk =   2.0000000

                       cryst. coord.
        k(    1) = (   0.0000000   0.0000000   0.0000000), wk =   2.0000000

     Dense  grid:  3385235 G-vectors     FFT dimensions: ( 216, 216, 180)

     Smooth grid:  2422379 G-vectors     FFT dimensions: ( 192, 192, 150)

     Dynamical RAM for                 wfc:      33.38 MB

     Dynamical RAM for     wfc (w. buffer):      33.38 MB

     Dynamical RAM for           str. fact:       0.81 MB

     Dynamical RAM for           local pot:       0.00 MB

     Dynamical RAM for          nlocal pot:      62.36 MB

     Dynamical RAM for                qrad:       3.00 MB

     Dynamical RAM for          rho,v,vnew:       3.35 MB

     Dynamical RAM for               rhoin:       1.12 MB

     Dynamical RAM for            rho*nmix:       6.46 MB

     Dynamical RAM for           G-vectors:       1.66 MB

     Dynamical RAM for          h,s,v(r/c):     626.68 MB

     Dynamical RAM for          <psi|beta>:      24.39 MB

     Dynamical RAM for                 psi:     133.52 MB

     Dynamical RAM for                hpsi:     133.52 MB

     Dynamical RAM for                spsi:     133.52 MB

     Dynamical RAM for      wfcinit/wfcrot:      86.35 MB

     Dynamical RAM for           addusdens:     101.31 MB

     Dynamical RAM for          addusforce:     153.42 MB

     Dynamical RAM for         addusstress:      81.13 MB

     Estimated static dynamical RAM per process >     110.44 MB

     Estimated max dynamical RAM per process >       1.14 GB

     Estimated total dynamical RAM >     146.07 GB

     Atomic positions and unit cell read from directory:
     ./PbI2.save/
     Atomic positions from file used, from input discarded
 

     Check: negative core charge=   -0.000001

     The initial density is read from file :
     ./PbI2.save/charge-density



     %%%%%%%%%%%%%%%%%%%%%%%%%%%%%%%%%%%%%%%%%%%%%%%%%%%%%%%%%%%%%%%%%%%%%%%%
     %                                                                      %
     % You are using vdW-DF, which was implemented by the Thonhauser group. %
     % Please cite the following two papers that made this development      %
     % possible and the two reviews that describe the various versions:     %
     %                                                                      %
     %   T. Thonhauser et al., PRL 115, 136402 (2015).                      %
     %   T. Thonhauser et al., PRB 76, 125112 (2007).                       %
     %   K. Berland et al., Rep. Prog. Phys. 78, 066501 (2015).             %
     %   D.C. Langreth et al., J. Phys.: Condens. Matter 21, 084203 (2009). %
     %                                                                      %
     % If you are calculating stress with vdW-DF, please also cite:         %
     %                                                                      %
     %   R. Sabatini et al., J. Phys.: Condens. Matter 24, 424209 (2012).   %
     %                                                                      %
     %%%%%%%%%%%%%%%%%%%%%%%%%%%%%%%%%%%%%%%%%%%%%%%%%%%%%%%%%%%%%%%%%%%%%%%%

     %%%%%%%%%%%%%%%%%%%%%%%%%%%%%%%%%%%%%%%%%%%%%%%%%%%%%%%%%%%%%%%%%%%%%%%%
     %                                                                      %
     %  vdW-DF NEWS:                                                        %
     %                                                                      %
     %  * vdW-DF3 is now available. DOI: 10.1021/acs.jctc.0c00471           %
     %    use with input_dft = 'vdW-DF3-opt1' or 'vdW-DF3-opt2'             %
     %                                                                      %
     %  * Unscreened and range-separated vdW-DF hybrid functionals          %
     %    DOI: 10.1063/1.4986522 and 10.1088/1361-648X/ac2ad2               %
     %    use with input_dft = 'vdW-DF-cx0' (etc) and 'vdW-DF-ahcx'         %
     %                                                                      %
     %%%%%%%%%%%%%%%%%%%%%%%%%%%%%%%%%%%%%%%%%%%%%%%%%%%%%%%%%%%%%%%%%%%%%%%%


     Carrying out vdW-DF run using the following parameters:
     Nqs    =  20  Npoints =  1024  r_max =  100.000
     q_mesh =  0.00001000  0.04494208  0.09755937  0.15916263
               0.23128650  0.31572767  0.41458969  0.53033537
               0.66584808  0.82450364  1.01025438  1.22772762
               1.48234092  1.78043706  2.12944203  2.53805004
               3.01644009  3.57652955  4.23227104  5.00000000


     -----------------------------------------------
     Non-local corr. energy    =      46.31204909 Ry
     -----------------------------------------------

     Cannot read wfcs: file not found
     Starting wfcs are  864 randomized atomic wfcs +   61 random wfcs
     Checking if some PAW data can be deallocated... 
       PAW data deallocated on   66 nodes for type:  1
       PAW data deallocated on   62 nodes for type:  2

     total cpu time spent up to now is       17.2 secs

     Self-consistent Calculation

     iteration #  1     ecut=    70.00 Ry     beta= 0.70
     Davidson diagonalization with overlap

---- Real-time Memory Report at c_bands before calling an iterative solver
           507 MiB given to the printing process from OS
             0 MiB allocation reported by mallinfo(arena+hblkhd)
       1806886 MiB available memory on the node where the printing process lives
------------------
     c_bands:  2 eigenvalues not converged
     ethr =  1.00E-05,  avg # of iterations = 20.0


     -----------------------------------------------
     Non-local corr. energy    =      46.29936465 Ry
     -----------------------------------------------


     total cpu time spent up to now is      441.6 secs

     total energy              =  -64415.89448644 Ry
     estimated scf accuracy    <      10.37478381 Ry

     iteration #  2     ecut=    70.00 Ry     beta= 0.70
     Davidson diagonalization with overlap

---- Real-time Memory Report at c_bands before calling an iterative solver
          1272 MiB given to the printing process from OS
             0 MiB allocation reported by mallinfo(arena+hblkhd)
       1798857 MiB available memory on the node where the printing process lives
------------------
     ethr =  6.73E-04,  avg # of iterations =  8.0


     -----------------------------------------------
     Non-local corr. energy    =      46.25875993 Ry
     -----------------------------------------------


     total cpu time spent up to now is      608.7 secs

     total energy              =  -64389.11117234 Ry
     estimated scf accuracy    <     298.98585331 Ry

     iteration #  3     ecut=    70.00 Ry     beta= 0.70
     Davidson diagonalization with overlap

---- Real-time Memory Report at c_bands before calling an iterative solver
          1272 MiB given to the printing process from OS
             0 MiB allocation reported by mallinfo(arena+hblkhd)
       1798759 MiB available memory on the node where the printing process lives
------------------
     ethr =  6.73E-04,  avg # of iterations = 11.0


     -----------------------------------------------
     Non-local corr. energy    =      46.25292120 Ry
     -----------------------------------------------


     total cpu time spent up to now is      776.6 secs

     total energy              =  -64419.72913227 Ry
     estimated scf accuracy    <      14.57922385 Ry

     iteration #  4     ecut=    70.00 Ry     beta= 0.70
     Davidson diagonalization with overlap

---- Real-time Memory Report at c_bands before calling an iterative solver
          1272 MiB given to the printing process from OS
             0 MiB allocation reported by mallinfo(arena+hblkhd)
       1798642 MiB available memory on the node where the printing process lives
------------------
     ethr =  6.73E-04,  avg # of iterations = 11.0


     -----------------------------------------------
     Non-local corr. energy    =      46.30197134 Ry
     -----------------------------------------------


     total cpu time spent up to now is      910.2 secs

     total energy              =  -64421.98546266 Ry
     estimated scf accuracy    <       1.22012187 Ry

     iteration #  5     ecut=    70.00 Ry     beta= 0.70
     Davidson diagonalization with overlap

---- Real-time Memory Report at c_bands before calling an iterative solver
          1272 MiB given to the printing process from OS
             0 MiB allocation reported by mallinfo(arena+hblkhd)
       1798512 MiB available memory on the node where the printing process lives
------------------
     ethr =  7.91E-05,  avg # of iterations = 20.0


     -----------------------------------------------
     Non-local corr. energy    =      46.31428109 Ry
     -----------------------------------------------


     total cpu time spent up to now is     1169.3 secs

     total energy              =  -64422.19324469 Ry
     estimated scf accuracy    <       0.13185169 Ry

     iteration #  6     ecut=    70.00 Ry     beta= 0.70
     Davidson diagonalization with overlap

---- Real-time Memory Report at c_bands before calling an iterative solver
          1272 MiB given to the printing process from OS
             0 MiB allocation reported by mallinfo(arena+hblkhd)
       1798373 MiB available memory on the node where the printing process lives
------------------
     ethr =  8.55E-06,  avg # of iterations = 17.0


     -----------------------------------------------
     Non-local corr. energy    =      46.31215966 Ry
     -----------------------------------------------


     total cpu time spent up to now is     1448.5 secs

     total energy              =  -64422.21987533 Ry
     estimated scf accuracy    <       0.05505467 Ry

     iteration #  7     ecut=    70.00 Ry     beta= 0.70
     Davidson diagonalization with overlap

---- Real-time Memory Report at c_bands before calling an iterative solver
          1272 MiB given to the printing process from OS
             0 MiB allocation reported by mallinfo(arena+hblkhd)
       1795276 MiB available memory on the node where the printing process lives
------------------
     c_bands:  3 eigenvalues not converged
     ethr =  3.57E-06,  avg # of iterations = 20.0


     -----------------------------------------------
     Non-local corr. energy    =      46.31196142 Ry
     -----------------------------------------------


     total cpu time spent up to now is     1706.3 secs

     total energy              =  -64422.23148788 Ry
     estimated scf accuracy    <       0.00955648 Ry

     iteration #  8     ecut=    70.00 Ry     beta= 0.70
     Davidson diagonalization with overlap

---- Real-time Memory Report at c_bands before calling an iterative solver
          1272 MiB given to the printing process from OS
             0 MiB allocation reported by mallinfo(arena+hblkhd)
       1798109 MiB available memory on the node where the printing process lives
------------------
     c_bands:  2 eigenvalues not converged
     ethr =  6.20E-07,  avg # of iterations = 20.0


     -----------------------------------------------
     Non-local corr. energy    =      46.31388242 Ry
     -----------------------------------------------


     total cpu time spent up to now is     1987.9 secs

     total energy              =  -64422.23356921 Ry
     estimated scf accuracy    <       0.00475890 Ry

     iteration #  9     ecut=    70.00 Ry     beta= 0.70
     Davidson diagonalization with overlap

---- Real-time Memory Report at c_bands before calling an iterative solver
          1272 MiB given to the printing process from OS
             0 MiB allocation reported by mallinfo(arena+hblkhd)
       1797976 MiB available memory on the node where the printing process lives
------------------
     c_bands:  3 eigenvalues not converged
     ethr =  3.09E-07,  avg # of iterations = 20.0


     -----------------------------------------------
     Non-local corr. energy    =      46.31415410 Ry
     -----------------------------------------------


     total cpu time spent up to now is     2234.7 secs

     total energy              =  -64422.23431655 Ry
     estimated scf accuracy    <       0.00251784 Ry

     iteration # 10     ecut=    70.00 Ry     beta= 0.70
     Davidson diagonalization with overlap

---- Real-time Memory Report at c_bands before calling an iterative solver
          1272 MiB given to the printing process from OS
             0 MiB allocation reported by mallinfo(arena+hblkhd)
       1797849 MiB available memory on the node where the printing process lives
------------------
     c_bands:  2 eigenvalues not converged
     ethr =  1.63E-07,  avg # of iterations = 20.0


     -----------------------------------------------
     Non-local corr. energy    =      46.31482223 Ry
     -----------------------------------------------


     total cpu time spent up to now is     2447.2 secs

     total energy              =  -64422.23464517 Ry
     estimated scf accuracy    <       0.00016180 Ry

     iteration # 11     ecut=    70.00 Ry     beta= 0.70
     Davidson diagonalization with overlap

---- Real-time Memory Report at c_bands before calling an iterative solver
          1272 MiB given to the printing process from OS
             0 MiB allocation reported by mallinfo(arena+hblkhd)
       1797814 MiB available memory on the node where the printing process lives
------------------
     c_bands:  1 eigenvalues not converged
     ethr =  1.05E-08,  avg # of iterations = 20.0


     -----------------------------------------------
     Non-local corr. energy    =      46.31561889 Ry
     -----------------------------------------------


     total cpu time spent up to now is     2870.1 secs

     total energy              =  -64422.23469906 Ry
     estimated scf accuracy    <       0.00022868 Ry

     iteration # 12     ecut=    70.00 Ry     beta= 0.70
     Davidson diagonalization with overlap

---- Real-time Memory Report at c_bands before calling an iterative solver
          1273 MiB given to the printing process from OS
             0 MiB allocation reported by mallinfo(arena+hblkhd)
       1797743 MiB available memory on the node where the printing process lives
------------------
     c_bands:  1 eigenvalues not converged
     ethr =  1.05E-08,  avg # of iterations = 20.0


     -----------------------------------------------
     Non-local corr. energy    =      46.31575103 Ry
     -----------------------------------------------


     total cpu time spent up to now is     3073.8 secs

     total energy              =  -64422.23472268 Ry
     estimated scf accuracy    <       0.00004358 Ry

     iteration # 13     ecut=    70.00 Ry     beta= 0.70
     Davidson diagonalization with overlap

---- Real-time Memory Report at c_bands before calling an iterative solver
          1273 MiB given to the printing process from OS
             0 MiB allocation reported by mallinfo(arena+hblkhd)
       1797744 MiB available memory on the node where the printing process lives
------------------
     ethr =  2.83E-09,  avg # of iterations = 18.0


     -----------------------------------------------
     Non-local corr. energy    =      46.31582859 Ry
     -----------------------------------------------


     total cpu time spent up to now is     3261.3 secs

     total energy              =  -64422.23472828 Ry
     estimated scf accuracy    <       0.00002607 Ry

     iteration # 14     ecut=    70.00 Ry     beta= 0.70
     Davidson diagonalization with overlap

---- Real-time Memory Report at c_bands before calling an iterative solver
          1273 MiB given to the printing process from OS
             0 MiB allocation reported by mallinfo(arena+hblkhd)
       1797745 MiB available memory on the node where the printing process lives
------------------
     ethr =  1.69E-09,  avg # of iterations = 20.0


     -----------------------------------------------
     Non-local corr. energy    =      46.31587490 Ry
     -----------------------------------------------


     total cpu time spent up to now is     3469.5 secs

     total energy              =  -64422.23473087 Ry
     estimated scf accuracy    <       0.00000223 Ry

     iteration # 15     ecut=    70.00 Ry     beta= 0.70
     Davidson diagonalization with overlap

---- Real-time Memory Report at c_bands before calling an iterative solver
          1273 MiB given to the printing process from OS
             0 MiB allocation reported by mallinfo(arena+hblkhd)
       1797729 MiB available memory on the node where the printing process lives
------------------
     c_bands:  2 eigenvalues not converged
     ethr =  1.44E-10,  avg # of iterations = 20.0


     -----------------------------------------------
     Non-local corr. energy    =      46.31588770 Ry
     -----------------------------------------------


     total cpu time spent up to now is     3771.5 secs

     total energy              =  -64422.23473143 Ry
     estimated scf accuracy    <       0.00000059 Ry

     iteration # 16     ecut=    70.00 Ry     beta= 0.70
     Davidson diagonalization with overlap

---- Real-time Memory Report at c_bands before calling an iterative solver
          1273 MiB given to the printing process from OS
             0 MiB allocation reported by mallinfo(arena+hblkhd)
       1797445 MiB available memory on the node where the printing process lives
------------------
     c_bands:  3 eigenvalues not converged
     ethr =  3.80E-11,  avg # of iterations = 20.0


     -----------------------------------------------
     Non-local corr. energy    =      46.31587865 Ry
     -----------------------------------------------


     total cpu time spent up to now is     4033.3 secs

     End of self-consistent calculation

          k = 0.0000 0.0000 0.0000 (302703 PWs)   bands (ev):

   -41.0730 -41.0730 -41.0729 -41.0729 -41.0729 -41.0728 -41.0728 -41.0728
   -41.0727 -41.0727 -41.0727 -41.0727 -41.0722 -41.0722 -41.0721 -41.0721
   -41.0721 -41.0720 -41.0712 -41.0712 -41.0711 -41.0711 -41.0711 -41.0711
   -41.0710 -41.0710 -41.0710 -41.0709 -41.0709 -41.0709 -41.0690 -41.0690
   -41.0688 -41.0688 -41.0687 -41.0687 -41.0679 -41.0679 -41.0677 -41.0677
   -41.0676 -41.0676 -41.0661 -41.0661 -41.0659 -41.0658 -41.0658 -41.0658
   -41.0627 -41.0627 -41.0625 -41.0624 -41.0624 -41.0624 -41.0620 -41.0620
   -41.0617 -41.0617 -41.0617 -41.0616 -41.0530 -41.0530 -41.0530 -41.0529
   -41.0529 -41.0529 -41.0529 -41.0528 -41.0527 -41.0527 -41.0526 -41.0526
   -41.0525 -41.0525 -41.0525 -41.0524 -41.0524 -41.0524 -41.0524 -41.0524
   -41.0522 -41.0522 -41.0522 -41.0521 -41.0511 -41.0511 -41.0511 -41.0510
   -41.0510 -41.0510 -41.0510 -41.0510 -41.0509 -41.0509 -41.0509 -41.0508
   -41.0508 -41.0508 -41.0508 -41.0507 -41.0506 -41.0506 -41.0505 -41.0504
   -41.0504 -41.0504 -41.0504 -41.0503 -41.0503 -41.0502 -41.0502 -41.0502
   -41.0502 -41.0502 -41.0502 -41.0502 -41.0500 -41.0500 -41.0500 -41.0500
   -41.0499 -41.0499 -41.0498 -41.0498 -41.0498 -41.0498 -41.0497 -41.0497
   -41.0496 -41.0495 -41.0495 -41.0495 -41.0490 -41.0490 -41.0490 -41.0490
   -41.0488 -41.0488 -41.0487 -41.0487 -41.0487 -41.0487 -41.0484 -41.0484
   -41.0479 -41.0479 -41.0479 -41.0479 -41.0477 -41.0477 -40.9811 -40.9811
   -40.9810 -40.9810 -40.9804 -40.9804 -40.9803 -40.9803 -40.9798 -40.9797
   -40.6748 -40.6748 -40.6747 -40.6746 -40.6746 -40.6746 -40.6746 -40.6745
   -40.6744 -40.6744 -40.6743 -40.6743 -40.6659 -40.6658 -40.6657 -40.6656
   -40.6656 -40.6656 -40.6606 -40.6605 -40.6604 -40.6603 -40.6603 -40.6603
   -40.6587 -40.6586 -40.6585 -40.6584 -40.6584 -40.6584 -40.6581 -40.6581
   -40.6580 -40.6580 -40.6561 -40.6560 -40.6560 -40.6560 -40.6552 -40.6551
   -40.6291 -40.6291 -40.6291 -40.6290 -40.6289 -40.6289 -40.6281 -40.6281
   -40.6280 -40.6280 -40.6279 -40.6279 -40.6264 -40.6264 -40.6263 -40.6263
   -40.6262 -40.6262 -40.6239 -40.6239 -40.6238 -40.6238 -40.6237 -40.6237
   -40.6231 -40.6231 -40.6230 -40.6230 -40.6229 -40.6229 -40.5494 -40.5494
   -40.5494 -40.5494 -40.5492 -40.5492 -40.5492 -40.5491 -40.5491 -40.5491
   -40.5490 -40.5490 -40.5480 -40.5480 -40.5480 -40.5480 -40.5478 -40.5478
   -40.5478 -40.5477 -40.5477 -40.5476 -40.5476 -40.5476 -40.5284 -40.5283
   -40.5283 -40.5283 -40.5281 -40.5281 -40.5281 -40.5280 -40.5280 -40.5280
   -40.5280 -40.5280 -40.5190 -40.5190 -40.5190 -40.5190 -40.5188 -40.5188
   -40.5188 -40.5187 -40.5187 -40.5187 -40.5186 -40.5186 -40.5152 -40.5152
   -40.5152 -40.5152 -40.5150 -40.5150 -40.5150 -40.5149 -40.5149 -40.5148
   -40.5148 -40.5148 -40.1703 -40.1703 -40.1702 -40.1700 -40.1699 -40.1699
   -40.1691 -40.1690 -40.1689 -40.1687 -40.1687 -40.1686 -40.0822 -40.0821
   -40.0820 -40.0818 -40.0818 -40.0817 -40.0808 -40.0807 -40.0806 -40.0804
   -40.0804 -40.0803 -40.0531 -40.0531 -40.0529 -40.0527 -40.0527 -40.0526
   -38.1403 -38.1396 -38.1394 -38.1336 -38.1335 -13.2350 -13.2349 -13.2278
   -13.2232 -13.2230 -13.2229 -13.2201 -13.2200 -13.2194 -13.2178 -13.2176
   -13.2155 -13.2154 -13.2139 -13.2139 -13.2137 -13.2119 -13.2111 -13.2110
   -13.2102 -13.2083 -13.2081 -13.2064 -13.2053 -13.2053 -13.2052 -13.2051
   -13.2045 -13.2045 -13.2033 -13.2028 -13.2027 -13.2027 -13.2026 -13.2026
   -13.2002 -13.2002 -13.1997 -13.1996 -13.1995 -13.1985 -13.1971 -13.1967
   -13.1967 -13.1960 -13.1958 -13.1955 -13.1949 -13.1945 -13.1943 -13.1806
   -13.1804 -13.1783 -13.1780 -13.1778 -13.1762 -13.1731 -13.1718 -13.1664
   -13.1664 -13.1662 -13.1662 -13.1641 -13.1633 -13.1629 -13.1628 -13.1620
   -13.1618 -13.1595 -13.1594 -13.1583 -13.1582 -13.1581 -13.1581 -13.1543
   -13.1543 -13.1542 -13.1542 -13.1534 -13.1531 -12.8310 -12.8306 -12.8230
   -12.8230 -12.8224 -12.8224 -12.8199 -12.8199 -12.8196 -12.8196 -12.8149
   -12.8145 -12.8109 -12.8108 -12.8084 -12.8083 -12.8083 -12.8083 -12.8057
   -12.8057 -12.8057 -12.8056 -12.8037 -12.8034 -12.8031 -12.8031 -12.8026
   -12.8025 -12.8023 -12.8022 -12.7080 -12.7072 -12.7069 -12.6918 -12.6916
   -12.6913 -12.6906 -12.6897 -12.6895 -12.6892 -12.6868 -12.6868 -12.6842
   -12.6841 -12.6837 -12.6790 -12.6789 -12.6771 -12.6749 -12.6749 -12.6747
   -12.6710 -12.6709 -12.6708 -12.6708 -12.6705 -12.6688 -12.6537 -12.6500
   -12.6500 -12.6452 -12.6451 -12.6451 -12.6390 -12.6390 -12.6376 -12.6376
   -12.6359 -12.6358 -12.6307 -12.6281 -12.6281 -12.6243 -12.6242 -12.6226
    -8.3641  -8.1753  -8.1751  -8.1663  -8.1662  -8.1629  -8.1483  -7.9287
    -7.9227  -7.9226  -7.9138  -7.9138  -7.9060  -7.8930  -7.8922  -7.8909
    -7.8909  -7.8669  -7.8449  -7.8448  -7.8400  -7.8399  -7.8398  -7.8300
    -7.7924  -7.7923  -7.7801  -7.7801  -7.7729  -7.7728  -7.7715  -7.7713
    -7.7425  -7.7283  -7.6860  -7.6860  -7.6636  -7.6634  -7.5728  -7.5098
    -7.4972  -7.4971  -7.4566  -7.4565  -7.4384  -7.4236  -7.3788  -7.3761
    -7.3760  -7.3707  -7.3543  -7.3432  -7.3431  -7.3287  -7.3286  -7.3065
    -7.3064  -7.2610  -7.0574  -7.0243  -7.0240  -6.9630  -6.9628  -6.9282
    -4.9754  -3.9370  -3.9332  -3.9331  -3.9284  -3.9214  -3.9085  -3.9084
    -3.9063  -3.9063  -3.6593  -3.6466  -3.6465  -3.6428  -3.6427  -3.6326
    -3.5048  -3.5047  -3.4905  -3.4732  -3.4731  -3.4222  -3.3622  -3.3600
    -3.3599  -3.2645  -3.1913  -3.1679  -3.1678  -3.0960  -3.0960  -2.9597
     0.6593   0.6593   0.6657   0.9640   0.9686   0.9686   0.9692   0.9692
     0.9772   1.1274   1.1309   1.1388   1.1388   1.1390   1.1391   1.2142
     1.2230   1.2230   1.2705   1.2809   1.2809   1.2864   1.2864   1.3091
     1.4679   1.4712   1.4713   1.4723   1.4724   1.4986   1.5718   1.5762
     1.5763   1.5780   1.5851   1.5852   1.6046   1.6047   1.6078   1.6092
     1.6177   1.6177   1.6237   1.6548   1.6548   1.6624   1.6624   1.6695
     1.7044   1.7045   1.7187   1.7975   1.8403   1.8403   1.9095   1.9211
     1.9401   1.9401   1.9446   1.9447   1.9583   1.9623   1.9623   1.9723
     1.9762   1.9762   2.0406   2.0712   2.0712   2.0854   2.1166   2.1315
     2.1315   2.1750   2.1851   2.1852   2.1864   2.2184   2.2184   2.2194
     2.2194   2.2388   2.2491   2.2645   2.2646   2.2707   2.2712   2.2713
     2.3059   2.3401   2.3402   2.3570   2.3570   2.4269   2.4269   2.4423
     2.4473   2.4473   2.4591   2.4591   2.4608   2.4801   2.5193   2.5193
     2.5255   2.5272   2.5349   2.5349   2.5478   2.5559   2.5560   2.5586
     2.5586   2.5608   2.5890   2.5914   2.5915   2.6047   2.6385   2.6385
     2.6406   2.6406   2.6483   2.6511   2.6572   2.6572   2.7871   2.7872
     2.8352   2.8352   2.8379   2.8467   2.8682   2.8682   2.9283   2.9554
     2.9554   2.9577   2.9766   2.9766   2.9776   2.9776   2.9794   2.9841
     2.9841   2.9877   2.9888   2.9952   2.9985   3.0050   3.0051   3.0173
     3.0174   3.0196   3.0196   3.0495   3.0495   3.0554   3.0638   3.0639
     3.0813   3.0825   3.0865   3.0865   3.0902   3.1182   3.1614   3.1615
     3.1748   3.1749   3.1955   3.2890   3.2965   3.2966   3.3505   3.4044
     3.4050   3.4367   3.4505   3.4635   3.4636   3.4937   3.4940   3.5909
     3.5909   3.6094   3.6273   3.6589   3.6590   3.6962   3.7462   3.7465
     5.3557   5.3566   5.4108   5.7202   6.2604   6.3015   6.3015   6.3042
     6.3043   6.3079   6.3478   6.4172   6.4172   6.4685   6.5551   6.5551
     6.7535   6.7777   6.7777   6.8169   6.8190   6.8191   6.8336   6.8336
     6.8497   6.8531   6.8891   6.8892   6.9317   6.9355   6.9356   6.9366
     6.9519   6.9519   6.9548   6.9549   7.0697   7.0698   7.0706   7.0726
     7.0738   7.0738   7.0895   7.0950   7.0952   7.0953   7.1273   7.1274
     7.1299   7.1550   7.1551   7.2525   7.2526   7.2677   7.2680   7.2693
     7.3320   7.3484   7.3485   7.3521   7.3523   7.3646   7.3834   7.3891
     7.3940   7.3942   7.4383   7.4384   7.4421   7.4432   7.4432   7.4603
     7.4814   7.4815   7.4875   7.4884   7.5064   7.5065   7.5318   7.5526
     7.5925   7.5926   7.6218   7.6449   7.6450   7.7177   7.7178   7.8063
     7.9246   7.9247   7.9490   7.9491   8.0904   8.0904   8.1090   8.1575
     9.0837   9.0838   9.0840   9.6574   9.6710   9.6710   9.6729   9.6879
     9.6879   9.7750   9.8123   9.8123   9.8127   9.9635   9.9635   9.9835
     9.9836  10.0427  10.0696  10.0697  10.0981  10.1038  10.1306  10.1426
    10.1427  10.1580  10.1580  10.1916  10.1956  10.2595  10.2596  10.3655
    10.5400  10.5703  10.5704  10.6374  10.6667  10.6668  10.6934  10.7178
    10.7179  10.7700  10.7803  10.7803  10.8243  10.8319  10.8319  10.8486
    10.8577  10.8577  11.0460  11.0724  11.0725  11.1312  11.1313  11.1389
    11.1414  11.1415  11.1871  11.1872  11.1898

     occupation numbers 
     1.0000   1.0000   1.0000   1.0000   1.0000   1.0000   1.0000   1.0000
     1.0000   1.0000   1.0000   1.0000   1.0000   1.0000   1.0000   1.0000
     1.0000   1.0000   1.0000   1.0000   1.0000   1.0000   1.0000   1.0000
     1.0000   1.0000   1.0000   1.0000   1.0000   1.0000   1.0000   1.0000
     1.0000   1.0000   1.0000   1.0000   1.0000   1.0000   1.0000   1.0000
     1.0000   1.0000   1.0000   1.0000   1.0000   1.0000   1.0000   1.0000
     1.0000   1.0000   1.0000   1.0000   1.0000   1.0000   1.0000   1.0000
     1.0000   1.0000   1.0000   1.0000   1.0000   1.0000   1.0000   1.0000
     1.0000   1.0000   1.0000   1.0000   1.0000   1.0000   1.0000   1.0000
     1.0000   1.0000   1.0000   1.0000   1.0000   1.0000   1.0000   1.0000
     1.0000   1.0000   1.0000   1.0000   1.0000   1.0000   1.0000   1.0000
     1.0000   1.0000   1.0000   1.0000   1.0000   1.0000   1.0000   1.0000
     1.0000   1.0000   1.0000   1.0000   1.0000   1.0000   1.0000   1.0000
     1.0000   1.0000   1.0000   1.0000   1.0000   1.0000   1.0000   1.0000
     1.0000   1.0000   1.0000   1.0000   1.0000   1.0000   1.0000   1.0000
     1.0000   1.0000   1.0000   1.0000   1.0000   1.0000   1.0000   1.0000
     1.0000   1.0000   1.0000   1.0000   1.0000   1.0000   1.0000   1.0000
     1.0000   1.0000   1.0000   1.0000   1.0000   1.0000   1.0000   1.0000
     1.0000   1.0000   1.0000   1.0000   1.0000   1.0000   1.0000   1.0000
     1.0000   1.0000   1.0000   1.0000   1.0000   1.0000   1.0000   1.0000
     1.0000   1.0000   1.0000   1.0000   1.0000   1.0000   1.0000   1.0000
     1.0000   1.0000   1.0000   1.0000   1.0000   1.0000   1.0000   1.0000
     1.0000   1.0000   1.0000   1.0000   1.0000   1.0000   1.0000   1.0000
     1.0000   1.0000   1.0000   1.0000   1.0000   1.0000   1.0000   1.0000
     1.0000   1.0000   1.0000   1.0000   1.0000   1.0000   1.0000   1.0000
     1.0000   1.0000   1.0000   1.0000   1.0000   1.0000   1.0000   1.0000
     1.0000   1.0000   1.0000   1.0000   1.0000   1.0000   1.0000   1.0000
     1.0000   1.0000   1.0000   1.0000   1.0000   1.0000   1.0000   1.0000
     1.0000   1.0000   1.0000   1.0000   1.0000   1.0000   1.0000   1.0000
     1.0000   1.0000   1.0000   1.0000   1.0000   1.0000   1.0000   1.0000
     1.0000   1.0000   1.0000   1.0000   1.0000   1.0000   1.0000   1.0000
     1.0000   1.0000   1.0000   1.0000   1.0000   1.0000   1.0000   1.0000
     1.0000   1.0000   1.0000   1.0000   1.0000   1.0000   1.0000   1.0000
     1.0000   1.0000   1.0000   1.0000   1.0000   1.0000   1.0000   1.0000
     1.0000   1.0000   1.0000   1.0000   1.0000   1.0000   1.0000   1.0000
     1.0000   1.0000   1.0000   1.0000   1.0000   1.0000   1.0000   1.0000
     1.0000   1.0000   1.0000   1.0000   1.0000   1.0000   1.0000   1.0000
     1.0000   1.0000   1.0000   1.0000   1.0000   1.0000   1.0000   1.0000
     1.0000   1.0000   1.0000   1.0000   1.0000   1.0000   1.0000   1.0000
     1.0000   1.0000   1.0000   1.0000   1.0000   1.0000   1.0000   1.0000
     1.0000   1.0000   1.0000   1.0000   1.0000   1.0000   1.0000   1.0000
     1.0000   1.0000   1.0000   1.0000   1.0000   1.0000   1.0000   1.0000
     1.0000   1.0000   1.0000   1.0000   1.0000   1.0000   1.0000   1.0000
     1.0000   1.0000   1.0000   1.0000   1.0000   1.0000   1.0000   1.0000
     1.0000   1.0000   1.0000   1.0000   1.0000   1.0000   1.0000   1.0000
     1.0000   1.0000   1.0000   1.0000   1.0000   1.0000   1.0000   1.0000
     1.0000   1.0000   1.0000   1.0000   1.0000   1.0000   1.0000   1.0000
     1.0000   1.0000   1.0000   1.0000   1.0000   1.0000   1.0000   1.0000
     1.0000   1.0000   1.0000   1.0000   1.0000   1.0000   1.0000   1.0000
     1.0000   1.0000   1.0000   1.0000   1.0000   1.0000   1.0000   1.0000
     1.0000   1.0000   1.0000   1.0000   1.0000   1.0000   1.0000   1.0000
     1.0000   1.0000   1.0000   1.0000   1.0000   1.0000   1.0000   1.0000
     1.0000   1.0000   1.0000   1.0000   1.0000   1.0000   1.0000   1.0000
     1.0000   1.0000   1.0000   1.0000   1.0000   1.0000   1.0000   1.0000
     1.0000   1.0000   1.0000   1.0000   1.0000   1.0000   1.0000   1.0000
     1.0000   1.0000   1.0000   1.0000   1.0000   1.0000   1.0000   1.0000
     1.0000   1.0000   1.0000   1.0000   1.0000   1.0000   1.0000   1.0000
     1.0000   1.0000   1.0000   1.0000   1.0000   1.0000   1.0000   1.0000
     1.0000   1.0000   1.0000   1.0000   1.0000   1.0000   1.0000   1.0000
     1.0000   1.0000   1.0000   1.0000   1.0000   1.0000   1.0000   1.0000
     1.0000   1.0000   1.0000   1.0000   1.0000   1.0000   1.0000   1.0000
     1.0000   1.0000   1.0000   1.0000   1.0000   1.0000   1.0000   1.0000
     1.0000   1.0000   1.0000   1.0000   1.0000   1.0000   1.0000   1.0000
     1.0000   1.0000   1.0000   1.0000   1.0000   1.0000   1.0000   1.0000
     1.0000   1.0000   1.0000   1.0000   1.0000   1.0000   1.0000   1.0000
     1.0000   1.0000   1.0000   1.0000   1.0000   1.0000   1.0000   1.0000
     1.0000   1.0000   1.0000   1.0000   1.0000   1.0000   1.0000   1.0000
     1.0000   1.0000   1.0000   1.0000   1.0000   1.0000   1.0000   1.0000
     1.0000   1.0000   1.0000   1.0000   1.0000   1.0000   1.0000   1.0000
     1.0000   1.0000   1.0000   1.0000   1.0000   1.0000   1.0000   1.0000
     1.0000   1.0000   1.0000   1.0000   1.0000   1.0000   1.0000   1.0000
     1.0000   1.0000   1.0000   1.0000   1.0000   1.0000   1.0000   1.0000
     1.0000   1.0000   1.0000   1.0000   1.0000   1.0000   1.0000   1.0000
     1.0000   1.0000   1.0000   1.0000   1.0000   1.0000   1.0000   1.0000
     1.0000   1.0000   1.0000   1.0000   1.0000   1.0000   1.0000   1.0000
     1.0000   1.0000   1.0000   1.0000   1.0000   1.0000   1.0000   1.0000
     1.0000   1.0000   1.0000   1.0000   1.0000   1.0000   1.0000   1.0000
     1.0000   1.0000   1.0000   1.0000   1.0000   1.0000   1.0000   1.0000
     1.0000   1.0000   1.0000   1.0000   1.0000   1.0000   1.0000   1.0000
     1.0000   1.0000   1.0000   1.0000   1.0000   1.0000   1.0000   1.0000
     1.0000   1.0000   1.0000   1.0000   1.0000   1.0000   1.0000   1.0000
     1.0000   1.0000   1.0000   1.0000   1.0000   1.0000   1.0000   1.0000
     1.0000   1.0000   1.0000   1.0000   1.0000   1.0000   1.0000   1.0000
     1.0000   1.0000   1.0000   1.0000   1.0000   1.0000   1.0000   1.0000
     1.0000   1.0000   1.0000   1.0000   1.0000   1.0000   1.0000   1.0000
     1.0000   1.0000   1.0000   1.0000   1.0000   1.0000   1.0000   1.0000
     1.0000   1.0000   1.0000   1.0000   1.0000   1.0000   1.0000   1.0000
     1.0000   1.0000   1.0000   1.0000   1.0000   1.0000   1.0000   1.0000
     1.0000   1.0000   1.0000   1.0000   1.0000   1.0000   1.0000   1.0000
     1.0000   1.0000   1.0000   1.0000   1.0000   1.0000   1.0000   1.0000
     1.0000   1.0000   1.0000   1.0000   1.0000   1.0000   1.0000   1.0000
     1.0000   1.0000   1.0000   1.0000   1.0000   1.0000   1.0000   1.0000
     1.0000   1.0000   1.0000   1.0000   1.0000   1.0000   1.0000   1.0000
     1.0000   1.0000   1.0000   1.0000   1.0000   1.0000   1.0000   1.0000
     1.0000   1.0000   1.0000   1.0000   1.0000   1.0000   1.0000   1.0000
     1.0000   1.0000   1.0000   1.0000   1.0000   1.0000   1.0000   1.0000
     0.9888   0.9885   0.9565   0.0662   0.0000   0.0000   0.0000   0.0000
     0.0000   0.0000   0.0000   0.0000   0.0000   0.0000   0.0000   0.0000
     0.0000   0.0000   0.0000   0.0000   0.0000   0.0000   0.0000   0.0000
     0.0000   0.0000   0.0000   0.0000   0.0000   0.0000   0.0000   0.0000
     0.0000   0.0000   0.0000   0.0000   0.0000   0.0000   0.0000   0.0000
     0.0000   0.0000   0.0000   0.0000   0.0000   0.0000   0.0000   0.0000
     0.0000   0.0000   0.0000   0.0000   0.0000   0.0000   0.0000   0.0000
     0.0000   0.0000   0.0000   0.0000   0.0000   0.0000   0.0000   0.0000
     0.0000   0.0000   0.0000   0.0000   0.0000   0.0000   0.0000   0.0000
     0.0000   0.0000   0.0000   0.0000   0.0000   0.0000   0.0000   0.0000
     0.0000   0.0000   0.0000   0.0000   0.0000   0.0000   0.0000   0.0000
     0.0000   0.0000   0.0000   0.0000   0.0000   0.0000   0.0000   0.0000
     0.0000   0.0000   0.0000   0.0000   0.0000   0.0000   0.0000   0.0000
     0.0000   0.0000   0.0000   0.0000   0.0000   0.0000   0.0000   0.0000
     0.0000   0.0000   0.0000   0.0000   0.0000   0.0000   0.0000   0.0000
     0.0000   0.0000   0.0000   0.0000   0.0000   0.0000   0.0000   0.0000
     0.0000   0.0000   0.0000   0.0000   0.0000   0.0000   0.0000   0.0000
     0.0000   0.0000   0.0000   0.0000   0.0000   0.0000   0.0000   0.0000
     0.0000   0.0000   0.0000   0.0000   0.0000   0.0000   0.0000   0.0000
     0.0000   0.0000   0.0000   0.0000   0.0000

     the Fermi energy is     5.5754 ev

!    total energy              =  -64422.23473150 Ry
     total all-electron energy =  -2221424.381373 Ry
     estimated scf accuracy    <       0.00000008 Ry
     smearing contrib. (-TS)   =      -0.00396459 Ry
     internal energy E=F+TS    =  -64422.23076691 Ry

     The total energy is F=E-TS. E is the sum of the following terms:
     one-electron contribution =  -12015.18413807 Ry
     hartree contribution      =    6707.34469919 Ry
     xc contribution           =   -4558.92945908 Ry
     ewald contribution        =   -9928.44415950 Ry
     one-center paw contrib.   =  -44627.01770945 Ry
      -> PAW hartree energy AE =      96.05710115 Ry
      -> PAW hartree energy PS =     -96.29520059 Ry
      -> PAW xc energy AE      =    -798.44303393 Ry
      -> PAW xc energy PS      =      33.32205124 Ry
      -> total E_H with PAW    =    6707.10659975 Ry
      -> total E_XC with PAW   =   -5324.05044178 Ry

     convergence has been achieved in  16 iterations


     -----------------------------------------------
     Non-local corr. energy    =      46.31587865 Ry
     -----------------------------------------------


     Forces acting on atoms (cartesian axes, Ry/au):

     atom    1 type  1   force =    -0.00000779   -0.00000248   -0.00000359
     atom    2 type  1   force =    -0.00004098    0.00010173    0.00001022
     atom    3 type  1   force =    -0.00053864    0.00096277   -0.00001013
     atom    4 type  1   force =    -0.00000185   -0.00000277    0.00000472
     atom    5 type  1   force =    -0.00000312   -0.00000019   -0.00000698
     atom    6 type  1   force =     0.00003477   -0.00010731    0.00000502
     atom    7 type  1   force =     0.00052626   -0.00096684   -0.00000245
     atom    8 type  1   force =     0.00010756    0.00002165    0.00000223
     atom    9 type  1   force =     0.00110861    0.00002226   -0.00000311
     atom   10 type  1   force =     0.00005192    0.00008901    0.00000458
     atom   11 type  1   force =     0.00056720    0.00098208   -0.00000420
     atom   12 type  1   force =     0.00002526    0.00080247    0.00086619
     atom   13 type  1   force =     0.00003462    0.00086868    0.00084233
     atom   14 type  1   force =     0.00070254   -0.00040231    0.00085517
     atom   15 type  1   force =     0.00077050   -0.00043871    0.00084430
     atom   16 type  1   force =     0.00000855    0.00000057    0.00000702
     atom   17 type  1   force =     0.00000611    0.00000086   -0.00000442
     atom   18 type  1   force =     0.00068363    0.00042218   -0.00086224
     atom   19 type  1   force =     0.00073782    0.00046375   -0.00084405
     atom   20 type  1   force =     0.00000236    0.00000357    0.00000291
     atom   21 type  1   force =     0.00000444    0.00000587   -0.00000516
     atom   22 type  1   force =    -0.00067556   -0.00041685    0.00086919
     atom   23 type  1   force =    -0.00072766   -0.00045407    0.00084346
     atom   24 type  1   force =    -0.00010948   -0.00002573    0.00000768
     atom   25 type  1   force =    -0.00110600   -0.00002530   -0.00000878
     atom   26 type  1   force =    -0.00070727    0.00040503   -0.00085043
     atom   27 type  1   force =    -0.00076583    0.00043899   -0.00084806
     atom   28 type  1   force =    -0.00002915   -0.00079784   -0.00086297
     atom   29 type  1   force =    -0.00003660   -0.00086367   -0.00084447
     atom   30 type  1   force =    -0.00005948   -0.00009494    0.00000608
     atom   31 type  1   force =    -0.00056742   -0.00097806   -0.00000263
     atom   32 type  2   force =    -0.00003761    0.00033146   -0.00046003
     atom   33 type  2   force =    -0.00005144   -0.00244250   -0.00575271
     atom   34 type  2   force =     0.00031516   -0.00019629   -0.00046082
     atom   35 type  2   force =    -0.00213971    0.00120724   -0.00579145
     atom   36 type  2   force =     0.00056930   -0.00003651   -0.00013823
     atom   37 type  2   force =     0.00049379   -0.00028841    0.00044658
     atom   38 type  2   force =     0.00021280    0.00050915   -0.00013853
     atom   39 type  2   force =    -0.00004211    0.00056740    0.00044761
     atom   40 type  2   force =     0.00028734   -0.00015953    0.00027752
     atom   41 type  2   force =    -0.00129245    0.00075453   -0.00034107
     atom   42 type  2   force =    -0.00029701   -0.00013882   -0.00046519
     atom   43 type  2   force =     0.00210219    0.00124456   -0.00575219
     atom   44 type  2   force =     0.00005030    0.00034874    0.00029156
     atom   45 type  2   force =     0.00004355   -0.00148293   -0.00033198
     atom   46 type  2   force =     0.00026069    0.00012822    0.00042455
     atom   47 type  2   force =    -0.00009037   -0.00007179   -0.00016958
     atom   48 type  2   force =     0.00002992   -0.00027744    0.00042509
     atom   49 type  2   force =     0.00002579    0.00012764   -0.00016753
     atom   50 type  2   force =    -0.00032442   -0.00044410   -0.00013610
     atom   51 type  2   force =    -0.00050251   -0.00025476    0.00045016
     atom   52 type  2   force =    -0.00056964    0.00000124   -0.00011665
     atom   53 type  2   force =    -0.00050221   -0.00025438    0.00046195
     atom   54 type  2   force =    -0.00018587    0.00011741    0.00043638
     atom   55 type  2   force =     0.00016622   -0.00008698   -0.00015894
     atom   56 type  2   force =    -0.00028008   -0.00021570    0.00029504
     atom   57 type  2   force =     0.00130125    0.00070653   -0.00033066
     atom   58 type  2   force =     0.00031126   -0.00048741   -0.00013369
     atom   59 type  2   force =     0.00048875   -0.00030034    0.00044907
     atom   60 type  2   force =    -0.00005351    0.00002485   -0.00012433
     atom   61 type  2   force =    -0.00003982    0.00001841    0.00070027
     atom   62 type  2   force =    -0.00029133    0.00050174   -0.00011761
     atom   63 type  2   force =    -0.00003935    0.00056869    0.00046142
     atom   64 type  2   force =    -0.00208824   -0.00124707    0.00572658
     atom   65 type  2   force =     0.00029495    0.00013583    0.00047760
     atom   66 type  2   force =     0.00128953   -0.00075326    0.00032192
     atom   67 type  2   force =    -0.00028175    0.00014719   -0.00026878
     atom   68 type  2   force =     0.00008810    0.00007167    0.00014492
     atom   69 type  2   force =    -0.00026398   -0.00012431   -0.00041122
     atom   70 type  2   force =    -0.00004435    0.00147569    0.00031333
     atom   71 type  2   force =    -0.00005665   -0.00034453   -0.00027635
     atom   72 type  2   force =     0.00212270   -0.00123400    0.00577067
     atom   73 type  2   force =    -0.00032765    0.00018943    0.00048279
     atom   74 type  2   force =     0.00002627    0.00243643    0.00573992
     atom   75 type  2   force =     0.00003073   -0.00033851    0.00048314
     atom   76 type  2   force =     0.00003389   -0.00056076   -0.00046368
     atom   77 type  2   force =    -0.00021797   -0.00050715    0.00016449
     atom   78 type  2   force =    -0.00049848    0.00027864   -0.00046527
     atom   79 type  2   force =    -0.00057597    0.00003155    0.00016341
     atom   80 type  2   force =    -0.00048523    0.00029816   -0.00046578
     atom   81 type  2   force =    -0.00030217    0.00048948    0.00016121
     atom   82 type  2   force =    -0.00129374   -0.00070420    0.00031151
     atom   83 type  2   force =     0.00028129    0.00021219   -0.00027499
     atom   84 type  2   force =     0.00004871   -0.00056140   -0.00048158
     atom   85 type  2   force =     0.00029734   -0.00049481    0.00014651
     atom   86 type  2   force =     0.00003950   -0.00001136   -0.00072420
     atom   87 type  2   force =     0.00006253   -0.00001785    0.00014663
     atom   88 type  2   force =     0.00050595    0.00025139   -0.00046723
     atom   89 type  2   force =     0.00033120    0.00044603    0.00015919
     atom   90 type  2   force =    -0.00001846   -0.00012389    0.00014361
     atom   91 type  2   force =    -0.00002422    0.00028004   -0.00041321
     atom   92 type  2   force =    -0.00015924    0.00009173    0.00013409
     atom   93 type  2   force =     0.00018464   -0.00010489   -0.00042187
     atom   94 type  2   force =     0.00051062    0.00025182   -0.00048292
     atom   95 type  2   force =     0.00057544    0.00000410    0.00014093
     atom   96 type  2   force =     0.00000051    0.00000227   -0.00000271
     The non-local contrib.  to forces
     atom    1 type  1   force =     0.00000001   -0.00002699   -0.00000252
     atom    2 type  1   force =     0.04285776   -0.07421657    0.00002813
     atom    3 type  1   force =     0.00171727   -0.00297312    0.00001062
     atom    4 type  1   force =    -0.00001014    0.00002196    0.00002902
     atom    5 type  1   force =     0.00000677   -0.00002026   -0.00000284
     atom    6 type  1   force =    -0.04288417    0.07424047    0.00000879
     atom    7 type  1   force =    -0.00169057    0.00293438   -0.00000201
     atom    8 type  1   force =    -0.08570401   -0.00001438   -0.00003973
     atom    9 type  1   force =    -0.00339652   -0.00001473    0.00000609
     atom   10 type  1   force =    -0.04277858   -0.07413152    0.00001177
     atom   11 type  1   force =    -0.00170890   -0.00294951   -0.00000267
     atom   12 type  1   force =     0.00003768   -0.02148538    0.02066456
     atom   13 type  1   force =     0.00003252   -0.01152781   -0.00830215
     atom   14 type  1   force =    -0.01857214    0.01072043    0.02068899
     atom   15 type  1   force =    -0.00992474    0.00571716   -0.00827656
     atom   16 type  1   force =    -0.00000489   -0.00002310   -0.00000863
     atom   17 type  1   force =     0.00000759   -0.00002523   -0.00000811
     atom   18 type  1   force =    -0.01858720   -0.01071586   -0.02066737
     atom   19 type  1   force =    -0.00997943   -0.00575391    0.00832630
     atom   20 type  1   force =     0.00001710    0.00001171    0.00002248
     atom   21 type  1   force =     0.00000294   -0.00002049   -0.00000031
     atom   22 type  1   force =     0.01857903    0.01068049    0.02067341
     atom   23 type  1   force =     0.01000187    0.00572515   -0.00831786
     atom   24 type  1   force =     0.08570621   -0.00004474   -0.00002180
     atom   25 type  1   force =     0.00340886   -0.00001474    0.00002271
     atom   26 type  1   force =     0.01861836   -0.01076417   -0.02068267
     atom   27 type  1   force =     0.00990363   -0.00574373    0.00827404
     atom   28 type  1   force =    -0.00002951    0.02141154   -0.02068248
     atom   29 type  1   force =    -0.00002932    0.01148677    0.00832467
     atom   30 type  1   force =     0.04283189    0.07415446    0.00001226
     atom   31 type  1   force =     0.00167581    0.00292056   -0.00000021
     atom   32 type  2   force =    -0.00001292   -0.00345417    0.26485045
     atom   33 type  2   force =    -0.00000317   -0.11453599    0.18458653
     atom   34 type  2   force =    -0.00296474    0.00172041    0.26485197
     atom   35 type  2   force =    -0.09938092    0.05736362    0.18449864
     atom   36 type  2   force =    -0.00173997   -0.00057610    0.25335240
     atom   37 type  2   force =    -0.04376031    0.01809749    0.21029596
     atom   38 type  2   force =    -0.00141516   -0.00120172    0.25335466
     atom   39 type  2   force =    -0.00621589   -0.04692257    0.21030681
     atom   40 type  2   force =     0.00632303   -0.00365146    0.27685118
     atom   41 type  2   force =    -0.00282906    0.00163328    0.22835757
     atom   42 type  2   force =     0.00298757    0.00174959    0.26484105
     atom   43 type  2   force =     0.09914469    0.05723675    0.18457946
     atom   44 type  2   force =     0.00004655    0.00735093    0.27688486
     atom   45 type  2   force =     0.00004602   -0.00322009    0.22835573
     atom   46 type  2   force =    -0.00055665   -0.00032683    0.25823400
     atom   47 type  2   force =    -0.00862072   -0.00499885    0.22101851
     atom   48 type  2   force =     0.00000147    0.00064580    0.25824132
     atom   49 type  2   force =     0.00002070    0.00995506    0.22102692
     atom   50 type  2   force =     0.00033012    0.00184244    0.25334754
     atom   51 type  2   force =     0.03753346    0.02885690    0.21031180
     atom   52 type  2   force =     0.00174413   -0.00056297    0.25335845
     atom   53 type  2   force =     0.04374468    0.01813364    0.21030330
     atom   54 type  2   force =     0.00060138   -0.00034860    0.25824268
     atom   55 type  2   force =     0.00865394   -0.00499737    0.22103070
     atom   56 type  2   force =    -0.00633562   -0.00371685    0.27688547
     atom   57 type  2   force =     0.00282486    0.00157502    0.22835853
     atom   58 type  2   force =    -0.00035278    0.00181638    0.25335348
     atom   59 type  2   force =    -0.03754312    0.02886620    0.21030041
     atom   60 type  2   force =    -0.00003089    0.00003300    0.24668671
     atom   61 type  2   force =    -0.00003343    0.00003342    0.21903950
     atom   62 type  2   force =     0.00137389   -0.00121316    0.25336537
     atom   63 type  2   force =     0.00617726   -0.04694041    0.21030982
     atom   64 type  2   force =    -0.09914659   -0.05723906   -0.18462305
     atom   65 type  2   force =    -0.00301190   -0.00173283   -0.26482743
     atom   66 type  2   force =     0.00281145   -0.00164398   -0.22835844
     atom   67 type  2   force =    -0.00633585    0.00363789   -0.27684114
     atom   68 type  2   force =     0.00860148    0.00498947   -0.22102702
     atom   69 type  2   force =     0.00054175    0.00030618   -0.25822923
     atom   70 type  2   force =    -0.00005116    0.00325185   -0.22836317
     atom   71 type  2   force =    -0.00005712   -0.00733369   -0.27686179
     atom   72 type  2   force =     0.09934576   -0.05736481   -0.18453175
     atom   73 type  2   force =     0.00297330   -0.00170188   -0.26483111
     atom   74 type  2   force =    -0.00001273    0.11449950   -0.18459186
     atom   75 type  2   force =     0.00000965    0.00346988   -0.26481602
     atom   76 type  2   force =     0.00621035    0.04692384   -0.21031689
     atom   77 type  2   force =     0.00142316    0.00120483   -0.25333354
     atom   78 type  2   force =     0.04374648   -0.01808508   -0.21031458
     atom   79 type  2   force =     0.00174184    0.00062165   -0.25334490
     atom   80 type  2   force =     0.03756064   -0.02881944   -0.21031270
     atom   81 type  2   force =     0.00036527   -0.00178574   -0.25335142
     atom   82 type  2   force =    -0.00281174   -0.00158302   -0.22835578
     atom   83 type  2   force =     0.00635352    0.00371269   -0.27687363
     atom   84 type  2   force =    -0.00616660    0.04696438   -0.21032677
     atom   85 type  2   force =    -0.00136273    0.00122659   -0.25335626
     atom   86 type  2   force =     0.00004295    0.00000492   -0.21905947
     atom   87 type  2   force =     0.00004316    0.00000268   -0.24667452
     atom   88 type  2   force =    -0.03753689   -0.02881769   -0.21031592
     atom   89 type  2   force =    -0.00033920   -0.00181678   -0.25334547
     atom   90 type  2   force =    -0.00002645   -0.00997073   -0.22102442
     atom   91 type  2   force =    -0.00000043   -0.00064242   -0.25822613
     atom   92 type  2   force =    -0.00866242    0.00499138   -0.22104475
     atom   93 type  2   force =    -0.00060580    0.00034292   -0.25823563
     atom   94 type  2   force =    -0.04374416   -0.01812398   -0.21033315
     atom   95 type  2   force =    -0.00174454    0.00060255   -0.25336214
     atom   96 type  2   force =     0.00001841    0.00001749   -0.00002051
     The ionic contribution  to forces
     atom    1 type  1   force =     0.00001974    0.00060310    0.00025621
     atom    2 type  1   force =     0.42866285   -0.74462607   -0.00167207
     atom    3 type  1   force =     0.17068274   -0.29641070    0.00104656
     atom    4 type  1   force =     0.00028729   -0.00078436   -0.00202845
     atom    5 type  1   force =    -0.00013395   -0.00016704   -0.00140242
     atom    6 type  1   force =    -0.42837361    0.74313397   -0.00095600
     atom    7 type  1   force =    -0.17235479    0.29741785   -0.00166963
     atom    8 type  1   force =    -0.85898675    0.00016810    0.00224344
     atom    9 type  1   force =    -0.34323843    0.00069032   -0.00178068
     atom   10 type  1   force =    -0.43200240   -0.74790483   -0.00094927
     atom   11 type  1   force =    -0.17082620   -0.29664431    0.00004507
     atom   12 type  1   force =    -0.00063494    0.38514687   -0.70282998
     atom   13 type  1   force =    -0.00002972    0.33157336    0.48417643
     atom   14 type  1   force =     0.33168285   -0.19185960   -0.70203843
     atom   15 type  1   force =     0.28626662   -0.16502044    0.48226664
     atom   16 type  1   force =     0.00020805    0.00141452    0.00207095
     atom   17 type  1   force =    -0.00008514    0.00113246    0.00082254
     atom   18 type  1   force =     0.33325604    0.19181414    0.70341849
     atom   19 type  1   force =     0.28712833    0.16633298   -0.48579314
     atom   20 type  1   force =    -0.00047761   -0.00053940   -0.00096798
     atom   21 type  1   force =    -0.00007977   -0.00007765   -0.00071643
     atom   22 type  1   force =    -0.33219858   -0.19140666   -0.70270574
     atom   23 type  1   force =    -0.28764074   -0.16581389    0.48584510
     atom   24 type  1   force =     0.85928948    0.00195668    0.00151392
     atom   25 type  1   force =     0.34283917    0.00075574    0.00132272
     atom   26 type  1   force =    -0.33393103    0.19270331    0.70190669
     atom   27 type  1   force =    -0.28547862    0.16529735   -0.48217527
     atom   28 type  1   force =     0.00048834   -0.38302595    0.70290930
     atom   29 type  1   force =    -0.00010103   -0.33141419   -0.48658364
     atom   30 type  1   force =     0.43103522    0.74661874   -0.00093709
     atom   31 type  1   force =     0.17244447    0.29733109    0.00044486
     atom   32 type  2   force =     0.00149847    1.24106391  -15.58383032
     atom   33 type  2   force =    -0.00053150    6.58242463  -12.38325081
     atom   34 type  2   force =     1.07433001   -0.62112449  -15.58346819
     atom   35 type  2   force =     5.69680947   -3.28886581  -12.38965280
     atom   36 type  2   force =     0.06736028   -0.13588678  -14.59040327
     atom   37 type  2   force =     1.18275034    0.44518215  -13.37705820
     atom   38 type  2   force =    -0.08313025    0.12655392  -14.59158373
     atom   39 type  2   force =     0.97787067    0.80116692  -13.37412550
     atom   40 type  2   force =     0.03646873   -0.02060678  -13.44495411
     atom   41 type  2   force =    -0.78096607    0.44960606  -14.02680473
     atom   42 type  2   force =    -1.07331754   -0.62229281  -15.58457727
     atom   43 type  2   force =    -5.70151994   -3.29080344  -12.38254554
     atom   44 type  2   force =    -0.00018054    0.04374977  -13.43971084
     atom   45 type  2   force =    -0.00122261   -0.90263964  -14.02966885
     atom   46 type  2   force =     0.10602480    0.06146365  -14.34611703
     atom   47 type  2   force =     0.30473118    0.17570833  -13.92986203
     atom   48 type  2   force =    -0.00116497   -0.12247184  -14.34615646
     atom   49 type  2   force =     0.00001347   -0.35206953  -13.93050106
     atom   50 type  2   force =    -0.15144050    0.00846185  -14.59295662
     atom   51 type  2   force =    -0.20293725   -1.24651154  -13.37483481
     atom   52 type  2   force =    -0.06713567   -0.13589614  -14.59218937
     atom   53 type  2   force =    -1.18139938    0.44777848  -13.37623289
     atom   54 type  2   force =    -0.10648251    0.06038183  -14.34669785
     atom   55 type  2   force =    -0.30467993    0.17569168  -13.93080557
     atom   56 type  2   force =    -0.03708480   -0.02066643  -13.43989130
     atom   57 type  2   force =     0.78113702    0.45124018  -14.02873504
     atom   58 type  2   force =     0.15096309    0.00928072  -14.59141258
     atom   59 type  2   force =     0.20561209   -1.24623064  -13.37721029
     atom   60 type  2   force =    -0.00028759   -0.00067277  -14.35006990
     atom   61 type  2   force =     0.00128597   -0.00205798  -13.63504421
     atom   62 type  2   force =     0.08371674    0.12546916  -14.59175977
     atom   63 type  2   force =    -0.97781421    0.80095014  -13.37570745
     atom   64 type  2   force =     5.69940825    3.28998418   12.38143755
     atom   65 type  2   force =     1.07552201    0.62123346   15.58515628
     atom   66 type  2   force =     0.77959400   -0.45104492   14.02692824
     atom   67 type  2   force =    -0.03645483    0.02154785   13.44451447
     atom   68 type  2   force =    -0.30548165   -0.17659982   13.93102944
     atom   69 type  2   force =    -0.10468903   -0.06290348   14.34527475
     atom   70 type  2   force =     0.00154045    0.90078459   14.02780199
     atom   71 type  2   force =     0.00037619   -0.04126865   13.44055315
     atom   72 type  2   force =    -5.69397731    3.28785097   12.38880759
     atom   73 type  2   force =    -1.07601997    0.62010246   15.58464733
     atom   74 type  2   force =     0.00102263   -6.58005568   12.38280971
     atom   75 type  2   force =    -0.00120709   -1.24163829   15.58574984
     atom   76 type  2   force =    -0.97852716   -0.79820930   13.37578709
     atom   77 type  2   force =     0.08274572   -0.12771782   14.59245396
     atom   78 type  2   force =    -1.18276468   -0.44417498   13.37698467
     atom   79 type  2   force =    -0.06801458    0.13490476   14.59166329
     atom   80 type  2   force =    -0.20684246    1.24716350   13.37732076
     atom   81 type  2   force =    -0.15120847   -0.00907118   14.59081835
     atom   82 type  2   force =    -0.77957570   -0.45264952   14.02911249
     atom   83 type  2   force =     0.03683169    0.02132876   13.43945834
     atom   84 type  2   force =     0.97854212   -0.79846134   13.37729756
     atom   85 type  2   force =    -0.08362083   -0.12691019   14.59220782
     atom   86 type  2   force =    -0.00108021   -0.00099957   13.63626344
     atom   87 type  2   force =     0.00006486   -0.00078461   14.34892116
     atom   88 type  2   force =     0.20324345    1.24751611   13.37493334
     atom   89 type  2   force =     0.15167204   -0.00806047   14.59163417
     atom   90 type  2   force =    -0.00002410    0.35242712   13.93061960
     atom   91 type  2   force =     0.00151062    0.12229943   14.34563696
     atom   92 type  2   force =     0.30559943   -0.17671943   13.93204572
     atom   93 type  2   force =     0.10588015   -0.06183522   14.34555044
     atom   94 type  2   force =     1.18144694   -0.44731568   13.37606364
     atom   95 type  2   force =     0.06797123    0.13510393   14.59219190
     atom   96 type  2   force =    -0.00047862   -0.00159921    0.00106068
     The local contribution  to forces
     atom    1 type  1   force =    -0.00001378   -0.00056600   -0.00027476
     atom    2 type  1   force =    -0.47055935    0.81709053    0.00166966
     atom    3 type  1   force =    -0.17302861    0.30037837   -0.00107385
     atom    4 type  1   force =    -0.00026868    0.00076245    0.00201166
     atom    5 type  1   force =     0.00013503    0.00019004    0.00139213
[...]
     atom   15 type  1   force =    -0.00000316    0.00000241    0.00000307
     atom   16 type  1   force =    -0.00000029    0.00000252   -0.00000073
     atom   17 type  1   force =    -0.00000014    0.00000302    0.00000021
     atom   18 type  1   force =     0.00000761   -0.00000879    0.00000067
     atom   19 type  1   force =     0.00000811   -0.00000882   -0.00000259
     atom   20 type  1   force =    -0.00000051   -0.00000332   -0.00000047
     atom   21 type  1   force =    -0.00000037   -0.00000326    0.00000047
     atom   22 type  1   force =    -0.00000803    0.00000866   -0.00000157
     atom   23 type  1   force =    -0.00000879    0.00000852    0.00000335
     atom   24 type  1   force =     0.00000044    0.00000909    0.00000099
     atom   25 type  1   force =    -0.00000279    0.00001009    0.00000024
     atom   26 type  1   force =     0.00000305   -0.00000214    0.00000129
     atom   27 type  1   force =     0.00000323   -0.00000239   -0.00000217
     atom   28 type  1   force =     0.00001112   -0.00000597    0.00000071
     atom   29 type  1   force =     0.00001126   -0.00000677   -0.00000240
     atom   30 type  1   force =     0.00000622    0.00001180   -0.00000030
     atom   31 type  1   force =     0.00000418    0.00000801    0.00000014
     atom   32 type  2   force =     0.00000725    0.00000784   -0.00000042
     atom   33 type  2   force =     0.00000906    0.00000480    0.00000306
     atom   34 type  2   force =    -0.00000403    0.00000541    0.00000072
     atom   35 type  2   force =    -0.00000539    0.00000588    0.00000451
     atom   36 type  2   force =    -0.00000381   -0.00000554    0.00000494
     atom   37 type  2   force =    -0.00000090   -0.00000413    0.00000207
     atom   38 type  2   force =     0.00000732   -0.00000391    0.00000381
     atom   39 type  2   force =     0.00000915   -0.00000138    0.00000096
     atom   40 type  2   force =     0.00000149    0.00000208    0.00000307
     atom   41 type  2   force =     0.00000174    0.00000141    0.00000380
     atom   42 type  2   force =    -0.00000048   -0.00000547    0.00000095
     atom   43 type  2   force =     0.00000186   -0.00000656    0.00000361
     atom   44 type  2   force =    -0.00001188   -0.00000749    0.00000158
     atom   45 type  2   force =    -0.00001136   -0.00000589    0.00000180
     atom   46 type  2   force =    -0.00000806    0.00000035    0.00000362
     atom   47 type  2   force =    -0.00000545    0.00000161   -0.00000093
     atom   48 type  2   force =    -0.00000684    0.00000786    0.00000359
     atom   49 type  2   force =    -0.00000672    0.00000488   -0.00000072
     atom   50 type  2   force =     0.00000393   -0.00000286    0.00000470
     atom   51 type  2   force =     0.00000336   -0.00000582    0.00000185
     atom   52 type  2   force =     0.00000384   -0.00001314    0.00000160
     atom   53 type  2   force =     0.00000153   -0.00001154   -0.00000082
     atom   54 type  2   force =    -0.00001014    0.00000287    0.00000072
     atom   55 type  2   force =    -0.00001288    0.00000428   -0.00000365
     atom   56 type  2   force =    -0.00000228    0.00001541    0.00000009
     atom   57 type  2   force =    -0.00000240    0.00001435    0.00000160
     atom   58 type  2   force =     0.00000048    0.00000777    0.00000477
     atom   59 type  2   force =     0.00000082    0.00000466    0.00000213
     atom   60 type  2   force =     0.00001093   -0.00000871    0.00000233
     atom   61 type  2   force =     0.00001100   -0.00000868    0.00000092
     atom   62 type  2   force =     0.00001070   -0.00000172    0.00000070
     atom   63 type  2   force =     0.00000890    0.00000000   -0.00000172
     atom   64 type  2   force =    -0.00000093    0.00001340   -0.00000220
     atom   65 type  2   force =     0.00000052    0.00001173    0.00000003
     atom   66 type  2   force =    -0.00000128    0.00000200   -0.00000330
     atom   67 type  2   force =    -0.00000120    0.00000234   -0.00000398
     atom   68 type  2   force =     0.00000522   -0.00000800   -0.00000010
     atom   69 type  2   force =     0.00000838   -0.00000659   -0.00000399
     atom   70 type  2   force =     0.00001203    0.00000363   -0.00000065
     atom   71 type  2   force =     0.00001215    0.00000324   -0.00000002
     atom   72 type  2   force =     0.00000487    0.00000084   -0.00000318
     atom   73 type  2   force =     0.00000473    0.00000099   -0.00000048
     atom   74 type  2   force =    -0.00000876   -0.00000349   -0.00000254
     atom   75 type  2   force =    -0.00000661   -0.00000254   -0.00000127
     atom   76 type  2   force =    -0.00000839   -0.00000386   -0.00000202
     atom   77 type  2   force =    -0.00000645   -0.00000260   -0.00000374
     atom   78 type  2   force =     0.00000236    0.00000099   -0.00000204
     atom   79 type  2   force =     0.00000430    0.00000179   -0.00000329
     atom   80 type  2   force =    -0.00000099    0.00000063   -0.00000219
     atom   81 type  2   force =    -0.00000065   -0.00000162   -0.00000363
     atom   82 type  2   force =     0.00000199   -0.00001134   -0.00000110
     atom   83 type  2   force =     0.00000148   -0.00001141   -0.00000182
     atom   84 type  2   force =    -0.00000960   -0.00000579    0.00000075
     atom   85 type  2   force =    -0.00001131   -0.00000517   -0.00000086
     atom   86 type  2   force =    -0.00001117    0.00000523   -0.00000069
     atom   87 type  2   force =    -0.00001120    0.00000514   -0.00000144
     atom   88 type  2   force =    -0.00000382    0.00001097   -0.00000140
     atom   89 type  2   force =    -0.00000474    0.00000878   -0.00000326
     atom   90 type  2   force =     0.00000635   -0.00000103   -0.00000012
     atom   91 type  2   force =     0.00000658   -0.00000440   -0.00000431
     atom   92 type  2   force =     0.00001259   -0.00001109    0.00000243
     atom   93 type  2   force =     0.00000986   -0.00000946   -0.00000111
     atom   94 type  2   force =    -0.00000333    0.00000811    0.00000153
     atom   95 type  2   force =    -0.00000474    0.00000854   -0.00000004
     atom   96 type  2   force =     0.00000006    0.00000317   -0.00000119

     Total force =     0.003649     Total SCF correction =     0.000094


     Computing stress (Cartesian axis) and pressure



     -----------------------------------------------
     Non-local corr. energy    =      46.31654392 Ry
     -----------------------------------------------

          total   stress  (Ry/bohr**3)                   (kbar)     P=       13.01
   0.00008612  -0.00000000  -0.00000000           12.67       -0.00       -0.00
  -0.00000000   0.00008612   0.00000000           -0.00       12.67        0.00
  -0.00000000   0.00000000   0.00009315           -0.00        0.00       13.70

     kinetic stress (kbar)  14929.77      0.00     -0.00
                                0.00  14929.77      0.00
                               -0.00      0.00  14938.07

     local   stress (kbar)  -7101.24      0.01     -0.00
                                0.01  -7101.25     -0.00
                               -0.00     -0.00    758.75

     nonloc. stress (kbar)   -960.37     -0.00     -0.00
                               -0.00   -960.37      0.00
                               -0.00      0.00   -966.09

     hartree stress (kbar)  11921.91     -0.01      0.00
                               -0.01  11921.91      0.00
                                0.00      0.00   8358.99

     exc-cor stress (kbar)   6982.65      0.00      0.00
                                0.00   6982.65      0.00
                                0.00      0.00   6982.06

     corecor stress (kbar) -11365.82     -0.00      0.00
                               -0.00 -11365.82     -0.00
                                0.00     -0.00 -11365.74

     ewald   stress (kbar) -14478.20     -0.01      0.00
                               -0.01 -14478.20      0.00
                                0.00      0.00 -18777.36

     hubbard stress (kbar)      0.00      0.00      0.00
                                0.00      0.00      0.00
                                0.00      0.00      0.00

     DFT-D   stress (kbar)      0.00      0.00      0.00
                                0.00      0.00      0.00
                                0.00      0.00      0.00

     XDM     stress (kbar)      0.00      0.00      0.00
                                0.00      0.00      0.00
                                0.00      0.00      0.00

     dft-nl  stress (kbar)     83.99     -0.00     -0.00
                               -0.00     83.99     -0.00
                               -0.00     -0.00     85.04

     TS-vdW  stress (kbar)      0.00      0.00      0.00
                                0.00      0.00      0.00
                                0.00      0.00      0.00

     MDB     stress (kbar)      0.00      0.00      0.00
                                0.00      0.00      0.00
                                0.00      0.00      0.00

     3D-RISM stress (kbar)      0.00      0.00      0.00
                                0.00      0.00      0.00
                                0.00      0.00      0.00

     Energy error            =      8.1E-05 Ry
     Gradient error          =      6.4E-04 Ry/Bohr

     bfgs converged in  28 scf cycles and  27 bfgs steps
     (criteria: energy <  1.0E-04 Ry, force <  1.0E-03 Ry/Bohr)

     End of BFGS Geometry Optimization

     Final energy             =  -64422.2432713839 Ry

     File ./PbI2.bfgs deleted, as requested
Begin final coordinates

ATOMIC_POSITIONS (angstrom)
Pb            2.3553729806        4.0792821031        7.3769518432
Pb            0.1616654357        7.8789545133       14.7542525403
Pb           -0.0015752616        8.1616298350        7.3770080994
Pb           -2.3550611452       12.2380298172       14.7537670088
Pb           -2.3553134253       12.2383269106        7.3769099465
Pb           -4.8713840396       16.5964361276       14.7541302401
Pb           -4.7090401425       16.3150051373        7.3769996367
Pb            6.7433763284        4.0792382028       14.7540147655
Pb            7.0693202459        4.0792560606        7.3770591768
Pb            4.5490021249        7.8785986412       14.7541398991
Pb            4.7124599435        8.1616276422        7.3771053073
Pb            2.3554134884       12.1761729103       14.7782205250
Pb            2.3553939345       12.2597826911        7.4689503384
Pb           -0.0536142827       16.3487821715       14.7783216365
Pb            0.0186288768       16.3071612825        7.4690144106
Pb           11.7766520763        4.0791953403       14.7543290636
Pb           11.7766556678        4.0792633672        7.3772688019
Pb            9.3676245788        8.1276487319       14.7298590374
Pb            9.4399496412        8.1695038806        7.2852560755
Pb            7.0658469224       12.2379545301       14.7538724765
Pb            7.0660548278       12.2383283593        7.3770156366
Pb            4.7643617373       16.3487371693       14.7783004122
Pb            4.6921226887       16.3071405210        7.4689968414
Pb           16.8093764908        4.0792040399       14.7541428297
Pb           16.4840333066        4.0791076733        7.3770454224
Pb           14.1857104590        8.1276633219       14.7297959519
Pb           14.1133998861        8.1694904368        7.2852451706
Pb           11.7766814164       12.3001656345       14.7297510431
Pb           11.7766650990       12.2168575155        7.2851957514
Pb            9.5820112018       16.5960861109       14.7541491349
Pb            9.4197525720       16.3149946614        7.3770855804
I             2.3553170495        1.3594438812        5.5010346180
I             2.3552152507        0.7777350419       12.4947782881
I            -0.0002132738        5.4392131646        5.5011195022
I            -0.5045819175        5.7299930336       12.4939766652
I            -2.3275793716        9.5410183664        5.4625570694
I            -2.3498535035        9.5235513657       12.9177888693
I            -4.6773654910       13.6109506564        5.4625201178
I            -4.7034306098       13.6001123972       12.9176956484
I             7.1509714542        1.3104492284        5.5797454618
I             7.0373136681        1.3761025019       12.8455584993
I             4.7108955164        5.4392409337        5.5011020485
I             5.2155807120        5.7302637194       12.4935383818
I             2.3554985766        9.6168632623        5.5798589691
I             2.3553434933        9.4851777981       12.8456550517
I             0.0221788860       13.6109592530        5.5406210569
I            -0.0008382565       13.5976282698       12.8573292777
I            11.7766834344        1.3341411490        5.5407123458
I            11.7767075130        1.3607391610       12.8576412027
I             9.4270263163        5.4037617729        5.4626785666
I             9.4232916552        5.4317779663       12.9179356470
I             7.0383529426        9.5410556259        5.4626032874
I             7.0605998186        9.5236106331       12.9178796926
I             4.6886073523       13.6109679875        5.5406808817
I             4.7116309151       13.5976505077       12.8573653849
I            16.4024223878        1.3103478668        5.5796618943
I            16.5159885651        1.3761301121       12.8456326068
I            14.1263505875        5.4037012869        5.4627076824
I            14.1300459934        5.4318080618       12.9178448855
I            11.7767371424        9.5186912819        5.3709945036
I            11.7766699213        9.5185706191       12.8952253837
I             9.3880756849       13.6109889685        5.4625980628
I             9.4141293662       13.6000344158       12.9176895065
I            -0.5040332940        2.4279895584        2.2595709765
I            -0.0000420216        2.7193307311        9.2529325933
I            -2.3265081532        6.7822782152        1.9084551487
I            -2.4402241000        6.8478572479        9.1742926544
I            -4.7095887350       10.8790741831        1.8961774528
I            -4.7326400597       10.8657806901        9.2134627409
I            -7.0658390386       14.9910086390        1.9083535024
I            -7.0658570167       14.8599345388        9.1744435522
I             5.2152155822        2.4277044804        2.2599801706
I             4.7108273200        2.7193061476        9.2528262524
I             2.3552988724        7.3822035509        2.2608188777
I             2.3553726971        6.7991840552        9.2528749333
I            -0.0071436312       10.8764294141        1.8360525749
I            -0.0333963330       10.8656990542        9.2913981190
I            -2.3604351860       14.9524685738        1.8361509545
I            -2.3831537686       14.9355067969        9.2913903143
I             9.4231992917        2.7265490637        1.8362632372
I             9.4268248013        2.7546462166        9.2915907826
I             7.0372397623        6.7821966477        1.9083832268
I             7.1511842305        6.8479259480        9.1743614608
I             4.7178753962       10.8764250071        1.8360495270
I             4.7441487826       10.8656707881        9.2914672043
I             2.3553503187       14.9579899933        1.8586860727
I             2.3553610261       14.9581376866        9.3831130861
I            14.1301917533        2.7265298216        1.8363219660
I            14.1264439642        2.7545856092        9.2915878529
I            11.7766519114        6.7978750453        1.8965577149
I            11.7766574650        6.8244853027        9.2135988619
I             9.4203423416       10.8790548361        1.8962990241
I             9.4434243423       10.8657577095        9.2134409930
I             7.0711751140       14.9525017733        1.8362130775
I             7.0938635622       14.9355051770        9.2914554885
I             2.3562159408        4.0813270741       14.7549193170
End final coordinates



     Writing all to output data dir ./PbI2.save/
 
     init_run     :     14.44s CPU     15.17s WALL (       1 calls)
     electrons    :  57645.91s CPU  58721.46s WALL (      22 calls)
     update_pot   :     38.38s CPU     39.33s WALL (      21 calls)
     forces       :    160.36s CPU    167.38s WALL (      22 calls)
     stress       :   2474.86s CPU   2510.56s WALL (      22 calls)

     Called by init_run:
     wfcinit      :      9.91s CPU     10.21s WALL (       1 calls)
     wfcinit:atom :      0.03s CPU      0.06s WALL (       1 calls)
     wfcinit:wfcr :      9.58s CPU      9.76s WALL (       1 calls)
     potinit      :      1.36s CPU      1.57s WALL (       1 calls)
     hinit0       :      0.75s CPU      0.80s WALL (       1 calls)

     Called by electrons:
     c_bands      :  56321.41s CPU  57311.90s WALL (     287 calls)
     sum_band     :    919.19s CPU    962.34s WALL (     287 calls)
     v_of_rho     :    210.24s CPU    216.10s WALL (     291 calls)
     v_h          :      2.45s CPU      2.78s WALL (     291 calls)
     v_xc         :    239.39s CPU    245.90s WALL (     335 calls)
     newd         :     87.96s CPU    119.78s WALL (     291 calls)
     PAW_pot      :     88.60s CPU     90.21s WALL (     312 calls)
     mix_rho      :      8.45s CPU      8.94s WALL (     287 calls)
     vdW_kernel   :      0.25s CPU      0.25s WALL (       1 calls)

     Called by c_bands:
     init_us_2    :     23.82s CPU     24.33s WALL (     596 calls)
     init_us_2:cp :     23.82s CPU     24.33s WALL (     596 calls)
     cegterg      :  56232.47s CPU  56999.40s WALL (     288 calls)

     Called by sum_band:
     sum_band:wei :      0.17s CPU      0.18s WALL (     287 calls)
     sum_band:loo :    809.86s CPU    815.98s WALL (     287 calls)
     sum_band:buf :      0.00s CPU      0.00s WALL (     287 calls)
     sum_band:ini :     19.55s CPU     19.87s WALL (     287 calls)
     sum_band:cal :    372.26s CPU    374.87s WALL (     308 calls)
     sum_band:bec :      5.68s CPU      5.78s WALL (     308 calls)
     addusdens    :     93.57s CPU    129.68s WALL (     287 calls)
     addusd:skk   :      8.76s CPU      9.00s WALL (     574 calls)
     addusd:dgemm :     49.81s CPU     84.90s WALL (     574 calls)
     addusd:qvan2 :     33.03s CPU     33.39s WALL (     574 calls)

     Called by *egterg:
     cdiaghg      :  45745.28s CPU  46091.79s WALL (    4437 calls)
     cegterg:over :   2171.08s CPU   2233.05s WALL (    4188 calls)
     cegterg:upda :   1284.85s CPU   1307.88s WALL (    4188 calls)
     cegterg:last :    531.26s CPU    535.54s WALL (     296 calls)
     h_psi        :   4845.58s CPU   4907.41s WALL (    4477 calls)
     s_psi        :   1005.62s CPU   1013.55s WALL (    4477 calls)
     g_psi        :      4.51s CPU      4.57s WALL (    4188 calls)

     Called by h_psi:
     h_psi:calbec :   1127.73s CPU   1136.22s WALL (    4477 calls)
     vloc_psi     :   2687.45s CPU   2709.44s WALL (    4477 calls)
     add_vuspsi   :   1005.78s CPU   1017.02s WALL (    4477 calls)

     General routines
     calbec       :   1636.62s CPU   1648.85s WALL (    4895 calls)
     fft          :    163.43s CPU    165.21s WALL (   22046 calls)
     ffts         :      4.70s CPU      4.79s WALL (     578 calls)
     fftw         :   2956.23s CPU   2979.51s WALL ( 1809427 calls)
     interpolate  :      5.20s CPU      5.28s WALL (     291 calls)
 
     Parallel routines

     PAW routines
     PAW_pot      :     88.60s CPU     90.21s WALL (     312 calls)
 
     PWSCF        :     16h46m CPU     17h 5m WALL

 
   This run was terminated on:   1:48:43   7Mar2024            

=------------------------------------------------------------------------------=
   JOB DONE.
=------------------------------------------------------------------------------=
