
     Program PWSCF v.7.1 starts on  7Mar2024 at 11:30:10 

     This program is part of the open-source Quantum ESPRESSO suite
     for quantum simulation of materials; please cite
         "P. Giannozzi et al., J. Phys.:Condens. Matter 21 395502 (2009);
         "P. Giannozzi et al., J. Phys.:Condens. Matter 29 465901 (2017);
         "P. Giannozzi et al., J. Chem. Phys. 152 154105 (2020);
          URL http://www.quantum-espresso.org", 
     in publications or presentations arising from this work. More details at
     http://www.quantum-espresso.org/quote

     Parallel version (MPI & OpenMP), running on     128 processor cores
     Number of MPI processes:               128
     Threads/MPI process:                     1

     MPI processes distributed on     1 nodes
     1824348 MiB available memory on the printing compute node when the environment starts
 
     Reading input from espresso.pwi
Warning: card &CELL ignored
Warning: card    CELL_DYNAMICS    = 'BFGS' ignored
Warning: card / ignored

     Current dimensions of program PWSCF are:
     Max number of different atomic species (ntypx) = 10
     Max number of k-points (npk) =  40000
     Max angular momentum in pseudopotentials (lmaxx) =  4
     file Pb.pbe-dn-kjpaw_psl.1.0.0.UPF: wavefunction(s)  6S 6P 5D renormalized
     file I.pbe-dn-kjpaw_psl.1.0.0.UPF: wavefunction(s)  5S 5P renormalized

     **************************************************************************
     Initializing libbeef V0.1.2 with the BEEF-vdW functional.
     Citation: Wellendorff et al., PRB 85, 235149 (2012).
     **************************************************************************


     IMPORTANT: XC functional enforced from input :
     Exchange-correlation= BEEF-VDW
                           (   1   4  43  14   2   0   0)
     Any further DFT definition will be discarded
     Please, verify this is what you really want

 
     R & G space division:  proc/nbgrp/npool/nimage =     128
     Subspace diagonalization in iterative solution of the eigenvalue problem:
     a serial algorithm will be used

 
     Parallelization info
     --------------------
     sticks:   dense  smooth     PW     G-vecs:    dense   smooth      PW
     Min         238     190     47                26444    18918    2361
     Max         239     191     48                26451    18927    2368
     Sum       30577   24439   6121              3385235  2422379  302703
 
     Using Slab Decomposition
 


     bravais-lattice index     =            4
     lattice parameter (alat)  =      35.6073  a.u.
     unit-cell volume          =   30614.2220 (a.u.)^3
     number of atoms/cell      =           96
     number of atomic types    =            2
     number of electrons       =      1542.00
     number of Kohn-Sham states=          925
     kinetic-energy cutoff     =      70.0000  Ry
     charge density cutoff     =     350.0000  Ry
     scf convergence threshold =      1.0E-07
     mixing beta               =       0.7000
     number of iterations used =            8  plain     mixing
     Exchange-correlation= BEEF-VDW
                           (   1   4  43  14   2   0   0)

     celldm(1)=  35.607290  celldm(2)=   0.000000  celldm(3)=   0.783025
     celldm(4)=   0.000000  celldm(5)=   0.000000  celldm(6)=   0.000000

     crystal axes: (cart. coord. in units of alat)
               a(1) = (   1.000000   0.000000   0.000000 )  
               a(2) = (  -0.500000   0.866025   0.000000 )  
               a(3) = (   0.000000   0.000000   0.783025 )  

     reciprocal axes: (cart. coord. in units 2 pi/alat)
               b(1) = (  1.000000  0.577350 -0.000000 )  
               b(2) = (  0.000000  1.154701  0.000000 )  
               b(3) = (  0.000000 -0.000000  1.277098 )  


     PseudoPot. # 1 for Pb read from file:
     /trace/group/acmegroup/atimmins/packages/espresso/pseudo/psl_1.0.0/pslibrary.1.0.0/pbe/PSEUDOPOTENTIALS/Pb.pbe-dn-kjpaw_psl.1.0.0.UPF
     MD5 check sum: 39ab5b8a6bbd56b7735ad9f188aac93a
     Pseudo is Projector augmented-wave + core cor, Zval = 14.0
     Generated using 'atomic' code by A. Dal Corso  v.7.1
     Shape of augmentation charge: PSQ
     Using radial grid of 1281 points,  6 beta functions with: 
                l(1) =   0
                l(2) =   0
                l(3) =   1
                l(4) =   1
                l(5) =   2
                l(6) =   2
     Q(r) pseudized with 0 coefficients 


     PseudoPot. # 2 for I  read from file:
     /trace/group/acmegroup/atimmins/packages/espresso/pseudo/psl_1.0.0/pslibrary.1.0.0/pbe/PSEUDOPOTENTIALS/I.pbe-dn-kjpaw_psl.1.0.0.UPF
     MD5 check sum: bfa8781bc1224d19af3f3980e3fab11e
     Pseudo is Projector augmented-wave + core cor, Zval = 17.0
     Generated using 'atomic' code by A. Dal Corso  v.7.1
     Shape of augmentation charge: PSQ
     Using radial grid of 1247 points,  6 beta functions with: 
                l(1) =   0
                l(2) =   0
                l(3) =   1
                l(4) =   1
                l(5) =   2
                l(6) =   2
     Q(r) pseudized with 0 coefficients 


     atomic species   valence    mass     pseudopotential
        Pb            14.00   207.20000     Pb( 1.00)
        I             17.00   126.90447     I ( 1.00)

     No symmetry found


                                    s                        frac. trans.

      isym =  1     identity                                     

 cryst.   s( 1) = (     1          0          0      )
                  (     0          1          0      )
                  (     0          0          1      )

 cart.    s( 1) = (  1.0000000  0.0000000  0.0000000 )
                  (  0.0000000  1.0000000  0.0000000 )
                  (  0.0000000  0.0000000  1.0000000 )


     point group C_1 (1)    
     there are  1 classes
     the character table:

       E    
A      1.00

     the symmetry operations in each class and the name of the first element:

     E        1
          identity                                               

   Cartesian axes

     site n.     atom                  positions (alat units)
         1           Pb  tau(   1) = (   0.1250034   0.2164916   0.3915076  )
         2           Pb  tau(   2) = (   0.0000077   0.4329922   0.7830161  )
         3           Pb  tau(   3) = (   0.0000025   0.4329968   0.3915034  )
         4           Pb  tau(   4) = (  -0.1249932   0.6494975   0.7830119  )
         5           Pb  tau(   5) = (  -0.1249984   0.6495021   0.3914992  )
         6           Pb  tau(   6) = (  -0.2499941   0.8660028   0.7830077  )
         7           Pb  tau(   7) = (  -0.2499993   0.8660074   0.3914950  )
         8           Pb  tau(   8) = (   0.3750086   0.2164859   0.7830237  )
         9           Pb  tau(   9) = (   0.3750034   0.2164905   0.3915110  )
        10           Pb  tau(  10) = (   0.2500077   0.4329912   0.7830194  )
        11           Pb  tau(  11) = (   0.2500025   0.4329958   0.3915068  )
        12           Pb  tau(  12) = (   0.1250068   0.6494965   0.7830152  )
        13           Pb  tau(  13) = (   0.1250016   0.6495011   0.3915026  )
        14           Pb  tau(  14) = (   0.0000059   0.8660017   0.7830110  )
        15           Pb  tau(  15) = (   0.0000007   0.8660063   0.3914983  )
        16           Pb  tau(  16) = (   0.6250086   0.2164849   0.7830270  )
        17           Pb  tau(  17) = (   0.6250034   0.2164895   0.3915143  )
        18           Pb  tau(  18) = (   0.5000077   0.4329901   0.7830228  )
        19           Pb  tau(  19) = (   0.5000025   0.4329947   0.3915101  )
        20           Pb  tau(  20) = (   0.3750068   0.6494954   0.7830186  )
        21           Pb  tau(  21) = (   0.3750016   0.6495000   0.3915059  )
        22           Pb  tau(  22) = (   0.2500059   0.8660007   0.7830144  )
        23           Pb  tau(  23) = (   0.2500007   0.8660053   0.3915017  )
        24           Pb  tau(  24) = (   0.8750086   0.2164838   0.7830303  )
        25           Pb  tau(  25) = (   0.8750034   0.2164884   0.3915177  )
        26           Pb  tau(  26) = (   0.7500077   0.4329891   0.7830261  )
        27           Pb  tau(  27) = (   0.7500025   0.4329937   0.3915135  )
        28           Pb  tau(  28) = (   0.6250068   0.6494944   0.7830219  )
        29           Pb  tau(  29) = (   0.6250016   0.6494990   0.3915092  )
        30           Pb  tau(  30) = (   0.5000059   0.8659996   0.7830177  )
        31           Pb  tau(  31) = (   0.5000007   0.8660042   0.3915050  )
        32           I   tau(  32) = (   0.1250056   0.0721546   0.2909163  )
        33           I   tau(  33) = (   0.1250108   0.0721500   0.6824290  )
        34           I   tau(  34) = (   0.0000047   0.2886599   0.2909121  )
        35           I   tau(  35) = (   0.0000099   0.2886553   0.6824248  )
        36           I   tau(  36) = (  -0.1249962   0.5051652   0.2909079  )
        37           I   tau(  37) = (  -0.1249910   0.5051606   0.6824206  )
        38           I   tau(  38) = (  -0.2499972   0.7216704   0.2909037  )
        39           I   tau(  39) = (  -0.2499919   0.7216658   0.6824164  )
        40           I   tau(  40) = (   0.3750056   0.0721536   0.2909197  )
        41           I   tau(  41) = (   0.3750108   0.0721490   0.6824324  )
        42           I   tau(  42) = (   0.2500047   0.2886589   0.2909155  )
        43           I   tau(  43) = (   0.2500099   0.2886543   0.6824282  )
        44           I   tau(  44) = (   0.1250038   0.5051641   0.2909113  )
        45           I   tau(  45) = (   0.1250090   0.5051595   0.6824240  )
        46           I   tau(  46) = (   0.0000028   0.7216694   0.2909071  )
        47           I   tau(  47) = (   0.0000081   0.7216648   0.6824197  )
        48           I   tau(  48) = (   0.6250056   0.0721525   0.2909230  )
        49           I   tau(  49) = (   0.6250108   0.0721479   0.6824357  )
        50           I   tau(  50) = (   0.5000047   0.2886578   0.2909188  )
        51           I   tau(  51) = (   0.5000099   0.2886532   0.6824315  )
        52           I   tau(  52) = (   0.3750038   0.5051631   0.2909146  )
        53           I   tau(  53) = (   0.3750090   0.5051585   0.6824273  )
        54           I   tau(  54) = (   0.2500028   0.7216683   0.2909104  )
        55           I   tau(  55) = (   0.2500081   0.7216637   0.6824231  )
        56           I   tau(  56) = (   0.8750056   0.0721515   0.2909264  )
        57           I   tau(  57) = (   0.8750108   0.0721469   0.6824391  )
        58           I   tau(  58) = (   0.7500047   0.2886567   0.2909222  )
        59           I   tau(  59) = (   0.7500099   0.2886521   0.6824348  )
        60           I   tau(  60) = (   0.6250038   0.5051620   0.2909180  )
        61           I   tau(  61) = (   0.6250090   0.5051574   0.6824306  )
        62           I   tau(  62) = (   0.5000028   0.7216673   0.2909137  )
        63           I   tau(  63) = (   0.5000081   0.7216627   0.6824264  )
        64           I   tau(  64) = (  -0.0000018   0.1443297   0.1005933  )
        65           I   tau(  65) = (   0.0000034   0.1443251   0.4921060  )
        66           I   tau(  66) = (  -0.1250027   0.3608350   0.1005891  )
        67           I   tau(  67) = (  -0.1249975   0.3608304   0.4921018  )
        68           I   tau(  68) = (  -0.2500036   0.5773403   0.1005849  )
        69           I   tau(  69) = (  -0.2499984   0.5773357   0.4920975  )
        70           I   tau(  70) = (  -0.3750045   0.7938455   0.1005807  )
        71           I   tau(  71) = (  -0.3749993   0.7938409   0.4920933  )
        72           I   tau(  72) = (   0.2499982   0.1443287   0.1005966  )
        73           I   tau(  73) = (   0.2500034   0.1443241   0.4921093  )
        74           I   tau(  74) = (   0.1249973   0.3608340   0.1005924  )
        75           I   tau(  75) = (   0.1250025   0.3608294   0.4921051  )
        76           I   tau(  76) = (  -0.0000036   0.5773392   0.1005882  )
        77           I   tau(  77) = (   0.0000016   0.5773346   0.4921009  )
        78           I   tau(  78) = (  -0.1250045   0.7938445   0.1005840  )
        79           I   tau(  79) = (  -0.1249993   0.7938399   0.4920967  )
        80           I   tau(  80) = (   0.4999982   0.1443276   0.1006000  )
        81           I   tau(  81) = (   0.5000034   0.1443230   0.4921126  )
        82           I   tau(  82) = (   0.3749973   0.3608329   0.1005958  )
        83           I   tau(  83) = (   0.3750025   0.3608283   0.4921084  )
        84           I   tau(  84) = (   0.2499964   0.5773382   0.1005915  )
        85           I   tau(  85) = (   0.2500016   0.5773336   0.4921042  )
        86           I   tau(  86) = (   0.1249955   0.7938434   0.1005873  )
        87           I   tau(  87) = (   0.1250007   0.7938388   0.4921000  )
        88           I   tau(  88) = (   0.7499982   0.1443266   0.1006033  )
        89           I   tau(  89) = (   0.7500034   0.1443220   0.4921160  )
        90           I   tau(  90) = (   0.6249973   0.3608319   0.1005991  )
        91           I   tau(  91) = (   0.6250025   0.3608273   0.4921118  )
        92           I   tau(  92) = (   0.4999964   0.5773371   0.1005949  )
        93           I   tau(  93) = (   0.5000016   0.5773325   0.4921076  )
        94           I   tau(  94) = (   0.3749955   0.7938424   0.1005907  )
        95           I   tau(  95) = (   0.3750007   0.7938378   0.4921034  )
        96           I   tau(  96) = (   0.1250086   0.2164870   0.7830203  )

   Crystallographic axes

     site n.     atom                  positions (cryst. coord.)
         1           Pb  tau(   1) = (  0.2499949  0.2499829  0.4999935  )
         2           Pb  tau(   2) = (  0.2499959  0.4999764  0.9999882  )
         3           Pb  tau(   3) = (  0.2499933  0.4999817  0.4999882  )
         4           Pb  tau(   4) = (  0.2499944  0.7499751  0.9999828  )
         5           Pb  tau(   5) = (  0.2499918  0.7499804  0.4999828  )
         6           Pb  tau(   6) = (  0.2499928  0.9999739  0.9999774  )
         7           Pb  tau(   7) = (  0.2499903  0.9999792  0.4999774  )
         8           Pb  tau(   8) = (  0.4999968  0.2499764  0.9999978  )
         9           Pb  tau(   9) = (  0.4999943  0.2499817  0.4999978  )
        10           Pb  tau(  10) = (  0.4999953  0.4999752  0.9999924  )
        11           Pb  tau(  11) = (  0.4999927  0.4999805  0.4999924  )
        12           Pb  tau(  12) = (  0.4999938  0.7499739  0.9999871  )
        13           Pb  tau(  13) = (  0.4999912  0.7499792  0.4999871  )
        14           Pb  tau(  14) = (  0.4999922  0.9999727  0.9999817  )
        15           Pb  tau(  15) = (  0.4999896  0.9999780  0.4999817  )
        16           Pb  tau(  16) = (  0.7499962  0.2499752  1.0000021  )
        17           Pb  tau(  17) = (  0.7499936  0.2499805  0.5000021  )
        18           Pb  tau(  18) = (  0.7499947  0.4999739  0.9999967  )
        19           Pb  tau(  19) = (  0.7499921  0.4999793  0.4999967  )
        20           Pb  tau(  20) = (  0.7499932  0.7499727  0.9999913  )
        21           Pb  tau(  21) = (  0.7499906  0.7499780  0.4999913  )
        22           Pb  tau(  22) = (  0.7499916  0.9999714  0.9999860  )
        23           Pb  tau(  23) = (  0.7499890  0.9999767  0.4999860  )
        24           Pb  tau(  24) = (  0.9999956  0.2499740  1.0000064  )
        25           Pb  tau(  25) = (  0.9999930  0.2499793  0.5000064  )
        26           Pb  tau(  26) = (  0.9999941  0.4999727  1.0000010  )
        27           Pb  tau(  27) = (  0.9999915  0.4999780  0.5000010  )
        28           Pb  tau(  28) = (  0.9999926  0.7499715  0.9999956  )
        29           Pb  tau(  29) = (  0.9999900  0.7499768  0.4999956  )
        30           Pb  tau(  30) = (  0.9999910  0.9999702  0.9999902  )
        31           Pb  tau(  31) = (  0.9999884  0.9999755  0.4999902  )
        32           I   tau(  32) = (  0.1666641  0.0833170  0.3715286  )
        33           I   tau(  33) = (  0.1666667  0.0833117  0.8715286  )
        34           I   tau(  34) = (  0.1666625  0.3333157  0.3715233  )
        35           I   tau(  35) = (  0.1666651  0.3333104  0.8715233  )
        36           I   tau(  36) = (  0.1666610  0.5833145  0.3715179  )
        37           I   tau(  37) = (  0.1666636  0.5833092  0.8715179  )
        38           I   tau(  38) = (  0.1666595  0.8333132  0.3715125  )
        39           I   tau(  39) = (  0.1666621  0.8333079  0.8715125  )
        40           I   tau(  40) = (  0.4166635  0.0833158  0.3715329  )
        41           I   tau(  41) = (  0.4166661  0.0833105  0.8715329  )
        42           I   tau(  42) = (  0.4166619  0.3333145  0.3715275  )
        43           I   tau(  43) = (  0.4166645  0.3333092  0.8715275  )
        44           I   tau(  44) = (  0.4166604  0.5833133  0.3715222  )
        45           I   tau(  45) = (  0.4166630  0.5833080  0.8715221  )
        46           I   tau(  46) = (  0.4166589  0.8333120  0.3715168  )
        47           I   tau(  47) = (  0.4166614  0.8333067  0.8715168  )
        48           I   tau(  48) = (  0.6666629  0.0833146  0.3715372  )
        49           I   tau(  49) = (  0.6666655  0.0833093  0.8715372  )
        50           I   tau(  50) = (  0.6666613  0.3333133  0.3715318  )
        51           I   tau(  51) = (  0.6666639  0.3333080  0.8715318  )
        52           I   tau(  52) = (  0.6666598  0.5833121  0.3715264  )
        53           I   tau(  53) = (  0.6666624  0.5833068  0.8715264  )
        54           I   tau(  54) = (  0.6666582  0.8333108  0.3715210  )
        55           I   tau(  55) = (  0.6666608  0.8333055  0.8715210  )
        56           I   tau(  56) = (  0.9166623  0.0833134  0.3715414  )
        57           I   tau(  57) = (  0.9166648  0.0833080  0.8715414  )
        58           I   tau(  58) = (  0.9166607  0.3333121  0.3715361  )
        59           I   tau(  59) = (  0.9166633  0.3333068  0.8715361  )
        60           I   tau(  60) = (  0.9166592  0.5833108  0.3715307  )
        61           I   tau(  61) = (  0.9166618  0.5833055  0.8715307  )
        62           I   tau(  62) = (  0.9166576  0.8333096  0.3715253  )
        63           I   tau(  63) = (  0.9166602  0.8333043  0.8715253  )
        64           I   tau(  64) = (  0.0833270  0.1666576  0.1284675  )
        65           I   tau(  65) = (  0.0833296  0.1666523  0.6284675  )
        66           I   tau(  66) = (  0.0833255  0.4166564  0.1284621  )
        67           I   tau(  67) = (  0.0833281  0.4166511  0.6284621  )
        68           I   tau(  68) = (  0.0833239  0.6666551  0.1284567  )
        69           I   tau(  69) = (  0.0833265  0.6666498  0.6284567  )
        70           I   tau(  70) = (  0.0833224  0.9166539  0.1284513  )
        71           I   tau(  71) = (  0.0833250  0.9166486  0.6284513  )
        72           I   tau(  72) = (  0.3333264  0.1666564  0.1284717  )
        73           I   tau(  73) = (  0.3333290  0.1666511  0.6284717  )
        74           I   tau(  74) = (  0.3333249  0.4166552  0.1284664  )
        75           I   tau(  75) = (  0.3333275  0.4166499  0.6284663  )
        76           I   tau(  76) = (  0.3333233  0.6666539  0.1284610  )
        77           I   tau(  77) = (  0.3333259  0.6666486  0.6284610  )
        78           I   tau(  78) = (  0.3333218  0.9166527  0.1284556  )
        79           I   tau(  79) = (  0.3333244  0.9166473  0.6284556  )
        80           I   tau(  80) = (  0.5833258  0.1666552  0.1284760  )
        81           I   tau(  81) = (  0.5833284  0.1666499  0.6284760  )
        82           I   tau(  82) = (  0.5833243  0.4166539  0.1284706  )
        83           I   tau(  83) = (  0.5833269  0.4166486  0.6284706  )
        84           I   tau(  84) = (  0.5833227  0.6666527  0.1284652  )
        85           I   tau(  85) = (  0.5833253  0.6666474  0.6284652  )
        86           I   tau(  86) = (  0.5833212  0.9166514  0.1284599  )
        87           I   tau(  87) = (  0.5833238  0.9166461  0.6284599  )
        88           I   tau(  88) = (  0.8333252  0.1666540  0.1284803  )
        89           I   tau(  89) = (  0.8333278  0.1666487  0.6284803  )
        90           I   tau(  90) = (  0.8333237  0.4166527  0.1284749  )
        91           I   tau(  91) = (  0.8333262  0.4166474  0.6284749  )
        92           I   tau(  92) = (  0.8333221  0.6666515  0.1284695  )
        93           I   tau(  93) = (  0.8333247  0.6666462  0.6284695  )
        94           I   tau(  94) = (  0.8333206  0.9166502  0.1284641  )
        95           I   tau(  95) = (  0.8333232  0.9166449  0.6284641  )
        96           I   tau(  96) = (  0.2499975  0.2499776  0.9999935  )

     number of k points=     1  Gaussian smearing, width (Ry)=  0.0100
                       cart. coord. in units 2pi/alat
        k(    1) = (   0.0000000   0.0000000   0.0000000), wk =   2.0000000

                       cryst. coord.
        k(    1) = (   0.0000000   0.0000000   0.0000000), wk =   2.0000000

     Dense  grid:  3385235 G-vectors     FFT dimensions: ( 216, 216, 180)

     Smooth grid:  2422379 G-vectors     FFT dimensions: ( 192, 192, 150)

     Dynamical RAM for                 wfc:      33.38 MB

     Dynamical RAM for     wfc (w. buffer):      33.38 MB

     Dynamical RAM for           str. fact:       0.81 MB

     Dynamical RAM for           local pot:       0.00 MB

     Dynamical RAM for          nlocal pot:      62.36 MB

     Dynamical RAM for                qrad:       3.00 MB

     Dynamical RAM for          rho,v,vnew:       3.35 MB

     Dynamical RAM for               rhoin:       1.12 MB

     Dynamical RAM for            rho*nmix:       6.46 MB

     Dynamical RAM for           G-vectors:       1.66 MB

     Dynamical RAM for          h,s,v(r/c):     626.68 MB

     Dynamical RAM for          <psi|beta>:      24.39 MB

     Dynamical RAM for                 psi:     133.52 MB

     Dynamical RAM for                hpsi:     133.52 MB

     Dynamical RAM for                spsi:     133.52 MB

     Dynamical RAM for      wfcinit/wfcrot:      86.35 MB

     Dynamical RAM for           addusdens:     101.31 MB

     Dynamical RAM for          addusforce:     153.42 MB

     Dynamical RAM for         addusstress:      81.13 MB

     Estimated static dynamical RAM per process >     110.44 MB

     Estimated max dynamical RAM per process >       1.14 GB

     Estimated total dynamical RAM >     146.07 GB

     Atomic positions and unit cell read from directory:
     ./PbI2.save/
     Atomic positions from file used, from input discarded
 

     Check: negative core charge=   -0.000001

     The initial density is read from file :
     ./PbI2.save/charge-density



     %%%%%%%%%%%%%%%%%%%%%%%%%%%%%%%%%%%%%%%%%%%%%%%%%%%%%%%%%%%%%%%%%%%%%%%%
     %                                                                      %
     % You are using vdW-DF, which was implemented by the Thonhauser group. %
     % Please cite the following two papers that made this development      %
     % possible and the two reviews that describe the various versions:     %
     %                                                                      %
     %   T. Thonhauser et al., PRL 115, 136402 (2015).                      %
     %   T. Thonhauser et al., PRB 76, 125112 (2007).                       %
     %   K. Berland et al., Rep. Prog. Phys. 78, 066501 (2015).             %
     %   D.C. Langreth et al., J. Phys.: Condens. Matter 21, 084203 (2009). %
     %                                                                      %
     % If you are calculating stress with vdW-DF, please also cite:         %
     %                                                                      %
     %   R. Sabatini et al., J. Phys.: Condens. Matter 24, 424209 (2012).   %
     %                                                                      %
     %%%%%%%%%%%%%%%%%%%%%%%%%%%%%%%%%%%%%%%%%%%%%%%%%%%%%%%%%%%%%%%%%%%%%%%%

     %%%%%%%%%%%%%%%%%%%%%%%%%%%%%%%%%%%%%%%%%%%%%%%%%%%%%%%%%%%%%%%%%%%%%%%%
     %                                                                      %
     %  vdW-DF NEWS:                                                        %
     %                                                                      %
     %  * vdW-DF3 is now available. DOI: 10.1021/acs.jctc.0c00471           %
     %    use with input_dft = 'vdW-DF3-opt1' or 'vdW-DF3-opt2'             %
     %                                                                      %
     %  * Unscreened and range-separated vdW-DF hybrid functionals          %
     %    DOI: 10.1063/1.4986522 and 10.1088/1361-648X/ac2ad2               %
     %    use with input_dft = 'vdW-DF-cx0' (etc) and 'vdW-DF-ahcx'         %
     %                                                                      %
     %%%%%%%%%%%%%%%%%%%%%%%%%%%%%%%%%%%%%%%%%%%%%%%%%%%%%%%%%%%%%%%%%%%%%%%%


     Carrying out vdW-DF run using the following parameters:
     Nqs    =  20  Npoints =  1024  r_max =  100.000
     q_mesh =  0.00001000  0.04494208  0.09755937  0.15916263
               0.23128650  0.31572767  0.41458969  0.53033537
               0.66584808  0.82450364  1.01025438  1.22772762
               1.48234092  1.78043706  2.12944203  2.53805004
               3.01644009  3.57652955  4.23227104  5.00000000


     -----------------------------------------------
     Non-local corr. energy    =      46.31654392 Ry
     -----------------------------------------------

     Starting wfcs from file
     Checking if some PAW data can be deallocated... 
       PAW data deallocated on   66 nodes for type:  1
       PAW data deallocated on   62 nodes for type:  2

     total cpu time spent up to now is       14.0 secs

     Self-consistent Calculation

     iteration #  1     ecut=    70.00 Ry     beta= 0.70
     Davidson diagonalization with overlap

---- Real-time Memory Report at c_bands before calling an iterative solver
           368 MiB given to the printing process from OS
             0 MiB allocation reported by mallinfo(arena+hblkhd)
       1800349 MiB available memory on the node where the printing process lives
------------------
     ethr =  1.00E-05,  avg # of iterations =  1.0

     Threshold (ethr) on eigenvalues was too large:
     Diagonalizing with lowered threshold

     Davidson diagonalization with overlap

---- Real-time Memory Report at c_bands before calling an iterative solver
           944 MiB given to the printing process from OS
             0 MiB allocation reported by mallinfo(arena+hblkhd)
       1787380 MiB available memory on the node where the printing process lives
------------------
     ethr =  1.54E-13,  avg # of iterations = 20.0


     -----------------------------------------------
     Non-local corr. energy    =      46.31654340 Ry
     -----------------------------------------------


     total cpu time spent up to now is      258.3 secs

     End of self-consistent calculation

          k = 0.0000 0.0000 0.0000 (302703 PWs)   bands (ev):

   -41.0856 -41.0855 -41.0855 -41.0854 -41.0853 -41.0853 -41.0842 -41.0841
   -41.0841 -41.0841 -41.0840 -41.0839 -41.0812 -41.0811 -41.0811 -41.0811
   -41.0810 -41.0809 -41.0764 -41.0763 -41.0763 -41.0762 -41.0762 -41.0761
   -41.0760 -41.0759 -41.0759 -41.0759 -41.0758 -41.0757 -41.0724 -41.0724
   -41.0724 -41.0723 -41.0723 -41.0723 -41.0721 -41.0721 -41.0721 -41.0720
   -41.0719 -41.0719 -41.0707 -41.0707 -41.0706 -41.0705 -41.0705 -41.0705
   -41.0701 -41.0701 -41.0701 -41.0701 -41.0700 -41.0700 -41.0700 -41.0700
   -41.0700 -41.0700 -41.0700 -41.0700 -41.0697 -41.0697 -41.0697 -41.0696
   -41.0696 -41.0696 -41.0695 -41.0695 -41.0695 -41.0695 -41.0695 -41.0695
   -41.0695 -41.0695 -41.0695 -41.0694 -41.0694 -41.0694 -41.0693 -41.0693
   -41.0693 -41.0692 -41.0692 -41.0692 -41.0676 -41.0676 -41.0676 -41.0676
   -41.0676 -41.0675 -41.0675 -41.0675 -41.0675 -41.0675 -41.0675 -41.0675
   -41.0671 -41.0671 -41.0671 -41.0671 -41.0670 -41.0670 -41.0670 -41.0670
   -41.0670 -41.0670 -41.0670 -41.0670 -41.0663 -41.0663 -41.0662 -41.0662
   -41.0662 -41.0662 -41.0662 -41.0662 -41.0662 -41.0662 -41.0662 -41.0662
   -41.0550 -41.0549 -41.0549 -41.0549 -41.0548 -41.0548 -41.0548 -41.0548
   -41.0548 -41.0547 -41.0547 -41.0547 -41.0532 -41.0531 -41.0531 -41.0531
   -41.0530 -41.0530 -41.0519 -41.0518 -41.0518 -41.0518 -41.0517 -41.0517
   -41.0514 -41.0514 -41.0514 -41.0513 -41.0513 -41.0513 -41.0134 -41.0134
   -41.0133 -41.0133 -41.0131 -41.0130 -41.0113 -41.0113 -41.0113 -41.0113
   -40.6809 -40.6809 -40.6809 -40.6809 -40.6761 -40.6761 -40.6760 -40.6760
   -40.6740 -40.6739 -40.6729 -40.6729 -40.6728 -40.6728 -40.6728 -40.6728
   -40.6715 -40.6715 -40.6714 -40.6714 -40.6714 -40.6714 -40.6631 -40.6631
   -40.6631 -40.6630 -40.6630 -40.6630 -40.6527 -40.6526 -40.6526 -40.6526
   -40.6525 -40.6525 -40.6516 -40.6515 -40.6515 -40.6515 -40.6514 -40.6514
   -40.6067 -40.6067 -40.6067 -40.6066 -40.6066 -40.6066 -40.6056 -40.6056
   -40.6056 -40.6055 -40.6055 -40.6055 -40.6034 -40.6034 -40.6033 -40.6033
   -40.6033 -40.6032 -40.6005 -40.6004 -40.6004 -40.6003 -40.6003 -40.6003
   -40.5996 -40.5996 -40.5995 -40.5995 -40.5995 -40.5995 -40.5348 -40.5347
   -40.5347 -40.5347 -40.5347 -40.5346 -40.5346 -40.5346 -40.5346 -40.5345
   -40.5345 -40.5344 -40.5329 -40.5329 -40.5328 -40.5328 -40.5328 -40.5328
   -40.5327 -40.5327 -40.5327 -40.5326 -40.5326 -40.5325 -40.5138 -40.5137
   -40.5137 -40.5137 -40.5136 -40.5136 -40.5136 -40.5135 -40.5135 -40.5134
   -40.5134 -40.5133 -40.5031 -40.5031 -40.5030 -40.5030 -40.5030 -40.5029
   -40.5029 -40.5029 -40.5028 -40.5028 -40.5027 -40.5026 -40.4996 -40.4996
   -40.4995 -40.4995 -40.4995 -40.4994 -40.4994 -40.4993 -40.4993 -40.4992
   -40.4992 -40.4991 -40.1013 -40.1011 -40.1005 -40.1005 -40.1003 -40.1001
   -40.1000 -40.0998 -40.0993 -40.0993 -40.0991 -40.0988 -40.0189 -40.0186
   -40.0181 -40.0181 -40.0179 -40.0175 -40.0093 -40.0090 -40.0085 -40.0084
   -40.0082 -40.0079 -39.9861 -39.9858 -39.9853 -39.9852 -39.9850 -39.9847
   -38.3365 -38.3365 -38.3016 -38.3016 -38.2890 -13.2476 -13.2476 -13.2459
   -13.2448 -13.2447 -13.2443 -13.2397 -13.2364 -13.2364 -13.2342 -13.2334
   -13.2334 -13.2298 -13.2297 -13.2292 -13.2281 -13.2281 -13.2280 -13.2277
   -13.2277 -13.2275 -13.2275 -13.2271 -13.2254 -13.2254 -13.2240 -13.2236
   -13.2199 -13.2195 -13.2195 -13.2184 -13.2184 -13.2176 -13.2165 -13.2149
   -13.2149 -13.2140 -13.2137 -13.2137 -13.2130 -13.2130 -13.2124 -13.2124
   -13.2111 -13.2097 -13.2083 -13.2083 -13.2051 -13.2050 -13.2034 -13.2034
   -13.2021 -13.2001 -13.1983 -13.1981 -13.1968 -13.1962 -13.1962 -13.1902
   -13.1901 -13.1900 -13.1897 -13.1896 -13.1895 -13.1887 -13.1887 -13.1877
   -13.1877 -13.1838 -13.1837 -13.1818 -13.1817 -13.1817 -13.1817 -13.1778
   -13.1778 -13.1777 -13.1777 -13.1762 -13.1758 -12.8321 -12.8317 -12.8235
   -12.8235 -12.8233 -12.8233 -12.8188 -12.8188 -12.8183 -12.8183 -12.8138
   -12.8134 -12.8123 -12.8123 -12.8099 -12.8099 -12.8098 -12.8098 -12.8067
   -12.8067 -12.8066 -12.8066 -12.8036 -12.8035 -12.8014 -12.8012 -12.8002
   -12.8002 -12.7999 -12.7999 -12.7126 -12.7080 -12.7080 -12.7032 -12.7006
   -12.7006 -12.6991 -12.6991 -12.6950 -12.6942 -12.6942 -12.6913 -12.6870
   -12.6863 -12.6862 -12.6728 -12.6728 -12.6715 -12.6700 -12.6669 -12.6669
   -12.6669 -12.6667 -12.6667 -12.6666 -12.6654 -12.6654 -12.6627 -12.6627
   -12.6618 -12.6554 -12.6554 -12.6538 -12.6535 -12.6519 -12.6519 -12.6514
   -12.6514 -12.6507 -12.6496 -12.6494 -12.6494 -12.6443 -12.6443 -12.6421
    -8.3761  -8.1864  -8.1864  -8.1834  -8.1834  -8.1707  -8.1565  -7.9403
    -7.9377  -7.9377  -7.9228  -7.9155  -7.9155  -7.9112  -7.9097  -7.8967
    -7.8966  -7.8581  -7.8563  -7.8563  -7.8499  -7.8499  -7.8441  -7.8323
    -7.8003  -7.8003  -7.7993  -7.7919  -7.7919  -7.7892  -7.7748  -7.7748
    -7.7696  -7.7165  -7.6688  -7.6688  -7.6540  -7.6540  -7.5696  -7.5106
    -7.4883  -7.4883  -7.4359  -7.4359  -7.4236  -7.4211  -7.3637  -7.3637
    -7.3601  -7.3599  -7.3490  -7.3272  -7.3272  -7.3075  -7.3074  -7.2881
    -7.2881  -7.2436  -6.9700  -6.9428  -6.9427  -6.8935  -6.8934  -6.8648
    -5.1166  -3.9479  -3.9479  -3.9475  -3.9389  -3.9360  -3.9302  -3.9302
    -3.9267  -3.9267  -3.6678  -3.6677  -3.6673  -3.6642  -3.6497  -3.6497
    -3.4962  -3.4962  -3.4766  -3.4729  -3.4729  -3.4379  -3.3453  -3.3452
    -3.3121  -3.2567  -3.2150  -3.1389  -3.1389  -3.1211  -3.1211  -2.9727
     0.6471   0.6471   0.6569   0.9494   0.9494   0.9506   0.9621   0.9621
     0.9693   1.1013   1.1189   1.1258   1.1259   1.1350   1.1350   1.2235
     1.2421   1.2421   1.2534   1.2713   1.2713   1.2744   1.2744   1.2994
     1.4718   1.4761   1.4845   1.4845   1.4877   1.4877   1.5715   1.5715
     1.5756   1.5756   1.5806   1.5852   1.5997   1.5997   1.6067   1.6067
     1.6139   1.6171   1.6382   1.6398   1.6398   1.6757   1.6765   1.6765
     1.7103   1.7199   1.7200   1.8017   1.8481   1.8482   1.8954   1.9148
     1.9390   1.9390   1.9433   1.9433   1.9472   1.9494   1.9494   1.9669
     1.9719   1.9719   2.0677   2.0677   2.0812   2.0922   2.1284   2.1284
     2.1545   2.1561   2.1769   2.1822   2.1822   2.2223   2.2230   2.2230
     2.2407   2.2407   2.2509   2.2509   2.2534   2.2771   2.2858   2.2858
     2.2973   2.3674   2.3674   2.3697   2.3697   2.4199   2.4199   2.4295
     2.4400   2.4400   2.4631   2.4631   2.4808   2.4853   2.5100   2.5122
     2.5199   2.5199   2.5340   2.5365   2.5365   2.5517   2.5517   2.5534
     2.5535   2.5591   2.5956   2.5956   2.6029   2.6232   2.6232   2.6261
     2.6261   2.6308   2.6385   2.6553   2.6553   2.6558   2.8037   2.8038
     2.8388   2.8388   2.8494   2.8559   2.8863   2.8863   2.9345   2.9546
     2.9598   2.9598   2.9731   2.9799   2.9799   2.9811   2.9811   2.9843
     2.9843   2.9897   3.0091   3.0120   3.0120   3.0144   3.0151   3.0151
     3.0174   3.0174   3.0260   3.0469   3.0470   3.0598   3.0668   3.0668
     3.0734   3.1082   3.1082   3.1238   3.1249   3.1275   3.1917   3.1917
     3.1968   3.1999   3.2000   3.3067   3.3067   3.3329   3.4078   3.4429
     3.4504   3.4587   3.4587   3.4730   3.4730   3.5492   3.5492   3.6114
     3.6224   3.6225   3.6873   3.6873   3.6944   3.7724   3.8176   3.8177
     5.0892   5.0892   5.2894   5.7050   6.2502   6.2823   6.2824   6.2915
     6.2916   6.2932   6.3447   6.4016   6.4016   6.4729   6.5396   6.5396
     6.6247   6.7775   6.7775   6.8264   6.8286   6.8311   6.8311   6.8380
     6.8380   6.8425   6.8966   6.8966   6.8997   6.8997   6.9121   6.9190
     6.9276   6.9276   6.9434   6.9434   7.0333   7.0540   7.0540   7.0615
     7.0615   7.0621   7.0669   7.0862   7.0863   7.0871   7.1099   7.1239
     7.1240   7.1419   7.1420   7.1491   7.1491   7.2278   7.2278   7.2748
     7.3256   7.3332   7.3332   7.3376   7.3450   7.3505   7.3505   7.3606
     7.3804   7.3804   7.4087   7.4264   7.4279   7.4279   7.4582   7.4582
     7.4606   7.4930   7.4930   7.5167   7.5213   7.5213   7.5689   7.5734
     7.5907   7.5907   7.6756   7.6904   7.6904   7.6927   7.6927   7.8374
     7.9150   7.9150   7.9622   7.9622   8.0736   8.0736   8.0807   8.1023
     9.0821   9.0896   9.0896   9.6382   9.6636   9.6646   9.6646   9.6930
     9.6930   9.7630   9.8087   9.8403   9.8403   9.9554   9.9554   9.9800
     9.9800  10.0450  10.0730  10.0730  10.1025  10.1171  10.1275  10.1275
    10.1392  10.1546  10.1546  10.2063  10.2089  10.3030  10.3030  10.3615
    10.5620  10.5620  10.5777  10.6500  10.6907  10.6956  10.6956  10.7180
    10.7181  10.7646  10.7715  10.7874  10.7875  10.8332  10.8332  10.8548
    10.8649  10.8649  10.9995  11.0697  11.0697  11.0916  11.0916  11.0971
    11.1211  11.1211  11.1355  11.1355  11.1849

     occupation numbers 
     1.0000   1.0000   1.0000   1.0000   1.0000   1.0000   1.0000   1.0000
     1.0000   1.0000   1.0000   1.0000   1.0000   1.0000   1.0000   1.0000
     1.0000   1.0000   1.0000   1.0000   1.0000   1.0000   1.0000   1.0000
     1.0000   1.0000   1.0000   1.0000   1.0000   1.0000   1.0000   1.0000
     1.0000   1.0000   1.0000   1.0000   1.0000   1.0000   1.0000   1.0000
     1.0000   1.0000   1.0000   1.0000   1.0000   1.0000   1.0000   1.0000
     1.0000   1.0000   1.0000   1.0000   1.0000   1.0000   1.0000   1.0000
     1.0000   1.0000   1.0000   1.0000   1.0000   1.0000   1.0000   1.0000
     1.0000   1.0000   1.0000   1.0000   1.0000   1.0000   1.0000   1.0000
     1.0000   1.0000   1.0000   1.0000   1.0000   1.0000   1.0000   1.0000
     1.0000   1.0000   1.0000   1.0000   1.0000   1.0000   1.0000   1.0000
     1.0000   1.0000   1.0000   1.0000   1.0000   1.0000   1.0000   1.0000
     1.0000   1.0000   1.0000   1.0000   1.0000   1.0000   1.0000   1.0000
     1.0000   1.0000   1.0000   1.0000   1.0000   1.0000   1.0000   1.0000
     1.0000   1.0000   1.0000   1.0000   1.0000   1.0000   1.0000   1.0000
     1.0000   1.0000   1.0000   1.0000   1.0000   1.0000   1.0000   1.0000
     1.0000   1.0000   1.0000   1.0000   1.0000   1.0000   1.0000   1.0000
     1.0000   1.0000   1.0000   1.0000   1.0000   1.0000   1.0000   1.0000
     1.0000   1.0000   1.0000   1.0000   1.0000   1.0000   1.0000   1.0000
     1.0000   1.0000   1.0000   1.0000   1.0000   1.0000   1.0000   1.0000
     1.0000   1.0000   1.0000   1.0000   1.0000   1.0000   1.0000   1.0000
     1.0000   1.0000   1.0000   1.0000   1.0000   1.0000   1.0000   1.0000
     1.0000   1.0000   1.0000   1.0000   1.0000   1.0000   1.0000   1.0000
     1.0000   1.0000   1.0000   1.0000   1.0000   1.0000   1.0000   1.0000
     1.0000   1.0000   1.0000   1.0000   1.0000   1.0000   1.0000   1.0000
     1.0000   1.0000   1.0000   1.0000   1.0000   1.0000   1.0000   1.0000
     1.0000   1.0000   1.0000   1.0000   1.0000   1.0000   1.0000   1.0000
     1.0000   1.0000   1.0000   1.0000   1.0000   1.0000   1.0000   1.0000
     1.0000   1.0000   1.0000   1.0000   1.0000   1.0000   1.0000   1.0000
     1.0000   1.0000   1.0000   1.0000   1.0000   1.0000   1.0000   1.0000
     1.0000   1.0000   1.0000   1.0000   1.0000   1.0000   1.0000   1.0000
     1.0000   1.0000   1.0000   1.0000   1.0000   1.0000   1.0000   1.0000
     1.0000   1.0000   1.0000   1.0000   1.0000   1.0000   1.0000   1.0000
     1.0000   1.0000   1.0000   1.0000   1.0000   1.0000   1.0000   1.0000
     1.0000   1.0000   1.0000   1.0000   1.0000   1.0000   1.0000   1.0000
     1.0000   1.0000   1.0000   1.0000   1.0000   1.0000   1.0000   1.0000
     1.0000   1.0000   1.0000   1.0000   1.0000   1.0000   1.0000   1.0000
     1.0000   1.0000   1.0000   1.0000   1.0000   1.0000   1.0000   1.0000
     1.0000   1.0000   1.0000   1.0000   1.0000   1.0000   1.0000   1.0000
     1.0000   1.0000   1.0000   1.0000   1.0000   1.0000   1.0000   1.0000
     1.0000   1.0000   1.0000   1.0000   1.0000   1.0000   1.0000   1.0000
     1.0000   1.0000   1.0000   1.0000   1.0000   1.0000   1.0000   1.0000
     1.0000   1.0000   1.0000   1.0000   1.0000   1.0000   1.0000   1.0000
     1.0000   1.0000   1.0000   1.0000   1.0000   1.0000   1.0000   1.0000
     1.0000   1.0000   1.0000   1.0000   1.0000   1.0000   1.0000   1.0000
     1.0000   1.0000   1.0000   1.0000   1.0000   1.0000   1.0000   1.0000
     1.0000   1.0000   1.0000   1.0000   1.0000   1.0000   1.0000   1.0000
     1.0000   1.0000   1.0000   1.0000   1.0000   1.0000   1.0000   1.0000
     1.0000   1.0000   1.0000   1.0000   1.0000   1.0000   1.0000   1.0000
     1.0000   1.0000   1.0000   1.0000   1.0000   1.0000   1.0000   1.0000
     1.0000   1.0000   1.0000   1.0000   1.0000   1.0000   1.0000   1.0000
     1.0000   1.0000   1.0000   1.0000   1.0000   1.0000   1.0000   1.0000
     1.0000   1.0000   1.0000   1.0000   1.0000   1.0000   1.0000   1.0000
     1.0000   1.0000   1.0000   1.0000   1.0000   1.0000   1.0000   1.0000
     1.0000   1.0000   1.0000   1.0000   1.0000   1.0000   1.0000   1.0000
     1.0000   1.0000   1.0000   1.0000   1.0000   1.0000   1.0000   1.0000
     1.0000   1.0000   1.0000   1.0000   1.0000   1.0000   1.0000   1.0000
     1.0000   1.0000   1.0000   1.0000   1.0000   1.0000   1.0000   1.0000
     1.0000   1.0000   1.0000   1.0000   1.0000   1.0000   1.0000   1.0000
     1.0000   1.0000   1.0000   1.0000   1.0000   1.0000   1.0000   1.0000
     1.0000   1.0000   1.0000   1.0000   1.0000   1.0000   1.0000   1.0000
     1.0000   1.0000   1.0000   1.0000   1.0000   1.0000   1.0000   1.0000
     1.0000   1.0000   1.0000   1.0000   1.0000   1.0000   1.0000   1.0000
     1.0000   1.0000   1.0000   1.0000   1.0000   1.0000   1.0000   1.0000
     1.0000   1.0000   1.0000   1.0000   1.0000   1.0000   1.0000   1.0000
     1.0000   1.0000   1.0000   1.0000   1.0000   1.0000   1.0000   1.0000
     1.0000   1.0000   1.0000   1.0000   1.0000   1.0000   1.0000   1.0000
     1.0000   1.0000   1.0000   1.0000   1.0000   1.0000   1.0000   1.0000
     1.0000   1.0000   1.0000   1.0000   1.0000   1.0000   1.0000   1.0000
     1.0000   1.0000   1.0000   1.0000   1.0000   1.0000   1.0000   1.0000
     1.0000   1.0000   1.0000   1.0000   1.0000   1.0000   1.0000   1.0000
     1.0000   1.0000   1.0000   1.0000   1.0000   1.0000   1.0000   1.0000
     1.0000   1.0000   1.0000   1.0000   1.0000   1.0000   1.0000   1.0000
     1.0000   1.0000   1.0000   1.0000   1.0000   1.0000   1.0000   1.0000
     1.0000   1.0000   1.0000   1.0000   1.0000   1.0000   1.0000   1.0000
     1.0000   1.0000   1.0000   1.0000   1.0000   1.0000   1.0000   1.0000
     1.0000   1.0000   1.0000   1.0000   1.0000   1.0000   1.0000   1.0000
     1.0000   1.0000   1.0000   1.0000   1.0000   1.0000   1.0000   1.0000
     1.0000   1.0000   1.0000   1.0000   1.0000   1.0000   1.0000   1.0000
     1.0000   1.0000   1.0000   1.0000   1.0000   1.0000   1.0000   1.0000
     1.0000   1.0000   1.0000   1.0000   1.0000   1.0000   1.0000   1.0000
     1.0000   1.0000   1.0000   1.0000   1.0000   1.0000   1.0000   1.0000
     1.0000   1.0000   1.0000   1.0000   1.0000   1.0000   1.0000   1.0000
     1.0000   1.0000   1.0000   1.0000   1.0000   1.0000   1.0000   1.0000
     1.0000   1.0000   1.0000   1.0000   1.0000   1.0000   1.0000   1.0000
     1.0000   1.0000   1.0000   1.0000   1.0000   1.0000   1.0000   1.0000
     1.0000   1.0000   1.0000   1.0000   1.0000   1.0000   1.0000   1.0000
     1.0000   1.0000   1.0000   1.0000   1.0000   1.0000   1.0000   1.0000
     1.0000   1.0000   1.0000   1.0000   1.0000   1.0000   1.0000   1.0000
     1.0000   1.0000   1.0000   1.0000   1.0000   1.0000   1.0000   1.0000
     1.0000   1.0000   1.0000   1.0000   1.0000   1.0000   1.0000   1.0000
     1.0000   1.0000   1.0000   1.0000   1.0000   1.0000   1.0000   1.0000
     1.0000   1.0000   1.0000   1.0000   1.0000   1.0000   1.0000   1.0000
     1.0000   1.0000   1.0000   1.0000   1.0000   1.0000   1.0000   1.0000
     1.0000   1.0000   1.0000   1.0000   1.0000   1.0000   1.0000   1.0000
     1.0000   1.0000   1.0000   1.0000   1.0000   1.0000   1.0000   1.0000
     1.0000   1.0000   0.9846   0.0154   0.0000   0.0000   0.0000   0.0000
     0.0000   0.0000   0.0000   0.0000   0.0000   0.0000   0.0000   0.0000
     0.0000   0.0000   0.0000   0.0000   0.0000   0.0000   0.0000   0.0000
     0.0000   0.0000   0.0000   0.0000   0.0000   0.0000   0.0000   0.0000
     0.0000   0.0000   0.0000   0.0000   0.0000   0.0000   0.0000   0.0000
     0.0000   0.0000   0.0000   0.0000   0.0000   0.0000   0.0000   0.0000
     0.0000   0.0000   0.0000   0.0000   0.0000   0.0000   0.0000   0.0000
     0.0000   0.0000   0.0000   0.0000   0.0000   0.0000   0.0000   0.0000
     0.0000   0.0000   0.0000   0.0000   0.0000   0.0000   0.0000   0.0000
     0.0000   0.0000   0.0000   0.0000   0.0000   0.0000   0.0000   0.0000
     0.0000   0.0000   0.0000   0.0000   0.0000   0.0000   0.0000   0.0000
     0.0000   0.0000   0.0000   0.0000   0.0000   0.0000   0.0000   0.0000
     0.0000   0.0000   0.0000   0.0000   0.0000   0.0000   0.0000   0.0000
     0.0000   0.0000   0.0000   0.0000   0.0000   0.0000   0.0000   0.0000
     0.0000   0.0000   0.0000   0.0000   0.0000   0.0000   0.0000   0.0000
     0.0000   0.0000   0.0000   0.0000   0.0000   0.0000   0.0000   0.0000
     0.0000   0.0000   0.0000   0.0000   0.0000   0.0000   0.0000   0.0000
     0.0000   0.0000   0.0000   0.0000   0.0000   0.0000   0.0000   0.0000
     0.0000   0.0000   0.0000   0.0000   0.0000   0.0000   0.0000   0.0000
     0.0000   0.0000   0.0000   0.0000   0.0000

     the Fermi energy is     5.4972 ev

!    total energy              =  -64422.24327138 Ry
     total all-electron energy =  -2221424.389913 Ry
     estimated scf accuracy    <          2.7E-09 Ry
     smearing contrib. (-TS)   =      -0.00109660 Ry
     internal energy E=F+TS    =  -64422.24217478 Ry

     The total energy is F=E-TS. E is the sum of the following terms:
     one-electron contribution =  -12004.21042602 Ry
     hartree contribution      =    6701.76602810 Ry
     xc contribution           =   -4558.86067730 Ry
     ewald contribution        =   -9933.93257857 Ry
     one-center paw contrib.   =  -44627.00452099 Ry
      -> PAW hartree energy AE =      96.05133693 Ry
      -> PAW hartree energy PS =     -96.28942646 Ry
      -> PAW xc energy AE      =    -798.44278440 Ry
      -> PAW xc energy PS      =      33.32178148 Ry
      -> total E_H with PAW    =    6701.52793857 Ry
      -> total E_XC with PAW   =   -5323.98168022 Ry

     convergence has been achieved in   1 iterations


     -----------------------------------------------
     Non-local corr. energy    =      46.31654340 Ry
     -----------------------------------------------


     Forces acting on atoms (cartesian axes, Ry/au):

     atom    1 type  1   force =     0.00000010    0.00000108   -0.00000512
     atom    2 type  1   force =     0.00032038   -0.00056077    0.00000826
     atom    3 type  1   force =     0.00013854   -0.00024367   -0.00000135
     atom    4 type  1   force =     0.00000223    0.00000326    0.00000733
     atom    5 type  1   force =     0.00000166   -0.00000036   -0.00000311
     atom    6 type  1   force =    -0.00029431    0.00052193    0.00001244
     atom    7 type  1   force =    -0.00013559    0.00024522   -0.00000742
     atom    8 type  1   force =    -0.00063444   -0.00000668    0.00000510
     atom    9 type  1   force =    -0.00028098   -0.00000468   -0.00000981
     atom   10 type  1   force =    -0.00033029   -0.00056813    0.00000884
     atom   11 type  1   force =    -0.00014304   -0.00024573   -0.00000463
     atom   12 type  1   force =    -0.00000160   -0.00030475   -0.00017642
     atom   13 type  1   force =    -0.00000312   -0.00024730    0.00033173
     atom   14 type  1   force =    -0.00026149    0.00015411   -0.00017928
     atom   15 type  1   force =    -0.00021628    0.00012256    0.00032380
     atom   16 type  1   force =    -0.00000428    0.00000094    0.00000289
     atom   17 type  1   force =     0.00000048   -0.00000360   -0.00000575
     atom   18 type  1   force =    -0.00026356   -0.00015039    0.00018558
     atom   19 type  1   force =    -0.00020942   -0.00012637   -0.00034138
     atom   20 type  1   force =    -0.00000373    0.00000010    0.00000756
     atom   21 type  1   force =    -0.00000021   -0.00000109   -0.00000482
     atom   22 type  1   force =     0.00025753    0.00015344   -0.00017846
     atom   23 type  1   force =     0.00021137    0.00012287    0.00032647
     atom   24 type  1   force =     0.00061018    0.00000361   -0.00000125
     atom   25 type  1   force =     0.00028113    0.00000306   -0.00000479
     atom   26 type  1   force =     0.00026417   -0.00014826    0.00018881
     atom   27 type  1   force =     0.00021449   -0.00012486   -0.00033678
     atom   28 type  1   force =     0.00000175    0.00029938    0.00018714
     atom   29 type  1   force =     0.00000358    0.00024189   -0.00033743
     atom   30 type  1   force =     0.00029236    0.00050713    0.00000672
     atom   31 type  1   force =     0.00014242    0.00024691   -0.00000565
     atom   32 type  2   force =    -0.00001023   -0.00023866    0.00027603
     atom   33 type  2   force =    -0.00001784   -0.00007662    0.00017618
     atom   34 type  2   force =    -0.00018643    0.00010256    0.00027061
     atom   35 type  2   force =    -0.00008624    0.00002782    0.00014498
     atom   36 type  2   force =    -0.00000610    0.00023238   -0.00006681
     atom   37 type  2   force =    -0.00045328    0.00027860   -0.00039281
     atom   38 type  2   force =     0.00017911   -0.00011478   -0.00006362
     atom   39 type  2   force =    -0.00001038   -0.00052321   -0.00039617
     atom   40 type  2   force =     0.00019674   -0.00011765    0.00004524
     atom   41 type  2   force =     0.00010808   -0.00006751   -0.00004479
     atom   42 type  2   force =     0.00019713    0.00012081    0.00027373
     atom   43 type  2   force =     0.00010809    0.00006107    0.00012145
     atom   44 type  2   force =     0.00001800    0.00023989    0.00005381
     atom   45 type  2   force =     0.00001976    0.00012948   -0.00004098
     atom   46 type  2   force =     0.00029186    0.00015997    0.00026428
     atom   47 type  2   force =    -0.00008884   -0.00005519    0.00018273
     atom   48 type  2   force =     0.00000864   -0.00033771    0.00026466
     atom   49 type  2   force =     0.00000783    0.00010418    0.00018141
     atom   50 type  2   force =     0.00019397   -0.00010225   -0.00006634
     atom   51 type  2   force =     0.00045356    0.00026780   -0.00039385
     atom   52 type  2   force =     0.00000570    0.00024187   -0.00006175
     atom   53 type  2   force =     0.00044981    0.00028752   -0.00038711
     atom   54 type  2   force =    -0.00026383    0.00015360    0.00026474
     atom   55 type  2   force =     0.00011493   -0.00006110    0.00018911
     atom   56 type  2   force =    -0.00019079   -0.00013544    0.00004825
     atom   57 type  2   force =    -0.00010779   -0.00009049   -0.00004445
     atom   58 type  2   force =    -0.00020282   -0.00011548   -0.00006656
     atom   59 type  2   force =    -0.00046418    0.00025296   -0.00039535
     atom   60 type  2   force =    -0.00001843    0.00001861   -0.00029058
     atom   61 type  2   force =    -0.00001812    0.00001228   -0.00008281
     atom   62 type  2   force =    -0.00020341   -0.00011976   -0.00005895
     atom   63 type  2   force =    -0.00001679   -0.00052581   -0.00039205
     atom   64 type  2   force =    -0.00006416   -0.00006745   -0.00017910
     atom   65 type  2   force =    -0.00019763   -0.00013090   -0.00027316
     atom   66 type  2   force =    -0.00010695    0.00005886    0.00004159
     atom   67 type  2   force =    -0.00019212    0.00011019   -0.00004143
     atom   68 type  2   force =     0.00008913    0.00006683   -0.00018170
     atom   69 type  2   force =    -0.00029097   -0.00015573   -0.00025920
     atom   70 type  2   force =    -0.00002054   -0.00013829    0.00004324
     atom   71 type  2   force =    -0.00001915   -0.00022729   -0.00004041
     atom   72 type  2   force =     0.00007110   -0.00006409   -0.00016666
     atom   73 type  2   force =     0.00018568   -0.00011299   -0.00026897
     atom   74 type  2   force =     0.00000590    0.00013882   -0.00012480
     atom   75 type  2   force =     0.00000951    0.00022954   -0.00027030
     atom   76 type  2   force =     0.00000518    0.00053988    0.00038962
     atom   77 type  2   force =    -0.00017853    0.00012259    0.00007139
     atom   78 type  2   force =     0.00045187   -0.00026614    0.00039227
     atom   79 type  2   force =     0.00000440   -0.00022964    0.00006865
     atom   80 type  2   force =     0.00045894   -0.00026160    0.00038661
     atom   81 type  2   force =     0.00020051    0.00010275    0.00006672
     atom   82 type  2   force =     0.00010240    0.00007932    0.00003789
     atom   83 type  2   force =     0.00019358    0.00013259   -0.00004801
     atom   84 type  2   force =     0.00001931    0.00053783    0.00038325
     atom   85 type  2   force =     0.00020676    0.00012868    0.00006530
     atom   86 type  2   force =     0.00001775   -0.00001034    0.00008228
     atom   87 type  2   force =     0.00002044   -0.00000577    0.00029749
     atom   88 type  2   force =    -0.00045837   -0.00027873    0.00039014
     atom   89 type  2   force =    -0.00018871    0.00008844    0.00006670
     atom   90 type  2   force =    -0.00000758   -0.00010765   -0.00018514
     atom   91 type  2   force =    -0.00000794    0.00032750   -0.00026009
     atom   92 type  2   force =    -0.00011524    0.00007342   -0.00018923
     atom   93 type  2   force =     0.00026453   -0.00014937   -0.00025955
     atom   94 type  2   force =    -0.00045226   -0.00027612    0.00038958
     atom   95 type  2   force =    -0.00000253   -0.00023932    0.00006267
     atom   96 type  2   force =     0.00002791    0.00008356    0.00000092
     The non-local contrib.  to forces
     atom    1 type  1   force =     0.00000737   -0.00001522   -0.00000461
     atom    2 type  1   force =     0.03185430   -0.05508875    0.00003838
     atom    3 type  1   force =     0.00057390   -0.00099147    0.00001054
     atom    4 type  1   force =     0.00006228   -0.00008326    0.00002517
     atom    5 type  1   force =     0.00000497    0.00000148    0.00001589
     atom    6 type  1   force =    -0.03177183    0.05505131    0.00003507
     atom    7 type  1   force =    -0.00055342    0.00098263    0.00002489
     atom    8 type  1   force =    -0.06361061    0.00003970   -0.00005016
     atom    9 type  1   force =    -0.00112570    0.00000968    0.00001512
     atom   10 type  1   force =    -0.03182846   -0.05513952   -0.00000448
     atom   11 type  1   force =    -0.00057797   -0.00096337   -0.00000903
     atom   12 type  1   force =     0.00001494   -0.02346816    0.02623830
     atom   13 type  1   force =    -0.00000265   -0.01585331   -0.01377908
     atom   14 type  1   force =    -0.02026342    0.01169800    0.02622506
     atom   15 type  1   force =    -0.01367927    0.00790860   -0.01370275
     atom   16 type  1   force =    -0.00004295   -0.00001445   -0.00000310
     atom   17 type  1   force =     0.00000121    0.00000938   -0.00002554
     atom   18 type  1   force =    -0.02029839   -0.01174019   -0.02622456
     atom   19 type  1   force =    -0.01373130   -0.00792008    0.01376035
     atom   20 type  1   force =    -0.00005739   -0.00014025    0.00001423
     atom   21 type  1   force =    -0.00000283    0.00000196    0.00002126
     atom   22 type  1   force =     0.02025870    0.01168252    0.02618516
     atom   23 type  1   force =     0.01365449    0.00789847   -0.01370308
     atom   24 type  1   force =     0.06358314    0.00001104   -0.00003906
     atom   25 type  1   force =     0.00114124    0.00002603    0.00000633
     atom   26 type  1   force =     0.02030277   -0.01171508   -0.02623873
     atom   27 type  1   force =     0.01370262   -0.00789775    0.01372119
     atom   28 type  1   force =     0.00002706    0.02336797   -0.02617953
     atom   29 type  1   force =     0.00000518    0.01577293    0.01368926
     atom   30 type  1   force =     0.03178455    0.05504132    0.00000222
     atom   31 type  1   force =     0.00054760    0.00097776   -0.00000304
     atom   32 type  2   force =    -0.00000849   -0.00463772    0.26848831
     atom   33 type  2   force =    -0.00004030   -0.08092513    0.19026540
     atom   34 type  2   force =    -0.00400567    0.00229538    0.26848268
     atom   35 type  2   force =    -0.07004971    0.04034036    0.19016356
     atom   36 type  2   force =    -0.00565275   -0.00218650    0.25573932
     atom   37 type  2   force =    -0.05485903    0.02212129    0.20519390
     atom   38 type  2   force =    -0.00474202   -0.00379766    0.25574899
     atom   39 type  2   force =    -0.00834167   -0.05839404    0.20521389
     atom   40 type  2   force =     0.00373767   -0.00215779    0.28024655
     atom   41 type  2   force =    -0.00561928    0.00319417    0.22664905
     atom   42 type  2   force =     0.00401349    0.00231086    0.26848719
     atom   43 type  2   force =     0.07004059    0.04038390    0.19011617
     atom   44 type  2   force =     0.00000860    0.00436095    0.28030834
     atom   45 type  2   force =     0.00000339   -0.00647012    0.22664592
     atom   46 type  2   force =    -0.00346275   -0.00201867    0.25892825
     atom   47 type  2   force =    -0.00986127   -0.00570427    0.21828060
     atom   48 type  2   force =     0.00001379    0.00397695    0.25893834
     atom   49 type  2   force =     0.00001191    0.01133679    0.21829489
     atom   50 type  2   force =     0.00090397    0.00600650    0.25575239
     atom   51 type  2   force =     0.04648924    0.03646724    0.20522081
     atom   52 type  2   force =     0.00565153   -0.00218987    0.25575155
     atom   53 type  2   force =     0.05486820    0.02215423    0.20519423
     atom   54 type  2   force =     0.00347787   -0.00201199    0.25893435
     atom   55 type  2   force =     0.00985786   -0.00569213    0.21829412
     atom   56 type  2   force =    -0.00372454   -0.00216035    0.28023263
     atom   57 type  2   force =     0.00559169    0.00316924    0.22667087
     atom   58 type  2   force =    -0.00091588    0.00599433    0.25574513
     atom   59 type  2   force =    -0.04645029    0.03644169    0.20523393
     atom   60 type  2   force =    -0.00000241    0.00003993    0.25003552
     atom   61 type  2   force =    -0.00000439    0.00003437    0.21726588
     atom   62 type  2   force =     0.00472796   -0.00379899    0.25575365
     atom   63 type  2   force =     0.00831734   -0.05836049    0.20522908
     atom   64 type  2   force =    -0.07002796   -0.04049840   -0.19027321
     atom   65 type  2   force =    -0.00402074   -0.00234662   -0.26847981
     atom   66 type  2   force =     0.00558706   -0.00327933   -0.22665045
     atom   67 type  2   force =    -0.00375071    0.00216787   -0.28025427
     atom   68 type  2   force =     0.00980538    0.00567962   -0.21829233
     atom   69 type  2   force =     0.00344398    0.00199567   -0.25893289
     atom   70 type  2   force =    -0.00003744    0.00644494   -0.22667532
     atom   71 type  2   force =    -0.00001501   -0.00429870   -0.28021433
     atom   72 type  2   force =     0.06996153   -0.04049877   -0.19021486
     atom   73 type  2   force =     0.00399934   -0.00232944   -0.26847433
     atom   74 type  2   force =    -0.00003271    0.08081125   -0.19012090
     atom   75 type  2   force =     0.00000447    0.00464527   -0.26847536
     atom   76 type  2   force =     0.00829864    0.05854384   -0.20521884
     atom   77 type  2   force =     0.00475766    0.00379610   -0.25573742
     atom   78 type  2   force =     0.05474816   -0.02197144   -0.20523823
     atom   79 type  2   force =     0.00565979    0.00221310   -0.25574482
     atom   80 type  2   force =     0.04653682   -0.03643287   -0.20520540
     atom   81 type  2   force =     0.00092915   -0.00600610   -0.25574606
     atom   82 type  2   force =    -0.00560641   -0.00325169   -0.22665560
     atom   83 type  2   force =     0.00376011    0.00219027   -0.28029645
     atom   84 type  2   force =    -0.00827878    0.05859402   -0.20520778
     atom   85 type  2   force =    -0.00472286    0.00379764   -0.25574626
     atom   86 type  2   force =     0.00001647    0.00002105   -0.21727322
     atom   87 type  2   force =     0.00002067    0.00002668   -0.25003573
     atom   88 type  2   force =    -0.04645347   -0.03640633   -0.20522034
     atom   89 type  2   force =    -0.00091863   -0.00601996   -0.25574452
     atom   90 type  2   force =    -0.00001423   -0.01138302   -0.21828351
     atom   91 type  2   force =    -0.00000605   -0.00400864   -0.25892822
     atom   92 type  2   force =    -0.00984850    0.00568496   -0.21829383
     atom   93 type  2   force =    -0.00347303    0.00200540   -0.25893394
     atom   94 type  2   force =    -0.05470677   -0.02194601   -0.20524426
     atom   95 type  2   force =    -0.00564983    0.00219857   -0.25575178
     atom   96 type  2   force =     0.00013539    0.00038294   -0.00006593
     The ionic contribution  to forces
     atom    1 type  1   force =    -0.00063782   -0.00107851   -0.00044042
     atom    2 type  1   force =     0.78172108   -1.36332814   -0.00163790
     atom    3 type  1   force =     0.15823074   -0.27514573    0.00020727
     atom    4 type  1   force =    -0.00089775    0.00111827   -0.00213468
     atom    5 type  1   force =     0.00016637    0.00009182   -0.00263620
     atom    6 type  1   force =    -0.79321393    1.36721936   -0.00184918
     atom    7 type  1   force =    -0.16047167    0.27597012   -0.00076521
     atom    8 type  1   force =    -1.57411916   -0.00528975    0.00273557
     atom    9 type  1   force =    -0.31922012   -0.00134288   -0.00278470
     atom   10 type  1   force =    -0.78377741   -1.35871060    0.00029582
     atom   11 type  1   force =    -0.15899092   -0.27607622    0.00051921
     atom   12 type  1   force =    -0.00023136    0.79209690   -0.44717891
     atom   13 type  1   force =    -0.00059124    0.53301872    0.72589032
     atom   14 type  1   force =     0.68371158   -0.39493043   -0.44547144
     atom   15 type  1   force =     0.45981814   -0.26657228    0.72315937
     atom   16 type  1   force =     0.00073873    0.00012734    0.00361987
     atom   17 type  1   force =     0.00053484   -0.00020421    0.00039993
     atom   18 type  1   force =     0.68528996    0.39684643    0.44880164
     atom   19 type  1   force =     0.46218004    0.26683375   -0.72755368
     atom   20 type  1   force =     0.00073546    0.00201764   -0.00065857
     atom   21 type  1   force =     0.00013744    0.00049707   -0.00246430
     atom   22 type  1   force =    -0.68363813   -0.39466159   -0.44430979
     atom   23 type  1   force =    -0.45935415   -0.26565102    0.72293632
     atom   24 type  1   force =     1.57896609   -0.00345890    0.00270925
     atom   25 type  1   force =     0.31867488   -0.00144837   -0.00200505
     atom   26 type  1   force =    -0.68473399    0.39592869    0.44844324
     atom   27 type  1   force =    -0.46056751    0.26591514   -0.72552221
     atom   28 type  1   force =    -0.00055568   -0.78862102    0.44598921
     atom   29 type  1   force =     0.00000464   -0.53073144   -0.72467774
     atom   30 type  1   force =     0.79220912    1.36982035    0.00012791
     atom   31 type  1   force =     0.16058030    0.27667559    0.00032846
     atom   32 type  2   force =    -0.00091683    1.06319073  -15.18234878
     atom   33 type  2   force =    -0.00059215    6.48695031  -11.22238017
     atom   34 type  2   force =     0.91935489   -0.53543265  -15.18099963
     atom   35 type  2   force =     5.61090807   -3.24243457  -11.22654872
     atom   36 type  2   force =     0.10760953    0.15103641  -14.57712515
     atom   37 type  2   force =     0.49654426    1.06742567  -13.31410967
     atom   38 type  2   force =     0.18469358    0.01930024  -14.57717208
     atom   39 type  2   force =     1.17057091   -0.10440938  -13.31568488
     atom   40 type  2   force =     0.62910392   -0.36352060  -13.34206908
     atom   41 type  2   force =    -0.20574781    0.11643212  -13.71445776
     atom   42 type  2   force =    -0.91997186   -0.53463536  -15.18057449
     atom   43 type  2   force =    -5.60879897   -3.24039556  -11.22937900
     atom   44 type  2   force =    -0.00063417    0.72952702  -13.33775781
     atom   45 type  2   force =    -0.00033176   -0.22991481  -13.71785039
     atom   46 type  2   force =     0.28611023    0.16558008  -15.16025210
     atom   47 type  2   force =     0.20020987    0.11526920  -13.22671266
     atom   48 type  2   force =     0.00005469   -0.33114625  -15.16116595
     atom   49 type  2   force =    -0.00047230   -0.23112879  -13.22705597
     atom   50 type  2   force =     0.07596962   -0.16874736  -14.57847490
     atom   51 type  2   force =     0.67979069   -0.96354547  -13.31287344
     atom   52 type  2   force =    -0.10718375    0.15122936  -14.57862070
     atom   53 type  2   force =    -0.49629135    1.06867574  -13.31258516
     atom   54 type  2   force =    -0.28617871    0.16563925  -15.16117814
     atom   55 type  2   force =    -0.20023755    0.11482385  -13.22658755
     atom   56 type  2   force =    -0.62794473   -0.36206609  -13.34426917
     atom   57 type  2   force =     0.20805143    0.11850906  -13.71446710
     atom   58 type  2   force =    -0.07532032   -0.16876048  -14.57768866
     atom   59 type  2   force =    -0.67883333   -0.96237848  -13.31451800
     atom   60 type  2   force =    -0.00017147   -0.00046222  -13.97270658
     atom   61 type  2   force =    -0.00000072    0.00009011  -13.92442374
     atom   62 type  2   force =    -0.18429868    0.01938684  -14.57787409
     atom   63 type  2   force =    -1.16998257   -0.10544457  -13.31591005
     atom   64 type  2   force =     5.61485037    3.23893677   11.22293327
     atom   65 type  2   force =     0.92378611    0.52977611   15.18240248
     atom   66 type  2   force =     0.20076671   -0.11666918   13.71657304
     atom   67 type  2   force =    -0.62820561    0.36403887   13.34008004
     atom   68 type  2   force =    -0.19953235   -0.11601681   13.23121326
     atom   69 type  2   force =    -0.28547378   -0.16526186   15.15862016
     atom   70 type  2   force =    -0.00054171    0.23852159   13.71530236
     atom   71 type  2   force =    -0.00007085   -0.72250391   13.34509783
     atom   72 type  2   force =    -5.61188492    3.23613290   11.22493942
     atom   73 type  2   force =    -0.92473745    0.52852472   15.18216840
     atom   74 type  2   force =    -0.00083625   -6.47135684   11.23017059
     atom   75 type  2   force =    -0.00146621   -1.06483987   15.18077731
     atom   76 type  2   force =    -1.17488199    0.10814623   13.31534499
     atom   77 type  2   force =    -0.18408671   -0.01919371   14.57610794
     atom   78 type  2   force =    -0.49319936   -1.06982669   13.31690523
     atom   79 type  2   force =    -0.10949753   -0.14998716   14.57552768
     atom   80 type  2   force =     0.67633568    0.96180633   13.31593682
     atom   81 type  2   force =     0.07567500    0.16799462   14.57453213
     atom   82 type  2   force =    -0.19914961   -0.11485252   13.71835605
     atom   83 type  2   force =     0.62859289    0.36439444   13.33801356
     atom   84 type  2   force =     1.17469781    0.10618167   13.31476318
     atom   85 type  2   force =     0.18275266   -0.01825336   14.57626528
     atom   86 type  2   force =     0.00018445   -0.00117364   13.92758287
     atom   87 type  2   force =    -0.00027666   -0.00180638   13.96889106
     atom   88 type  2   force =    -0.67674989    0.96065429   13.31738611
     atom   89 type  2   force =    -0.07437829    0.16942467   14.57431978
     atom   90 type  2   force =     0.00069094    0.23238974   13.23007539
     atom   91 type  2   force =     0.00150633    0.33114219   15.15739759
     atom   92 type  2   force =     0.20032600   -0.11557871   13.23098618
     atom   93 type  2   force =     0.28670601   -0.16424672   15.15875987
     atom   94 type  2   force =     0.49320808   -1.06865723   13.31791185
     atom   95 type  2   force =     0.10976817   -0.14888146   14.57543733
     atom   96 type  2   force =    -0.01263930   -0.03452854    0.00096914
     The local contribution  to forces
     atom    1 type  1   force =     0.00063145    0.00110985    0.00043720
     atom    2 type  1   force =    -0.81247612    1.41645449    0.00161278
     atom    3 type  1   force =    -0.15869365    0.27588567   -0.00021705
     atom    4 type  1   force =     0.00084021   -0.00104427    0.00211761
     atom    5 type  1   force =    -0.00016888   -0.00010592    0.00261943
     atom    6 type  1   force =     0.82391683   -1.42034632    0.00182406
     atom    7 type  1   force =     0.16091949   -0.27669632    0.00073178
     atom    8 type  1   force =     1.63549342    0.00522888   -0.00268287
     atom    9 type  1   force =     0.32007270    0.00131504    0.00275668
     atom   10 type  1   force =     0.81444794    1.41184931   -0.00028141
     atom   11 type  1   force =     0.15940522    0.27675845   -0.00051545
     atom   12 type  1   force =     0.00016837   -0.76935281    0.42121304
     atom   13 type  1   force =     0.00054294   -0.51773085   -0.71201556
     atom   14 type  1   force =    -0.66408383    0.38360691    0.41951234
     atom   15 type  1   force =    -0.44664413    0.25895644   -0.70937102
     atom   16 type  1   force =    -0.00070259   -0.00010047   -0.00361470
     atom   17 type  1   force =    -0.00053649    0.00020456   -0.00038158
     atom   18 type  1   force =    -0.66558577   -0.38550205   -0.42284007
     atom   19 type  1   force =    -0.44890008   -0.25923593    0.71368910
     atom   20 type  1   force =    -0.00068531   -0.00189221    0.00065287
     atom   21 type  1   force =    -0.00013650   -0.00051314    0.00243943
     atom   22 type  1   force =     0.66396325    0.38337906    0.41839374
     atom   23 type  1   force =     0.44614871    0.25807148   -0.70914338
     atom   24 type  1   force =    -1.64034027    0.00349127   -0.00266675
     atom   25 type  1   force =    -0.31954358    0.00146889    0.00199385
     atom   26 type  1   force =     0.66507067   -0.38457861   -0.42246153
     atom   27 type  1   force =     0.44736839   -0.25831040    0.71170317
     atom   28 type  1   force =     0.00057770    0.76594548   -0.42007018
     atom   29 type  1   force =     0.00004148    0.51549094    0.71088833
     atom   30 type  1   force =    -0.82287868   -1.42292422   -0.00012266
     atom   31 type  1   force =    -0.16096656   -0.27736858   -0.00033194
     atom   32 type  2   force =     0.00094562   -1.05884919   14.91978005
     atom   33 type  2   force =     0.00065146   -6.40759775   11.03647406
     atom   34 type  2   force =    -0.91563122    0.53330569   14.91843387
     atom   35 type  2   force =    -5.54228416    3.20290051   11.04070679
     atom   36 type  2   force =    -0.10201620   -0.14863969   14.32695697
     atom   37 type  2   force =    -0.44328218   -1.08879913   13.11307889
     atom   38 type  2   force =    -0.17976110   -0.01566566   14.32699348
     atom   39 type  2   force =    -1.16234640    0.16104145   13.11462529
     atom   40 type  2   force =    -0.63254938    0.36552028   13.06780262
     atom   41 type  2   force =     0.21125539   -0.11955754   13.49285810
     atom   42 type  2   force =     0.91623178    0.53246526   14.91800815
     atom   43 type  2   force =     5.54019140    3.20080011   11.04355034
     atom   44 type  2   force =     0.00059192   -0.73357398   13.06343155
     atom   45 type  2   force =     0.00029919    0.23623264   13.49624947
     atom   46 type  2   force =    -0.28232327   -0.16336270   14.90726421
     atom   47 type  2   force =    -0.19070199   -0.10975467   13.01350229
     atom   48 type  2   force =    -0.00008862    0.32679001   14.90816895
     atom   49 type  2   force =     0.00043956    0.22019433   13.01382881
     atom   50 type  2   force =    -0.07664573    0.16266404   14.32829387
     atom   51 type  2   force =    -0.72481709    0.92806144   13.11181564
     atom   52 type  2   force =     0.10159084   -0.14885245   14.32843257
     atom   53 type  2   force =     0.44302061   -1.09010469   13.11154805
     atom   54 type  2   force =     0.28232627   -0.16342320   14.90817244
     atom   55 type  2   force =     0.19068108   -0.10931564   13.01335942
     atom   56 type  2   force =     0.63137866    0.36410852   13.07000792
     atom   57 type  2   force =    -0.21353587   -0.12157787   13.49283768
     atom   58 type  2   force =     0.07601765    0.16272119   14.32751521
     atom   59 type  2   force =     0.72382959    0.92694954   13.11344646
     atom   60 type  2   force =     0.00020421    0.00040188   13.72777185
     atom   61 type  2   force =     0.00003419   -0.00015162   13.71166078
     atom   62 type  2   force =     0.17943199   -0.01574620   14.32768321
     atom   63 type  2   force =     1.16183271    0.16204667   13.11482860
     atom   64 type  2   force =    -5.54620447   -3.19921342  -11.03701794
     atom   65 type  2   force =    -0.92003739   -0.52755621  -14.91983974
     atom   66 type  2   force =    -0.20624276    0.11988590  -13.49497502
     atom   67 type  2   force =     0.63166852   -0.36603122  -13.06580509
     atom   68 type  2   force =     0.19008192    0.11050842  -13.01798587
     atom   69 type  2   force =     0.28170836    0.16304410  -14.90562554
     atom   70 type  2   force =     0.00060850   -0.24482710  -13.49366815
     atom   71 type  2   force =     0.00011830    0.72648731  -13.07084572
     atom   72 type  2   force =     5.54332768   -3.19645931  -11.03906742
     atom   73 type  2   force =     0.92102110   -0.52635070  -14.91960645
     atom   74 type  2   force =     0.00083663    6.39219109  -11.04433583
     atom   75 type  2   force =     0.00144280    1.06050092  -14.91821933
     atom   76 type  2   force =     1.16669754   -0.16493778  -13.11429550
     atom   77 type  2   force =     0.17914275    0.01554311  -14.32593525
     atom   78 type  2   force =     0.44005129    1.09104349  -13.11583286
     atom   79 type  2   force =     0.10390063    0.14755443  -14.32534798
     atom   80 type  2   force =    -0.72142357   -0.92637537  -13.11490165
     atom   81 type  2   force =    -0.07638686   -0.16192319  -14.32435397
     atom   82 type  2   force =     0.20464244    0.11800631  -13.49674805
     atom   83 type  2   force =    -0.63206317   -0.36644529  -13.06369445
     atom   84 type  2   force =    -1.16658530   -0.16303274  -13.11371953
     atom   85 type  2   force =    -0.17789307    0.01459623  -14.32607716
     atom   86 type  2   force =    -0.00023017    0.00116212  -13.71481439
     atom   87 type  2   force =     0.00022872    0.00179583  -13.72394549
     atom   88 type  2   force =     0.72173738   -0.92522213  -13.11632939
     atom   89 type  2   force =     0.07506854   -0.16330850  -14.32414251
     atom   90 type  2   force =    -0.00065727   -0.22140184  -13.01686349
     atom   91 type  2   force =    -0.00148029   -0.32674714  -14.90440904
     atom   92 type  2   force =    -0.19078159    0.11005798  -13.01775510
     atom   93 type  2   force =    -0.28286090    0.16201310  -14.90575263
     atom   94 type  2   force =    -0.44010454    1.08987017  -13.11682136
     atom   95 type  2   force =    -0.10418138    0.14648374  -14.32524341
     atom   96 type  2   force =     0.01254414    0.03427278   -0.00091222
     The core correction contribution to forces
     atom    1 type  1   force =    -0.00000010    0.00000038    0.00000042
     atom    2 type  1   force =    -0.00080632    0.00139541   -0.00000131
     atom    3 type  1   force =    -0.00000155    0.00000218   -0.00000008
     atom    4 type  1   force =    -0.00000100    0.00000090   -0.00000175
     atom    5 type  1   force =    -0.00000024   -0.00000016   -0.00000022
     atom    6 type  1   force =     0.00080195   -0.00138903   -0.00000212
     atom    7 type  1   force =     0.00000096   -0.00000223    0.00000015
     atom    8 type  1   force =     0.00160966   -0.00000005   -0.00000001
     atom    9 type  1   force =     0.00000243    0.00000010    0.00000052
     atom   10 type  1   force =     0.00080658    0.00139681   -0.00000095
     atom   11 type  1   force =     0.00000143    0.00000132    0.00000068
     atom   12 type  1   force =    -0.00000084    0.00041776   -0.00045263
     atom   13 type  1   force =    -0.00000047    0.00031706    0.00024528
     atom   14 type  1   force =     0.00036036   -0.00020848   -0.00045216
     atom   15 type  1   force =     0.00027392   -0.00015809    0.00024467
     atom   16 type  1   force =     0.00000116    0.00000037   -0.00000010
     atom   17 type  1   force =    -0.00000007    0.00000029    0.00000128
     atom   18 type  1   force =     0.00036211    0.00020799    0.00045143
     atom   19 type  1   force =     0.00027492    0.00015800   -0.00024390
     atom   20 type  1   force =     0.00000119    0.00000219   -0.00000144
     atom   21 type  1   force =     0.00000006   -0.00000016   -0.00000002
     atom   22 type  1   force =    -0.00036061   -0.00020772   -0.00045141
     atom   23 type  1   force =    -0.00027388   -0.00015753    0.00024448
     atom   24 type  1   force =    -0.00160580    0.00000026    0.00000089
     atom   25 type  1   force =    -0.00000276   -0.00000022    0.00000024
     atom   26 type  1   force =    -0.00036135    0.00020781    0.00045145
     atom   27 type  1   force =    -0.00027417    0.00015805   -0.00024355
     atom   28 type  1   force =     0.00000018   -0.00041614    0.00045043
     atom   29 type  1   force =     0.00000041   -0.00031608   -0.00024309
     atom   30 type  1   force =    -0.00080068   -0.00138656   -0.00000084
     atom   31 type  1   force =    -0.00000068   -0.00000180    0.00000064
     atom   32 type  2   force =     0.00000011    0.00008976   -0.00564259
     atom   33 type  2   force =     0.00000162    0.00152038   -0.00417904
     atom   34 type  2   force =     0.00007626   -0.00004096   -0.00564125
     atom   35 type  2   force =     0.00131958   -0.00075433   -0.00416681
     atom   36 type  2   force =     0.00004032    0.00000413   -0.00562335
     atom   37 type  2   force =     0.00113937   -0.00048477   -0.00454800
     atom   38 type  2   force =     0.00002470    0.00003400   -0.00562341
     atom   39 type  2   force =     0.00014687    0.00123306   -0.00454710
     atom   40 type  2   force =    -0.00008645    0.00004808   -0.00592243
     atom   41 type  2   force =     0.00022932   -0.00013081   -0.00508438
     atom   42 type  2   force =    -0.00007691   -0.00004150   -0.00564147
     atom   43 type  2   force =    -0.00131990   -0.00075596   -0.00415994
     atom   44 type  2   force =     0.00000094   -0.00010108   -0.00592260
     atom   45 type  2   force =    -0.00000008    0.00025989   -0.00508410
     atom   46 type  2   force =    -0.00006650   -0.00003651   -0.00566152
     atom   47 type  2   force =     0.00023773    0.00014056   -0.00488821
     atom   48 type  2   force =    -0.00000057    0.00007610   -0.00566242
     atom   49 type  2   force =    -0.00000097   -0.00027251   -0.00488575
     atom   50 type  2   force =    -0.00001545   -0.00004189   -0.00562412
     atom   51 type  2   force =    -0.00099446   -0.00073971   -0.00454993
     atom   52 type  2   force =    -0.00004010    0.00000389   -0.00562383
     atom   53 type  2   force =    -0.00114053   -0.00048590   -0.00454890
     atom   54 type  2   force =     0.00006636   -0.00003708   -0.00566204
     atom   55 type  2   force =    -0.00023874    0.00014019   -0.00488821
     atom   56 type  2   force =     0.00008698    0.00004730   -0.00592293
     atom   57 type  2   force =    -0.00022819   -0.00012996   -0.00508485
     atom   58 type  2   force =     0.00001551   -0.00004189   -0.00562426
     atom   59 type  2   force =     0.00099240   -0.00073947   -0.00454925
     atom   60 type  2   force =    -0.00000146    0.00000145   -0.00538537
     atom   61 type  2   force =    -0.00000068    0.00000336   -0.00458019
     atom   62 type  2   force =    -0.00002433    0.00003394   -0.00562403
     atom   63 type  2   force =    -0.00014705    0.00123303   -0.00454727
[...]
              0.222588502633991E+03
              0.101099398058019E+03
              0.164537487362027E+03
             -0.917116856644338E+01
              0.505759510846601E+03
              0.847758248939431E+02
             -0.780671498610718E+02
              0.927407145283451E+01
             -0.511747028178638E+02
              0.415263925300640E+03
             -0.237300569000296E+02
              0.892526998181198E+02
              0.299435894439076E+03
              0.657211470127090E+02
             -0.236330519120774E+03
             -0.344439542531186E+03
              0.360286620095212E+01
             -0.387377403139699E+03
              0.131440544753328E+03
             -0.784056349971984E+02
             -0.181905897987578E+03
              0.163601158431613E+03
              0.628584222516047E+02
              0.147561284615844E+03
              0.130998228175774E+02
              0.235037278125461E+03
             -0.384170784635476E+03
             -0.351509260006055E+02
             -0.335024746879936E+03
              0.604687107243572E+02
              0.181390254448592E+03
             -0.333932332774455E+02
             -0.126136187431963E+03
              0.269975814962970E+03
             -0.125244307626144E+03
              0.879537998490757E+02
             -0.785456413558072E+02
              0.192750804275495E+03
              0.232682431648681E+03
             -0.100415782887421E+03
              0.200299927257011E+03
              0.768639055148333E+02
             -0.206449005191614E+03
             -0.123500256490104E+03
              0.332947114692687E+03
              0.157773322476631E+03
             -0.151881603627803E+02
             -0.448003518331438E+02
              0.489398989454469E+03
              0.293466741227448E+03
              0.107577722177343E+03
             -0.313584106112752E+03
              0.491151697136572E+03
             -0.222190496775709E+03
             -0.275429489427551E+03
             -0.426481050823440E+03
              0.205607262518247E+03
             -0.390209132900410E+03
              0.169294548751644E+03
              0.277935133668591E+03
              0.206007403255810E+03
              0.437593693670589E+02
              0.122772983827564E+03
             -0.307649452434180E+03
             -0.109403368888208E+03
             -0.990956783962124E+02
              0.148650487976846E+03
              0.331612921264149E+03
              0.327079740191065E+03
              0.250299242403121E+03
             -0.617261072162073E+02
              0.889229572982672E+02
              0.123940277862223E+02
             -0.982498100793800E+02
              0.146598995745592E+03
              0.140309235220507E+03
             -0.200285879984814E+03
             -0.202888006135888E+03
             -0.929110437033294E+02
              0.215564053327531E+03
              0.109725253706208E+03
             -0.146799316133469E+03
             -0.255608587098350E+03
             -0.351102797469981E+03
              0.735162707940952E+01
              0.999357394384015E+02
             -0.135924364103388E+03
              0.498823524036663E+03
              0.469199653077067E+01
             -0.579447194234810E+03
              0.145338815402333E+03
              0.239210795566011E+03
             -0.868747361618280E+02
              0.926312497119625E+01
             -0.131124038300351E+03
              0.222459322955460E+03
              0.109838819145959E+03
             -0.292849090957754E+03
              0.347760071014510E+03
              0.235810407769904E+02
             -0.138920478025701E+03
             -0.171234823245310E+03
              0.697094823860617E+03
              0.311517431673558E+03
             -0.782472353286512E+02
              0.172018269294293E+03
             -0.339718172001843E+03
             -0.735780576012462E+02
             -0.301919670602975E+03
              0.116667233039856E+03
              0.216673280069573E+03
              0.238344054627623E+03
             -0.104525592950649E+03
              0.179618898210815E+02
              0.296910038813557E+03
              0.950064365463604E+02
              0.176983804190548E+03
              0.719565439259020E+02
             -0.399267160025947E+02
              0.739848784921605E+00
             -0.552406216320467E+02
              0.615707022186466E+02
              0.206527876637851E+02
             -0.269757223526783E+03
              0.413219444699932E+03
              0.159049660456021E+03
             -0.292847629605269E+03
             -0.215147437541946E+03
             -0.303765354228417E+03
             -0.131827996890680E+03
             -0.956149823790652E+02
             -0.240357490643632E+03
             -0.237227708525447E+03
              0.285731764416327E+03
              0.227347951210516E+03
             -0.313814908864970E+02
              0.341365400341428E+03
              0.491882882975997E+02
             -0.548488741072918E+03
              0.294419572183585E+03
              0.502972844711751E+02
              0.231334805839763E+03
              0.312987309740142E+02
              0.260486097770435E+02
              0.471804943348764E+02
              0.125024122965968E+03
             -0.228870213140635E+03
             -0.107988324101156E+03
             -0.216312651441985E+03
             -0.179100369630888E+03
              0.746127661109458E+02
             -0.198742358874719E+03
              0.957620648202237E+02
              0.131538765080241E+03
             -0.121735634276426E+03
             -0.777365555545177E+02
              0.504954289527689E+01
              0.340906336520216E+03
              0.515633034133396E+02
              0.327289460007534E+03
              0.117320213604236E+03
             -0.432782372116808E+03
             -0.143525659066640E+03
              0.147596384647006E+03
              0.340424747597912E+03
              0.562906380979538E+02
              0.139930800482544E+03
              0.313314253100515E+03
             -0.181451512594871E+03
             -0.278523989768882E+03
              0.386201564523883E+03
              0.224173561599996E+02
             -0.408192660164469E+03
              0.149173810183114E+03
              0.258431711796906E+03
             -0.661639674550916E+02
             -0.269021514550949E+03
              0.560234895808626E+02
              0.116034429113479E+02
             -0.130729054241121E+03
              0.501224526624583E+02
             -0.435620388986584E+02
              0.607278326621693E+03
              0.176690432919062E+03
             -0.257211860276405E+03
              0.759674290236180E+02
              0.369795660095924E+03
             -0.249874365221771E+03
             -0.651218299092452E+02
             -0.236395900457337E+03
              0.189341444935950E+03
              0.599300994058567E+02
              0.125145174873560E+03
              0.226083901752590E+02
              0.429610446731619E+03
             -0.244359047745964E+03
             -0.193008778280006E+03
             -0.186278586534340E+03
              0.163635221535618E+03
              0.426857955163655E+03
             -0.712641766968540E+02
              0.174703958082727E+03
             -0.248018724277744E+03
              0.475704286188968E+02
             -0.793965172427069E+02
              0.172242384361221E+02
             -0.961445148900601E+02
             -0.784518590530148E+02
             -0.770103181603965E+02
              0.635015466414475E+02
              0.124015338748780E+03
             -0.270543172225005E+03
              0.200235553323803E+03
             -0.322462447874018E+03
              0.243280013585957E+03
             -0.257224664079327E+03
              0.416807031227198E+03
              0.228897306450263E+03
              0.263480920199558E+03
              0.653719509454752E+02
              0.768881836738733E+02
             -0.575733894318733E+03
              0.935193845488369E+02
              0.212117315828905E+02
              0.548170556662826E+02
             -0.939685457191316E+02
              0.445159178062463E+03
             -0.103505087215847E+03
             -0.183985544865332E+03
             -0.430825749689064E+03
             -0.149510563528806E+03
             -0.206662081731157E+03
             -0.179633492802403E+03
             -0.405708612165593E+02
             -0.984443157848218E+02
             -0.124987049251783E+03
             -0.191752186232744E+03
              0.146814375977059E+03
              0.462504080149702E+03
              0.390697525107198E+03
             -0.693628833034054E+02
             -0.469741586118799E+03
             -0.200232278363026E+03
              0.961086646243666E+02
              0.960758162668759E+02
              0.153531148834845E+03
              0.107955186230495E+03
              0.190418352628235E+02
              0.458918436591147E+03
             -0.111578450107941E+03
              0.225534334902229E+03
              0.115855902776282E+03
             -0.156332217211705E+03
             -0.749509233632771E+02
              0.207914594960130E+03
             -0.110975852956904E+03
             -0.682345854845257E+02
             -0.505267708912479E+02
              0.267742015879006E+03
             -0.352154540238866E+03
             -0.283479202314188E+02
             -0.271801333394573E+03
             -0.577483639401362E+03
             -0.151819898016402E+01
             -0.851262533977279E+02
              0.224434274305128E+03
              0.249520501336583E+03
              0.341336585021941E+03
             -0.221994590318599E+03
              0.345095417688555E+03
              0.862244560088506E+02
             -0.128061088282475E+03
              0.461019401120703E+02
             -0.109096311280903E+03
             -0.644851348782604E+02
              0.199310869577625E+03
             -0.165094910693625E+03
              0.442712077917934E+03
             -0.118029008110490E+03
             -0.244641878900447E+03
              0.462903469387823E+03
             -0.250627471718572E+03
             -0.201564907256043E+02
              0.243929026480132E+02
              0.133697152345109E+03
             -0.195633615621277E+03
             -0.149030049745389E+03
              0.237822319814553E+03
             -0.357693657833762E+03
              0.295034494822291E+03
              0.436161805952954E+02
              0.211451461580548E+03
              0.306294123518750E+03
              0.783802147008711E+02
             -0.425516129025912E+03
             -0.184136420644552E+03
             -0.307280493925381E+03
             -0.182840208875642E+03
             -0.488313338610201E+02
              0.659265151452230E+02
             -0.143385624894433E+03
             -0.245533269579028E+01
             -0.427555607491252E+03
              0.238383920125247E+02
             -0.275633369833680E+03
              0.267222438319905E+03
             -0.156671790951258E+03
             -0.377369010264901E+02
              0.201667973124727E+03
              0.398290449147545E+02
              0.187484558038155E+03
             -0.357249675373155E+03
              0.594471196571594E+02
              0.244696516056616E+02
              0.153727641732155E+03
              0.246544643002737E+03
             -0.455871813653885E+02
             -0.280792371202250E+03
             -0.162257544090808E+03
             -0.114635949988155E+03
             -0.338881114219485E+02
              0.261726515529816E+03
              0.169830342869675E+03
             -0.172173019418321E+03
             -0.161587163171005E+03
              0.118623745655553E+03
              0.129189940860646E+03
             -0.348903712424805E+03
              0.813960758100493E+02
              0.250342029368266E+03
             -0.110997530562535E+02
              0.315079548472066E+03
              0.145697390834413E+03
              0.248035458473706E+03
              0.377015182965649E+03
              0.568327826953793E+02
             -0.513861599552635E+03
              0.708645234925398E+02
              0.555622424373806E+03
              0.403775513373969E+03
             -0.278387959601071E+03
              0.251442877640175E+02
              0.361331647193656E+03
              0.313236577777315E+03
              0.137653481813592E+03
             -0.832711232104104E+02
              0.138294069049691E+03
              0.286351873020862E+03
             -0.132355266759431E+03
             -0.851567708070068E+02
              0.193956640591303E+03
             -0.117883637461027E+02
              0.173963781579313E+03
             -0.538644011609472E+02
              0.363094028615808E+03
             -0.138516866123041E+03
              0.832661265617892E+02
             -0.153924754258784E+03
              0.179678397773831E+03
             -0.243750393406895E+02
              0.267698022055350E+03
              0.191169590343372E+02
              0.119774686132312E+03
             -0.170258746157676E+03
             -0.119037651827904E+03
             -0.606753995543108E+02
             -0.552681820324191E+02
              0.291473047766247E+03
              0.143334244880523E+03
              0.353785883045476E+03
              0.326329369924505E+03
              0.915597018487174E+02
              0.164797077839612E+02
              0.348005199056193E+03
              0.195540525614623E+03
              0.237294947248756E+00
              0.338904177281821E+03
             -0.278115589869982E+03
              0.975186997111368E+02
             -0.181084641157658E+03
             -0.492548731145400E+02
              0.468551365264065E+03
             -0.656785519616919E+02
             -0.194898566626671E+02
             -0.510337010248224E+02
              0.384894030865178E+03
             -0.827327773326442E+02
             -0.708648244638107E+01
              0.776646905699661E+03
             -0.229942657695270E+03
             -0.286897635218844E+03
             -0.287167899035445E+03
             -0.183516640775357E+03
              0.167200277061553E+03
             -0.750090416617882E+02
              0.425731204914018E+02
             -0.194180437710638E+02
              0.983780069309197E+02
              0.158062011972940E+03
              0.184169677645950E+03
              0.265112053941503E+03
              0.169805772166518E+03
              0.173248625814262E+03
             -0.320407343066201E+03
             -0.330894380089911E+03
             -0.746159924280220E+02
             -0.295773725546936E+03
              0.469654724493010E+03
              0.395634546652068E+03
              0.186534912504319E+03
              0.514344145090714E+03
             -0.257079182901455E+03
             -0.110727699942928E+03
             -0.159498267174529E+03
              0.444895681832348E+03
 
 BEEF-vdW xc energy contributions
            1 :    -4022.259930875422     
            2 :     3686.105017624594     
            3 :    -3112.500000307657     
            4 :     2453.932970865401     
            5 :    -1854.508549058883     
            6 :     1403.349901491588     
            7 :    -1119.678361126754     
            8 :     965.9786400236626     
            9 :    -876.6840930169765     
           10 :     789.7140162669903     
           11 :    -670.0116375699799     
           12 :     517.1917987537063     
           13 :    -356.1438211049262     
           14 :     217.9203167618161     
           15 :    -122.2977206558935     
           16 :     70.13010363182457     
           17 :    -46.58036639141210     
           18 :     30.95035561271197     
           19 :    -7.288300144632558     
           20 :    -28.96293895226518     
           21 :     70.76276989372491     
           22 :    -105.2522169834156     
           23 :     122.1074862220685     
           24 :    -119.7363257714142     
           25 :     106.0256789565065     
           26 :    -93.69671532038774     
           27 :     93.29748656345964     
           28 :    -107.7524208052891     
           29 :     131.1501874642418     
           30 :    -152.1344230290069     
           31 :    -345.7916609326076     
           32 :    -248.7797437869303     

     Writing all to output data dir ./PbI2.save/
 
     init_run     :     10.73s CPU     11.80s WALL (       1 calls)
     electrons    :    235.12s CPU    246.85s WALL (       1 calls)
     forces       :      7.84s CPU      8.13s WALL (       1 calls)
     stress       :    112.74s CPU    113.88s WALL (       1 calls)

     Called by init_run:
     wfcinit      :      6.07s CPU      6.74s WALL (       1 calls)
     potinit      :      1.33s CPU      1.44s WALL (       1 calls)
     hinit0       :      0.97s CPU      1.06s WALL (       1 calls)

     Called by electrons:
     c_bands      :    225.25s CPU    236.15s WALL (       2 calls)
     sum_band     :      6.34s CPU      6.63s WALL (       2 calls)
     v_of_rho     :      1.66s CPU      1.78s WALL (       2 calls)
     v_h          :      0.02s CPU      0.02s WALL (       2 calls)
     v_xc         :     26.25s CPU     28.30s WALL (      38 calls)
     newd         :      0.59s CPU      0.83s WALL (       2 calls)
     PAW_pot      :      0.57s CPU      0.58s WALL (       2 calls)
     mix_rho      :      0.00s CPU      0.00s WALL (       2 calls)
     vdW_kernel   :      0.25s CPU      0.26s WALL (       1 calls)

     Called by c_bands:
     init_us_2    :      0.17s CPU      0.19s WALL (       4 calls)
     init_us_2:cp :      0.17s CPU      0.19s WALL (       4 calls)
     cegterg      :    223.71s CPU    233.03s WALL (       2 calls)

     Called by sum_band:
     sum_band:wei :      0.00s CPU      0.00s WALL (       2 calls)
     sum_band:loo :      5.58s CPU      5.62s WALL (       2 calls)
     sum_band:buf :      0.00s CPU      0.00s WALL (       2 calls)
     sum_band:ini :      0.14s CPU      0.14s WALL (       2 calls)
     sum_band:cal :      2.42s CPU      2.44s WALL (       2 calls)
     sum_band:bec :      0.04s CPU      0.04s WALL (       2 calls)
     addusdens    :      0.66s CPU      0.91s WALL (       2 calls)
     addusd:skk   :      0.07s CPU      0.07s WALL (       4 calls)
     addusd:dgemm :      0.35s CPU      0.59s WALL (       4 calls)
     addusd:qvan2 :      0.23s CPU      0.23s WALL (       4 calls)

     Called by *egterg:
     cdiaghg      :    171.96s CPU    179.14s WALL (      21 calls)
     cegterg:over :      9.02s CPU      9.31s WALL (      21 calls)
     cegterg:upda :      5.00s CPU      5.12s WALL (      21 calls)
     cegterg:last :      2.43s CPU      2.45s WALL (       2 calls)
     h_psi        :     25.99s CPU     26.36s WALL (      23 calls)
     s_psi        :      5.51s CPU      5.55s WALL (      23 calls)
     g_psi        :      0.05s CPU      0.05s WALL (      21 calls)

     Called by h_psi:
     h_psi:calbec :      6.07s CPU      6.12s WALL (      23 calls)
     vloc_psi     :     14.31s CPU     14.45s WALL (      23 calls)
     add_vuspsi   :      5.48s CPU      5.55s WALL (      23 calls)

     General routines
     calbec       :     14.58s CPU     14.68s WALL (      30 calls)
     fft          :     15.77s CPU     15.94s WALL (    2232 calls)
     ffts         :      0.03s CPU      0.03s WALL (       4 calls)
     fftw         :     16.31s CPU     16.45s WALL (   10300 calls)
     interpolate  :      0.04s CPU      0.04s WALL (       2 calls)
 
     Parallel routines

     PAW routines
     PAW_pot      :      0.57s CPU      0.58s WALL (       2 calls)
 
     PWSCF        :   6m35.99s CPU   6m59.41s WALL

 
   This run was terminated on:  11:37: 9   7Mar2024            

=------------------------------------------------------------------------------=
   JOB DONE.
=------------------------------------------------------------------------------=
