
     Program PWSCF v.7.1 starts on  4Mar2024 at  4:41:58 

     This program is part of the open-source Quantum ESPRESSO suite
     for quantum simulation of materials; please cite
         "P. Giannozzi et al., J. Phys.:Condens. Matter 21 395502 (2009);
         "P. Giannozzi et al., J. Phys.:Condens. Matter 29 465901 (2017);
         "P. Giannozzi et al., J. Chem. Phys. 152 154105 (2020);
          URL http://www.quantum-espresso.org", 
     in publications or presentations arising from this work. More details at
     http://www.quantum-espresso.org/quote

     Parallel version (MPI & OpenMP), running on     128 processor cores
     Number of MPI processes:               128
     Threads/MPI process:                     1

     MPI processes distributed on     1 nodes
     1821855 MiB available memory on the printing compute node when the environment starts
 
     Reading input from espresso.pwi
Warning: card &CELL ignored
Warning: card    CELL_DYNAMICS    = 'BFGS' ignored
Warning: card / ignored

     Current dimensions of program PWSCF are:
     Max number of different atomic species (ntypx) = 10
     Max number of k-points (npk) =  40000
     Max angular momentum in pseudopotentials (lmaxx) =  4
     file Pb.pbe-dn-kjpaw_psl.1.0.0.UPF: wavefunction(s)  6S 6P 5D renormalized
     file I.pbe-dn-kjpaw_psl.1.0.0.UPF: wavefunction(s)  5S 5P renormalized

     **************************************************************************
     Initializing libbeef V0.1.2 with the BEEF-vdW functional.
     Citation: Wellendorff et al., PRB 85, 235149 (2012).
     **************************************************************************


     IMPORTANT: XC functional enforced from input :
     Exchange-correlation= BEEF-VDW
                           (   1   4  43  14   2   0   0)
     Any further DFT definition will be discarded
     Please, verify this is what you really want

 
     R & G space division:  proc/nbgrp/npool/nimage =     128
     Subspace diagonalization in iterative solution of the eigenvalue problem:
     a serial algorithm will be used

 
     Parallelization info
     --------------------
     sticks:   dense  smooth     PW     G-vecs:    dense   smooth      PW
     Min         238     190     47                26444    18918    2361
     Max         239     191     48                26451    18927    2368
     Sum       30577   24439   6121              3385235  2422379  302703
 
     Using Slab Decomposition
 


     bravais-lattice index     =            4
     lattice parameter (alat)  =      35.6073  a.u.
     unit-cell volume          =   30614.2220 (a.u.)^3
     number of atoms/cell      =           96
     number of atomic types    =            2
     number of electrons       =      1542.00
     number of Kohn-Sham states=          925
     kinetic-energy cutoff     =      70.0000  Ry
     charge density cutoff     =     350.0000  Ry
     scf convergence threshold =      1.0E-07
     mixing beta               =       0.7000
     number of iterations used =            8  plain     mixing
     energy convergence thresh.=      1.0E-04
     force convergence thresh. =      1.0E-03
     Exchange-correlation= BEEF-VDW
                           (   1   4  43  14   2   0   0)
     nstep                     =           50


     celldm(1)=  35.607290  celldm(2)=   0.000000  celldm(3)=   0.783025
     celldm(4)=   0.000000  celldm(5)=   0.000000  celldm(6)=   0.000000

     crystal axes: (cart. coord. in units of alat)
               a(1) = (   1.000000   0.000000   0.000000 )  
               a(2) = (  -0.500000   0.866025   0.000000 )  
               a(3) = (   0.000000   0.000000   0.783025 )  

     reciprocal axes: (cart. coord. in units 2 pi/alat)
               b(1) = (  1.000000  0.577350 -0.000000 )  
               b(2) = (  0.000000  1.154701  0.000000 )  
               b(3) = (  0.000000 -0.000000  1.277098 )  


     PseudoPot. # 1 for Pb read from file:
     //group///packages/espresso/pseudo/psl_1.0.0/pslibrary.1.0.0/pbe/PSEUDOPOTENTIALS/Pb.pbe-dn-kjpaw_psl.1.0.0.UPF
     MD5 check sum: 39ab5b8a6bbd56b7735ad9f188aac93a
     Pseudo is Projector augmented-wave + core cor, Zval = 14.0
     Generated using 'atomic' code by A. Dal Corso  v.7.1
     Shape of augmentation charge: PSQ
     Using radial grid of 1281 points,  6 beta functions with: 
                l(1) =   0
                l(2) =   0
                l(3) =   1
                l(4) =   1
                l(5) =   2
                l(6) =   2
     Q(r) pseudized with 0 coefficients 


     PseudoPot. # 2 for I  read from file:
     //group///packages/espresso/pseudo/psl_1.0.0/pslibrary.1.0.0/pbe/PSEUDOPOTENTIALS/I.pbe-dn-kjpaw_psl.1.0.0.UPF
     MD5 check sum: bfa8781bc1224d19af3f3980e3fab11e
     Pseudo is Projector augmented-wave + core cor, Zval = 17.0
     Generated using 'atomic' code by A. Dal Corso  v.7.1
     Shape of augmentation charge: PSQ
     Using radial grid of 1247 points,  6 beta functions with: 
                l(1) =   0
                l(2) =   0
                l(3) =   1
                l(4) =   1
                l(5) =   2
                l(6) =   2
     Q(r) pseudized with 0 coefficients 


     atomic species   valence    mass     pseudopotential
        Pb            14.00   207.20000     Pb( 1.00)
        I             17.00   126.90447     I ( 1.00)

     No symmetry found


                                    s                        frac. trans.

      isym =  1     identity                                     

 cryst.   s( 1) = (     1          0          0      )
                  (     0          1          0      )
                  (     0          0          1      )

 cart.    s( 1) = (  1.0000000  0.0000000  0.0000000 )
                  (  0.0000000  1.0000000  0.0000000 )
                  (  0.0000000  0.0000000  1.0000000 )


     point group C_1 (1)    
     there are  1 classes
     the character table:

       E    
A      1.00

     the symmetry operations in each class and the name of the first element:

     E        1
          identity                                               

   Cartesian axes

     site n.     atom                  positions (alat units)
         1           Pb  tau(   1) = (   0.1250034   0.2164916   0.3915076  )
         2           Pb  tau(   2) = (   0.0000077   0.4329922   0.7830161  )
         3           Pb  tau(   3) = (   0.0000025   0.4329968   0.3915034  )
         4           Pb  tau(   4) = (  -0.1249932   0.6494975   0.7830119  )
         5           Pb  tau(   5) = (  -0.1249984   0.6495021   0.3914992  )
         6           Pb  tau(   6) = (  -0.2499941   0.8660028   0.7830077  )
         7           Pb  tau(   7) = (  -0.2499993   0.8660074   0.3914950  )
         8           Pb  tau(   8) = (   0.3750086   0.2164859   0.7830237  )
         9           Pb  tau(   9) = (   0.3750034   0.2164905   0.3915110  )
        10           Pb  tau(  10) = (   0.2500077   0.4329912   0.7830194  )
        11           Pb  tau(  11) = (   0.2500025   0.4329958   0.3915068  )
        12           Pb  tau(  12) = (   0.1250068   0.6494965   0.7830152  )
        13           Pb  tau(  13) = (   0.1250016   0.6495011   0.3915026  )
        14           Pb  tau(  14) = (   0.0000059   0.8660017   0.7830110  )
        15           Pb  tau(  15) = (   0.0000007   0.8660063   0.3914983  )
        16           Pb  tau(  16) = (   0.6250086   0.2164849   0.7830270  )
        17           Pb  tau(  17) = (   0.6250034   0.2164895   0.3915143  )
        18           Pb  tau(  18) = (   0.5000077   0.4329901   0.7830228  )
        19           Pb  tau(  19) = (   0.5000025   0.4329947   0.3915101  )
        20           Pb  tau(  20) = (   0.3750068   0.6494954   0.7830186  )
        21           Pb  tau(  21) = (   0.3750016   0.6495000   0.3915059  )
        22           Pb  tau(  22) = (   0.2500059   0.8660007   0.7830144  )
        23           Pb  tau(  23) = (   0.2500007   0.8660053   0.3915017  )
        24           Pb  tau(  24) = (   0.8750086   0.2164838   0.7830303  )
        25           Pb  tau(  25) = (   0.8750034   0.2164884   0.3915177  )
        26           Pb  tau(  26) = (   0.7500077   0.4329891   0.7830261  )
        27           Pb  tau(  27) = (   0.7500025   0.4329937   0.3915135  )
        28           Pb  tau(  28) = (   0.6250068   0.6494944   0.7830219  )
        29           Pb  tau(  29) = (   0.6250016   0.6494990   0.3915092  )
        30           Pb  tau(  30) = (   0.5000059   0.8659996   0.7830177  )
        31           Pb  tau(  31) = (   0.5000007   0.8660042   0.3915050  )
        32           I   tau(  32) = (   0.1250056   0.0721546   0.2909163  )
        33           I   tau(  33) = (   0.1250108   0.0721500   0.6824290  )
        34           I   tau(  34) = (   0.0000047   0.2886599   0.2909121  )
        35           I   tau(  35) = (   0.0000099   0.2886553   0.6824248  )
        36           I   tau(  36) = (  -0.1249962   0.5051652   0.2909079  )
        37           I   tau(  37) = (  -0.1249910   0.5051606   0.6824206  )
        38           I   tau(  38) = (  -0.2499972   0.7216704   0.2909037  )
        39           I   tau(  39) = (  -0.2499919   0.7216658   0.6824164  )
        40           I   tau(  40) = (   0.3750056   0.0721536   0.2909197  )
        41           I   tau(  41) = (   0.3750108   0.0721490   0.6824324  )
        42           I   tau(  42) = (   0.2500047   0.2886589   0.2909155  )
        43           I   tau(  43) = (   0.2500099   0.2886543   0.6824282  )
        44           I   tau(  44) = (   0.1250038   0.5051641   0.2909113  )
        45           I   tau(  45) = (   0.1250090   0.5051595   0.6824240  )
        46           I   tau(  46) = (   0.0000028   0.7216694   0.2909071  )
        47           I   tau(  47) = (   0.0000081   0.7216648   0.6824197  )
        48           I   tau(  48) = (   0.6250056   0.0721525   0.2909230  )
        49           I   tau(  49) = (   0.6250108   0.0721479   0.6824357  )
        50           I   tau(  50) = (   0.5000047   0.2886578   0.2909188  )
        51           I   tau(  51) = (   0.5000099   0.2886532   0.6824315  )
        52           I   tau(  52) = (   0.3750038   0.5051631   0.2909146  )
        53           I   tau(  53) = (   0.3750090   0.5051585   0.6824273  )
        54           I   tau(  54) = (   0.2500028   0.7216683   0.2909104  )
        55           I   tau(  55) = (   0.2500081   0.7216637   0.6824231  )
        56           I   tau(  56) = (   0.8750056   0.0721515   0.2909264  )
        57           I   tau(  57) = (   0.8750108   0.0721469   0.6824391  )
        58           I   tau(  58) = (   0.7500047   0.2886567   0.2909222  )
        59           I   tau(  59) = (   0.7500099   0.2886521   0.6824348  )
        60           I   tau(  60) = (   0.6250038   0.5051620   0.2909180  )
        61           I   tau(  61) = (   0.6250090   0.5051574   0.6824306  )
        62           I   tau(  62) = (   0.5000028   0.7216673   0.2909137  )
        63           I   tau(  63) = (   0.5000081   0.7216627   0.6824264  )
        64           I   tau(  64) = (  -0.0000018   0.1443297   0.1005933  )
        65           I   tau(  65) = (   0.0000034   0.1443251   0.4921060  )
        66           I   tau(  66) = (  -0.1250027   0.3608350   0.1005891  )
        67           I   tau(  67) = (  -0.1249975   0.3608304   0.4921018  )
        68           I   tau(  68) = (  -0.2500036   0.5773403   0.1005849  )
        69           I   tau(  69) = (  -0.2499984   0.5773357   0.4920975  )
        70           I   tau(  70) = (  -0.3750045   0.7938455   0.1005807  )
        71           I   tau(  71) = (  -0.3749993   0.7938409   0.4920933  )
        72           I   tau(  72) = (   0.2499982   0.1443287   0.1005966  )
        73           I   tau(  73) = (   0.2500034   0.1443241   0.4921093  )
        74           I   tau(  74) = (   0.1249973   0.3608340   0.1005924  )
        75           I   tau(  75) = (   0.1250025   0.3608294   0.4921051  )
        76           I   tau(  76) = (  -0.0000036   0.5773392   0.1005882  )
        77           I   tau(  77) = (   0.0000016   0.5773346   0.4921009  )
        78           I   tau(  78) = (  -0.1250045   0.7938445   0.1005840  )
        79           I   tau(  79) = (  -0.1249993   0.7938399   0.4920967  )
        80           I   tau(  80) = (   0.4999982   0.1443276   0.1006000  )
        81           I   tau(  81) = (   0.5000034   0.1443230   0.4921126  )
        82           I   tau(  82) = (   0.3749973   0.3608329   0.1005958  )
        83           I   tau(  83) = (   0.3750025   0.3608283   0.4921084  )
        84           I   tau(  84) = (   0.2499964   0.5773382   0.1005915  )
        85           I   tau(  85) = (   0.2500016   0.5773336   0.4921042  )
        86           I   tau(  86) = (   0.1249955   0.7938434   0.1005873  )
        87           I   tau(  87) = (   0.1250007   0.7938388   0.4921000  )
        88           I   tau(  88) = (   0.7499982   0.1443266   0.1006033  )
        89           I   tau(  89) = (   0.7500034   0.1443220   0.4921160  )
        90           I   tau(  90) = (   0.6249973   0.3608319   0.1005991  )
        91           I   tau(  91) = (   0.6250025   0.3608273   0.4921118  )
        92           I   tau(  92) = (   0.4999964   0.5773371   0.1005949  )
        93           I   tau(  93) = (   0.5000016   0.5773325   0.4921076  )
        94           I   tau(  94) = (   0.3749955   0.7938424   0.1005907  )
        95           I   tau(  95) = (   0.3750007   0.7938378   0.4921034  )
        96           I   tau(  96) = (   0.1250086   0.2164870   0.7830203  )

   Crystallographic axes

     site n.     atom                  positions (cryst. coord.)
         1           Pb  tau(   1) = (  0.2499949  0.2499829  0.4999935  )
         2           Pb  tau(   2) = (  0.2499959  0.4999764  0.9999882  )
         3           Pb  tau(   3) = (  0.2499933  0.4999817  0.4999882  )
         4           Pb  tau(   4) = (  0.2499944  0.7499751  0.9999828  )
         5           Pb  tau(   5) = (  0.2499918  0.7499804  0.4999828  )
         6           Pb  tau(   6) = (  0.2499928  0.9999739  0.9999774  )
         7           Pb  tau(   7) = (  0.2499903  0.9999792  0.4999774  )
         8           Pb  tau(   8) = (  0.4999968  0.2499764  0.9999978  )
         9           Pb  tau(   9) = (  0.4999943  0.2499817  0.4999978  )
        10           Pb  tau(  10) = (  0.4999953  0.4999752  0.9999924  )
        11           Pb  tau(  11) = (  0.4999927  0.4999805  0.4999924  )
        12           Pb  tau(  12) = (  0.4999938  0.7499739  0.9999871  )
        13           Pb  tau(  13) = (  0.4999912  0.7499792  0.4999871  )
        14           Pb  tau(  14) = (  0.4999922  0.9999727  0.9999817  )
        15           Pb  tau(  15) = (  0.4999896  0.9999780  0.4999817  )
        16           Pb  tau(  16) = (  0.7499962  0.2499752  1.0000021  )
        17           Pb  tau(  17) = (  0.7499936  0.2499805  0.5000021  )
        18           Pb  tau(  18) = (  0.7499947  0.4999739  0.9999967  )
        19           Pb  tau(  19) = (  0.7499921  0.4999793  0.4999967  )
        20           Pb  tau(  20) = (  0.7499932  0.7499727  0.9999913  )
        21           Pb  tau(  21) = (  0.7499906  0.7499780  0.4999913  )
        22           Pb  tau(  22) = (  0.7499916  0.9999714  0.9999860  )
        23           Pb  tau(  23) = (  0.7499890  0.9999767  0.4999860  )
        24           Pb  tau(  24) = (  0.9999956  0.2499740  1.0000064  )
        25           Pb  tau(  25) = (  0.9999930  0.2499793  0.5000064  )
        26           Pb  tau(  26) = (  0.9999941  0.4999727  1.0000010  )
        27           Pb  tau(  27) = (  0.9999915  0.4999780  0.5000010  )
        28           Pb  tau(  28) = (  0.9999926  0.7499715  0.9999956  )
        29           Pb  tau(  29) = (  0.9999900  0.7499768  0.4999956  )
        30           Pb  tau(  30) = (  0.9999910  0.9999702  0.9999902  )
        31           Pb  tau(  31) = (  0.9999884  0.9999755  0.4999902  )
        32           I   tau(  32) = (  0.1666641  0.0833170  0.3715286  )
        33           I   tau(  33) = (  0.1666667  0.0833117  0.8715286  )
        34           I   tau(  34) = (  0.1666625  0.3333157  0.3715233  )
        35           I   tau(  35) = (  0.1666651  0.3333104  0.8715233  )
        36           I   tau(  36) = (  0.1666610  0.5833145  0.3715179  )
        37           I   tau(  37) = (  0.1666636  0.5833092  0.8715179  )
        38           I   tau(  38) = (  0.1666595  0.8333132  0.3715125  )
        39           I   tau(  39) = (  0.1666621  0.8333079  0.8715125  )
        40           I   tau(  40) = (  0.4166635  0.0833158  0.3715329  )
        41           I   tau(  41) = (  0.4166661  0.0833105  0.8715329  )
        42           I   tau(  42) = (  0.4166619  0.3333145  0.3715275  )
        43           I   tau(  43) = (  0.4166645  0.3333092  0.8715275  )
        44           I   tau(  44) = (  0.4166604  0.5833133  0.3715222  )
        45           I   tau(  45) = (  0.4166630  0.5833080  0.8715221  )
        46           I   tau(  46) = (  0.4166589  0.8333120  0.3715168  )
        47           I   tau(  47) = (  0.4166614  0.8333067  0.8715168  )
        48           I   tau(  48) = (  0.6666629  0.0833146  0.3715372  )
        49           I   tau(  49) = (  0.6666655  0.0833093  0.8715372  )
        50           I   tau(  50) = (  0.6666613  0.3333133  0.3715318  )
        51           I   tau(  51) = (  0.6666639  0.3333080  0.8715318  )
        52           I   tau(  52) = (  0.6666598  0.5833121  0.3715264  )
        53           I   tau(  53) = (  0.6666624  0.5833068  0.8715264  )
        54           I   tau(  54) = (  0.6666582  0.8333108  0.3715210  )
        55           I   tau(  55) = (  0.6666608  0.8333055  0.8715210  )
        56           I   tau(  56) = (  0.9166623  0.0833134  0.3715414  )
        57           I   tau(  57) = (  0.9166648  0.0833080  0.8715414  )
        58           I   tau(  58) = (  0.9166607  0.3333121  0.3715361  )
        59           I   tau(  59) = (  0.9166633  0.3333068  0.8715361  )
        60           I   tau(  60) = (  0.9166592  0.5833108  0.3715307  )
        61           I   tau(  61) = (  0.9166618  0.5833055  0.8715307  )
        62           I   tau(  62) = (  0.9166576  0.8333096  0.3715253  )
        63           I   tau(  63) = (  0.9166602  0.8333043  0.8715253  )
        64           I   tau(  64) = (  0.0833270  0.1666576  0.1284675  )
        65           I   tau(  65) = (  0.0833296  0.1666523  0.6284675  )
        66           I   tau(  66) = (  0.0833255  0.4166564  0.1284621  )
        67           I   tau(  67) = (  0.0833281  0.4166511  0.6284621  )
        68           I   tau(  68) = (  0.0833239  0.6666551  0.1284567  )
        69           I   tau(  69) = (  0.0833265  0.6666498  0.6284567  )
        70           I   tau(  70) = (  0.0833224  0.9166539  0.1284513  )
        71           I   tau(  71) = (  0.0833250  0.9166486  0.6284513  )
        72           I   tau(  72) = (  0.3333264  0.1666564  0.1284717  )
        73           I   tau(  73) = (  0.3333290  0.1666511  0.6284717  )
        74           I   tau(  74) = (  0.3333249  0.4166552  0.1284664  )
        75           I   tau(  75) = (  0.3333275  0.4166499  0.6284663  )
        76           I   tau(  76) = (  0.3333233  0.6666539  0.1284610  )
        77           I   tau(  77) = (  0.3333259  0.6666486  0.6284610  )
        78           I   tau(  78) = (  0.3333218  0.9166527  0.1284556  )
        79           I   tau(  79) = (  0.3333244  0.9166473  0.6284556  )
        80           I   tau(  80) = (  0.5833258  0.1666552  0.1284760  )
        81           I   tau(  81) = (  0.5833284  0.1666499  0.6284760  )
        82           I   tau(  82) = (  0.5833243  0.4166539  0.1284706  )
        83           I   tau(  83) = (  0.5833269  0.4166486  0.6284706  )
        84           I   tau(  84) = (  0.5833227  0.6666527  0.1284652  )
        85           I   tau(  85) = (  0.5833253  0.6666474  0.6284652  )
        86           I   tau(  86) = (  0.5833212  0.9166514  0.1284599  )
        87           I   tau(  87) = (  0.5833238  0.9166461  0.6284599  )
        88           I   tau(  88) = (  0.8333252  0.1666540  0.1284803  )
        89           I   tau(  89) = (  0.8333278  0.1666487  0.6284803  )
        90           I   tau(  90) = (  0.8333237  0.4166527  0.1284749  )
        91           I   tau(  91) = (  0.8333262  0.4166474  0.6284749  )
        92           I   tau(  92) = (  0.8333221  0.6666515  0.1284695  )
        93           I   tau(  93) = (  0.8333247  0.6666462  0.6284695  )
        94           I   tau(  94) = (  0.8333206  0.9166502  0.1284641  )
        95           I   tau(  95) = (  0.8333232  0.9166449  0.6284641  )
        96           I   tau(  96) = (  0.2499975  0.2499776  0.9999935  )

     number of k points=     1  Gaussian smearing, width (Ry)=  0.0100
                       cart. coord. in units 2pi/alat
        k(    1) = (   0.0000000   0.0000000   0.0000000), wk =   2.0000000

                       cryst. coord.
        k(    1) = (   0.0000000   0.0000000   0.0000000), wk =   2.0000000

     Dense  grid:  3385235 G-vectors     FFT dimensions: ( 216, 216, 180)

     Smooth grid:  2422379 G-vectors     FFT dimensions: ( 192, 192, 150)

     Dynamical RAM for                 wfc:      33.38 MB

     Dynamical RAM for     wfc (w. buffer):      33.38 MB

     Dynamical RAM for           str. fact:       0.81 MB

     Dynamical RAM for           local pot:       0.00 MB

     Dynamical RAM for          nlocal pot:      62.36 MB

     Dynamical RAM for                qrad:       3.00 MB

     Dynamical RAM for          rho,v,vnew:       3.35 MB

     Dynamical RAM for               rhoin:       1.12 MB

     Dynamical RAM for            rho*nmix:       6.46 MB

     Dynamical RAM for           G-vectors:       1.66 MB

     Dynamical RAM for          h,s,v(r/c):     626.68 MB

     Dynamical RAM for          <psi|beta>:      24.39 MB

     Dynamical RAM for                 psi:     133.52 MB

     Dynamical RAM for                hpsi:     133.52 MB

     Dynamical RAM for                spsi:     133.52 MB

     Dynamical RAM for      wfcinit/wfcrot:      86.35 MB

     Dynamical RAM for           addusdens:     101.31 MB

     Dynamical RAM for          addusforce:     153.42 MB

     Dynamical RAM for         addusstress:      81.13 MB

     Estimated static dynamical RAM per process >     110.44 MB

     Estimated max dynamical RAM per process >       1.14 GB

     Estimated total dynamical RAM >     146.07 GB

     Atomic positions and unit cell read from directory:
     ./PbI2.save/
     Atomic positions from file used, from input discarded
 

     Check: negative core charge=   -0.000001

     The initial density is read from file :
     ./PbI2.save/charge-density


     starting charge    1541.0000, renormalised to    1542.0000


     %%%%%%%%%%%%%%%%%%%%%%%%%%%%%%%%%%%%%%%%%%%%%%%%%%%%%%%%%%%%%%%%%%%%%%%%
     %                                                                      %
     % You are using vdW-DF, which was implemented by the Thonhauser group. %
     % Please cite the following two papers that made this development      %
     % possible and the two reviews that describe the various versions:     %
     %                                                                      %
     %   T. Thonhauser et al., PRL 115, 136402 (2015).                      %
     %   T. Thonhauser et al., PRB 76, 125112 (2007).                       %
     %   K. Berland et al., Rep. Prog. Phys. 78, 066501 (2015).             %
     %   D.C. Langreth et al., J. Phys.: Condens. Matter 21, 084203 (2009). %
     %                                                                      %
     % If you are calculating stress with vdW-DF, please also cite:         %
     %                                                                      %
     %   R. Sabatini et al., J. Phys.: Condens. Matter 24, 424209 (2012).   %
     %                                                                      %
     %%%%%%%%%%%%%%%%%%%%%%%%%%%%%%%%%%%%%%%%%%%%%%%%%%%%%%%%%%%%%%%%%%%%%%%%

     %%%%%%%%%%%%%%%%%%%%%%%%%%%%%%%%%%%%%%%%%%%%%%%%%%%%%%%%%%%%%%%%%%%%%%%%
     %                                                                      %
     %  vdW-DF NEWS:                                                        %
     %                                                                      %
     %  * vdW-DF3 is now available. DOI: 10.1021/acs.jctc.0c00471           %
     %    use with input_dft = 'vdW-DF3-opt1' or 'vdW-DF3-opt2'             %
     %                                                                      %
     %  * Unscreened and range-separated vdW-DF hybrid functionals          %
     %    DOI: 10.1063/1.4986522 and 10.1088/1361-648X/ac2ad2               %
     %    use with input_dft = 'vdW-DF-cx0' (etc) and 'vdW-DF-ahcx'         %
     %                                                                      %
     %%%%%%%%%%%%%%%%%%%%%%%%%%%%%%%%%%%%%%%%%%%%%%%%%%%%%%%%%%%%%%%%%%%%%%%%


     Carrying out vdW-DF run using the following parameters:
     Nqs    =  20  Npoints =  1024  r_max =  100.000
     q_mesh =  0.00001000  0.04494208  0.09755937  0.15916263
               0.23128650  0.31572767  0.41458969  0.53033537
               0.66584808  0.82450364  1.01025438  1.22772762
               1.48234092  1.78043706  2.12944203  2.53805004
               3.01644009  3.57652955  4.23227104  5.00000000


     -----------------------------------------------
     Non-local corr. energy    =      46.33961037 Ry
     -----------------------------------------------

     Wavefunctions not found or not readable, recomputing them from scratch
     Starting wfcs are  864 randomized atomic wfcs +   61 random wfcs
     Checking if some PAW data can be deallocated... 
       PAW data deallocated on   66 nodes for type:  1
       PAW data deallocated on   62 nodes for type:  2

     total cpu time spent up to now is       16.7 secs

     Self-consistent Calculation

     iteration #  1     ecut=    70.00 Ry     beta= 0.70
     Davidson diagonalization with overlap

---- Real-time Memory Report at c_bands before calling an iterative solver
           495 MiB given to the printing process from OS
             0 MiB allocation reported by mallinfo(arena+hblkhd)
       1799503 MiB available memory on the node where the printing process lives
------------------
     c_bands:  5 eigenvalues not converged
     ethr =  1.00E-05,  avg # of iterations = 40.0


     -----------------------------------------------
     Non-local corr. energy    =      46.29153015 Ry
     -----------------------------------------------


     total cpu time spent up to now is      404.1 secs

     total energy              =  -64422.14275503 Ry
     estimated scf accuracy    <       0.14417866 Ry

     iteration #  2     ecut=    70.00 Ry     beta= 0.70
     Davidson diagonalization with overlap

---- Real-time Memory Report at c_bands before calling an iterative solver
          1326 MiB given to the printing process from OS
             0 MiB allocation reported by mallinfo(arena+hblkhd)
       1791438 MiB available memory on the node where the printing process lives
------------------
     ethr =  9.35E-06,  avg # of iterations = 16.0


     -----------------------------------------------
     Non-local corr. energy    =      46.28752184 Ry
     -----------------------------------------------


     total cpu time spent up to now is      644.0 secs

     total energy              =  -64421.54302010 Ry
     estimated scf accuracy    <      11.30015013 Ry

     iteration #  3     ecut=    70.00 Ry     beta= 0.70
     Davidson diagonalization with overlap

---- Real-time Memory Report at c_bands before calling an iterative solver
          1326 MiB given to the printing process from OS
             0 MiB allocation reported by mallinfo(arena+hblkhd)
       1791218 MiB available memory on the node where the printing process lives
------------------
     ethr =  9.35E-06,  avg # of iterations = 15.0


     -----------------------------------------------
     Non-local corr. energy    =      46.30049924 Ry
     -----------------------------------------------


     total cpu time spent up to now is      868.9 secs

     total energy              =  -64422.23654157 Ry
     estimated scf accuracy    <       0.10222431 Ry

     iteration #  4     ecut=    70.00 Ry     beta= 0.70
     Davidson diagonalization with overlap

---- Real-time Memory Report at c_bands before calling an iterative solver
          1326 MiB given to the printing process from OS
             0 MiB allocation reported by mallinfo(arena+hblkhd)
       1790813 MiB available memory on the node where the printing process lives
------------------
     ethr =  6.63E-06,  avg # of iterations =  9.0


     -----------------------------------------------
     Non-local corr. energy    =      46.30489710 Ry
     -----------------------------------------------


     total cpu time spent up to now is      958.6 secs

     total energy              =  -64422.23493472 Ry
     estimated scf accuracy    <       0.07047415 Ry

     iteration #  5     ecut=    70.00 Ry     beta= 0.70
     Davidson diagonalization with overlap

---- Real-time Memory Report at c_bands before calling an iterative solver
          1326 MiB given to the printing process from OS
             0 MiB allocation reported by mallinfo(arena+hblkhd)
       1790486 MiB available memory on the node where the printing process lives
------------------
     ethr =  4.57E-06,  avg # of iterations =  3.0


     -----------------------------------------------
     Non-local corr. energy    =      46.30871211 Ry
     -----------------------------------------------


     total cpu time spent up to now is     1005.1 secs

     total energy              =  -64422.23011585 Ry
     estimated scf accuracy    <       0.05843917 Ry

     iteration #  6     ecut=    70.00 Ry     beta= 0.70
     Davidson diagonalization with overlap

---- Real-time Memory Report at c_bands before calling an iterative solver
          1326 MiB given to the printing process from OS
             0 MiB allocation reported by mallinfo(arena+hblkhd)
       1790432 MiB available memory on the node where the printing process lives
------------------
     ethr =  3.79E-06,  avg # of iterations = 12.0


     -----------------------------------------------
     Non-local corr. energy    =      46.31085082 Ry
     -----------------------------------------------


     total cpu time spent up to now is     1108.9 secs

     total energy              =  -64422.22749580 Ry
     estimated scf accuracy    <       0.03858523 Ry

     iteration #  7     ecut=    70.00 Ry     beta= 0.70
     Davidson diagonalization with overlap

---- Real-time Memory Report at c_bands before calling an iterative solver
          1326 MiB given to the printing process from OS
             0 MiB allocation reported by mallinfo(arena+hblkhd)
       1790238 MiB available memory on the node where the printing process lives
------------------
     ethr =  2.50E-06,  avg # of iterations =  6.0


     -----------------------------------------------
     Non-local corr. energy    =      46.31346815 Ry
     -----------------------------------------------


     total cpu time spent up to now is     1172.2 secs

     total energy              =  -64422.22393786 Ry
     estimated scf accuracy    <       0.02354812 Ry

     iteration #  8     ecut=    70.00 Ry     beta= 0.70
     Davidson diagonalization with overlap

---- Real-time Memory Report at c_bands before calling an iterative solver
          1326 MiB given to the printing process from OS
             0 MiB allocation reported by mallinfo(arena+hblkhd)
       1790067 MiB available memory on the node where the printing process lives
------------------
     c_bands:  1 eigenvalues not converged
     ethr =  1.53E-06,  avg # of iterations = 20.0


     -----------------------------------------------
     Non-local corr. energy    =      46.31285723 Ry
     -----------------------------------------------


     total cpu time spent up to now is     1347.2 secs

     total energy              =  -64422.22546668 Ry
     estimated scf accuracy    <       0.00038957 Ry

     iteration #  9     ecut=    70.00 Ry     beta= 0.70
     Davidson diagonalization with overlap

---- Real-time Memory Report at c_bands before calling an iterative solver
          1326 MiB given to the printing process from OS
             0 MiB allocation reported by mallinfo(arena+hblkhd)
       1789867 MiB available memory on the node where the printing process lives
------------------
     ethr =  2.53E-08,  avg # of iterations = 17.0


     -----------------------------------------------
     Non-local corr. energy    =      46.31386728 Ry
     -----------------------------------------------


     total cpu time spent up to now is     1619.6 secs

     total energy              =  -64422.22560795 Ry
     estimated scf accuracy    <       0.00081402 Ry

     iteration # 10     ecut=    70.00 Ry     beta= 0.70
     Davidson diagonalization with overlap

---- Real-time Memory Report at c_bands before calling an iterative solver
          1326 MiB given to the printing process from OS
             0 MiB allocation reported by mallinfo(arena+hblkhd)
       1787264 MiB available memory on the node where the printing process lives
------------------
     ethr =  2.53E-08,  avg # of iterations = 16.0


     -----------------------------------------------
     Non-local corr. energy    =      46.31620539 Ry
     -----------------------------------------------


     total cpu time spent up to now is     1762.7 secs

     total energy              =  -64422.22539302 Ry
     estimated scf accuracy    <       0.00051199 Ry

     iteration # 11     ecut=    70.00 Ry     beta= 0.70
     Davidson diagonalization with overlap

---- Real-time Memory Report at c_bands before calling an iterative solver
          1326 MiB given to the printing process from OS
             0 MiB allocation reported by mallinfo(arena+hblkhd)
       1789657 MiB available memory on the node where the printing process lives
------------------
     ethr =  2.53E-08,  avg # of iterations = 13.0


     -----------------------------------------------
     Non-local corr. energy    =      46.31574741 Ry
     -----------------------------------------------


     total cpu time spent up to now is     1913.0 secs

     total energy              =  -64422.22566228 Ry
     estimated scf accuracy    <       0.01226326 Ry

     iteration # 12     ecut=    70.00 Ry     beta= 0.70
     Davidson diagonalization with overlap

---- Real-time Memory Report at c_bands before calling an iterative solver
          1326 MiB given to the printing process from OS
             0 MiB allocation reported by mallinfo(arena+hblkhd)
       1789622 MiB available memory on the node where the printing process lives
------------------
     ethr =  2.53E-08,  avg # of iterations = 10.0


     -----------------------------------------------
     Non-local corr. energy    =      46.31528745 Ry
     -----------------------------------------------


     total cpu time spent up to now is     2007.5 secs

     total energy              =  -64422.22539808 Ry
     estimated scf accuracy    <       0.00350138 Ry

     iteration # 13     ecut=    70.00 Ry     beta= 0.70
     Davidson diagonalization with overlap

---- Real-time Memory Report at c_bands before calling an iterative solver
          1326 MiB given to the printing process from OS
             0 MiB allocation reported by mallinfo(arena+hblkhd)
       1789617 MiB available memory on the node where the printing process lives
------------------
     ethr =  2.53E-08,  avg # of iterations = 13.0


     -----------------------------------------------
     Non-local corr. energy    =      46.31521210 Ry
     -----------------------------------------------


     total cpu time spent up to now is     2137.9 secs

     total energy              =  -64422.22560622 Ry
     estimated scf accuracy    <       0.00002662 Ry

     iteration # 14     ecut=    70.00 Ry     beta= 0.70
     Davidson diagonalization with overlap

---- Real-time Memory Report at c_bands before calling an iterative solver
          1326 MiB given to the printing process from OS
             0 MiB allocation reported by mallinfo(arena+hblkhd)
       1789619 MiB available memory on the node where the printing process lives
------------------
     ethr =  1.73E-09,  avg # of iterations =  8.0


     -----------------------------------------------
     Non-local corr. energy    =      46.31523833 Ry
     -----------------------------------------------


     total cpu time spent up to now is     2223.1 secs

     total energy              =  -64422.22560279 Ry
     estimated scf accuracy    <       0.00004189 Ry

     iteration # 15     ecut=    70.00 Ry     beta= 0.70
     Davidson diagonalization with overlap

---- Real-time Memory Report at c_bands before calling an iterative solver
          1326 MiB given to the printing process from OS
             0 MiB allocation reported by mallinfo(arena+hblkhd)
       1789608 MiB available memory on the node where the printing process lives
------------------
     ethr =  1.73E-09,  avg # of iterations =  8.0


     -----------------------------------------------
     Non-local corr. energy    =      46.31524764 Ry
     -----------------------------------------------


     total cpu time spent up to now is     2301.1 secs

     total energy              =  -64422.22560569 Ry
     estimated scf accuracy    <       0.00000018 Ry

     iteration # 16     ecut=    70.00 Ry     beta= 0.70
     Davidson diagonalization with overlap

---- Real-time Memory Report at c_bands before calling an iterative solver
          1326 MiB given to the printing process from OS
             0 MiB allocation reported by mallinfo(arena+hblkhd)
       1789606 MiB available memory on the node where the printing process lives
------------------
     c_bands:  4 eigenvalues not converged
     ethr =  1.18E-11,  avg # of iterations = 20.0


     -----------------------------------------------
     Non-local corr. energy    =      46.31528516 Ry
     -----------------------------------------------


     total cpu time spent up to now is     2493.7 secs

     total energy              =  -64422.22560697 Ry
     estimated scf accuracy    <       0.00000017 Ry

     iteration # 17     ecut=    70.00 Ry     beta= 0.70
     Davidson diagonalization with overlap

---- Real-time Memory Report at c_bands before calling an iterative solver
          1369 MiB given to the printing process from OS
             0 MiB allocation reported by mallinfo(arena+hblkhd)
       1786059 MiB available memory on the node where the printing process lives
------------------
     ethr =  1.09E-11,  avg # of iterations = 17.0


     -----------------------------------------------
     Non-local corr. energy    =      46.31528797 Ry
     -----------------------------------------------


     total cpu time spent up to now is     2623.5 secs

     total energy              =  -64422.22560697 Ry
     estimated scf accuracy    <       0.00000011 Ry

     iteration # 18     ecut=    70.00 Ry     beta= 0.70
     Davidson diagonalization with overlap

---- Real-time Memory Report at c_bands before calling an iterative solver
          1369 MiB given to the printing process from OS
             0 MiB allocation reported by mallinfo(arena+hblkhd)
       1786051 MiB available memory on the node where the printing process lives
------------------
     ethr =  7.14E-12,  avg # of iterations =  4.0


     -----------------------------------------------
     Non-local corr. energy    =      46.31529475 Ry
     -----------------------------------------------


     total cpu time spent up to now is     2674.9 secs

     total energy              =  -64422.22560697 Ry
     estimated scf accuracy    <       0.00000011 Ry

     iteration # 19     ecut=    70.00 Ry     beta= 0.70
     Davidson diagonalization with overlap

---- Real-time Memory Report at c_bands before calling an iterative solver
          1369 MiB given to the printing process from OS
             0 MiB allocation reported by mallinfo(arena+hblkhd)
       1785982 MiB available memory on the node where the printing process lives
------------------
     ethr =  6.95E-12,  avg # of iterations = 20.0


     -----------------------------------------------
     Non-local corr. energy    =      46.31527704 Ry
     -----------------------------------------------


     total cpu time spent up to now is     2820.0 secs

     total energy              =  -64422.22560696 Ry
     estimated scf accuracy    <       0.00000012 Ry

     iteration # 20     ecut=    70.00 Ry     beta= 0.70
     Davidson diagonalization with overlap

---- Real-time Memory Report at c_bands before calling an iterative solver
          1369 MiB given to the printing process from OS
             0 MiB allocation reported by mallinfo(arena+hblkhd)
       1785964 MiB available memory on the node where the printing process lives
------------------
     c_bands:  1 eigenvalues not converged
     ethr =  6.95E-12,  avg # of iterations = 20.0


     -----------------------------------------------
     Non-local corr. energy    =      46.31529760 Ry
     -----------------------------------------------


     total cpu time spent up to now is     2980.0 secs

     total energy              =  -64422.22560697 Ry
     estimated scf accuracy    <       0.00000020 Ry

     iteration # 21     ecut=    70.00 Ry     beta= 0.70
     Davidson diagonalization with overlap

---- Real-time Memory Report at c_bands before calling an iterative solver
          1369 MiB given to the printing process from OS
             0 MiB allocation reported by mallinfo(arena+hblkhd)
       1787016 MiB available memory on the node where the printing process lives
------------------
     ethr =  6.95E-12,  avg # of iterations =  2.0


     -----------------------------------------------
     Non-local corr. energy    =      46.31550072 Ry
     -----------------------------------------------


     total cpu time spent up to now is     3021.4 secs

     total energy              =  -64422.22560713 Ry
     estimated scf accuracy    <       0.00000013 Ry

     iteration # 22     ecut=    70.00 Ry     beta= 0.70
     Davidson diagonalization with overlap

---- Real-time Memory Report at c_bands before calling an iterative solver
          1369 MiB given to the printing process from OS
             0 MiB allocation reported by mallinfo(arena+hblkhd)
       1786732 MiB available memory on the node where the printing process lives
------------------
     ethr =  6.95E-12,  avg # of iterations = 17.0


     -----------------------------------------------
     Non-local corr. energy    =      46.31545945 Ry
     -----------------------------------------------


     total cpu time spent up to now is     3187.8 secs

     End of self-consistent calculation

          k = 0.0000 0.0000 0.0000 (302703 PWs)   bands (ev):

   -41.0463 -41.0462 -41.0462 -41.0462 -41.0461 -41.0461 -41.0459 -41.0458
   -41.0458 -41.0458 -41.0457 -41.0457 -41.0448 -41.0448 -41.0447 -41.0447
   -41.0447 -41.0446 -41.0443 -41.0442 -41.0442 -41.0442 -41.0441 -41.0441
   -41.0437 -41.0436 -41.0436 -41.0436 -41.0435 -41.0435 -41.0337 -41.0336
   -41.0336 -41.0336 -41.0336 -41.0336 -41.0335 -41.0335 -41.0335 -41.0335
   -41.0334 -41.0334 -41.0332 -41.0331 -41.0331 -41.0331 -41.0331 -41.0331
   -41.0330 -41.0330 -41.0330 -41.0329 -41.0329 -41.0329 -41.0315 -41.0315
   -41.0315 -41.0315 -41.0315 -41.0315 -41.0314 -41.0314 -41.0313 -41.0313
   -41.0313 -41.0313 -41.0310 -41.0309 -41.0309 -41.0309 -41.0309 -41.0309
   -41.0308 -41.0308 -41.0308 -41.0307 -41.0307 -41.0307 -41.0304 -41.0303
   -41.0303 -41.0303 -41.0303 -41.0303 -41.0302 -41.0302 -41.0302 -41.0302
   -41.0302 -41.0302 -41.0253 -41.0252 -41.0251 -41.0251 -41.0250 -41.0249
   -41.0243 -41.0242 -41.0241 -41.0241 -41.0240 -41.0239 -41.0222 -41.0221
   -41.0220 -41.0220 -41.0219 -41.0218 -41.0194 -41.0194 -41.0193 -41.0192
   -41.0192 -41.0191 -41.0185 -41.0185 -41.0184 -41.0183 -41.0183 -41.0182
   -41.0040 -41.0040 -41.0040 -41.0040 -41.0040 -41.0040 -41.0039 -41.0039
   -41.0039 -41.0039 -41.0039 -41.0038 -41.0031 -41.0031 -41.0031 -41.0030
   -41.0030 -41.0030 -41.0024 -41.0024 -41.0024 -41.0023 -41.0023 -41.0023
   -41.0022 -41.0022 -41.0021 -41.0020 -41.0020 -41.0020 -40.9877 -40.9877
   -40.9875 -40.9874 -40.9869 -40.9869 -40.9867 -40.9867 -40.9864 -40.9862
   -40.7608 -40.7608 -40.7606 -40.7606 -40.7594 -40.7594 -40.7593 -40.7593
   -40.7588 -40.7587 -40.7223 -40.7221 -40.7220 -40.7220 -40.7219 -40.7218
   -40.7213 -40.7211 -40.7210 -40.7210 -40.7209 -40.7208 -40.7206 -40.7204
   -40.7203 -40.7203 -40.7202 -40.7201 -40.7188 -40.7186 -40.7185 -40.7185
   -40.7184 -40.7183 -40.7181 -40.7179 -40.7179 -40.7179 -40.7177 -40.7177
   -40.6749 -40.6749 -40.6748 -40.6747 -40.6747 -40.6746 -40.6738 -40.6738
   -40.6737 -40.6737 -40.6736 -40.6735 -40.6687 -40.6687 -40.6686 -40.6685
   -40.6685 -40.6684 -40.6650 -40.6650 -40.6649 -40.6648 -40.6648 -40.6647
   -40.6635 -40.6635 -40.6634 -40.6633 -40.6633 -40.6632 -40.6238 -40.6238
   -40.6238 -40.6237 -40.6237 -40.6236 -40.6235 -40.6235 -40.6235 -40.6234
   -40.6233 -40.6233 -40.6226 -40.6226 -40.6225 -40.6224 -40.6224 -40.6224
   -40.6223 -40.6223 -40.6223 -40.6222 -40.6221 -40.6221 -40.6058 -40.6058
   -40.6057 -40.6057 -40.6057 -40.6056 -40.6055 -40.6055 -40.6055 -40.6054
   -40.6053 -40.6053 -40.5980 -40.5980 -40.5979 -40.5979 -40.5978 -40.5978
   -40.5977 -40.5977 -40.5976 -40.5976 -40.5975 -40.5975 -40.5949 -40.5949
   -40.5948 -40.5948 -40.5948 -40.5947 -40.5946 -40.5946 -40.5946 -40.5945
   -40.5944 -40.5944 -40.0485 -40.0482 -40.0482 -40.0482 -40.0477 -40.0475
   -40.0474 -40.0472 -40.0471 -40.0471 -40.0466 -40.0464 -39.9647 -39.9645
   -39.9644 -39.9644 -39.9641 -39.9639 -39.9630 -39.9628 -39.9627 -39.9627
   -39.9624 -39.9622 -39.9368 -39.9366 -39.9365 -39.9365 -39.9362 -39.9360
   -38.1667 -38.1644 -38.1639 -38.1538 -38.1537 -13.1976 -13.1976 -13.1950
   -13.1948 -13.1947 -13.1947 -13.1794 -13.1794 -13.1793 -13.1789 -13.1787
   -13.1786 -13.1785 -13.1771 -13.1771 -13.1743 -13.1717 -13.1717 -13.1715
   -13.1715 -13.1708 -13.1661 -13.1661 -13.1618 -13.1618 -13.1604 -13.1589
   -13.1589 -13.1585 -13.1584 -13.1581 -13.1580 -13.1542 -13.1530 -13.1530
   -13.1526 -13.1525 -13.1523 -13.1523 -13.1520 -13.1516 -13.1513 -13.1513
   -13.1512 -13.1506 -13.1506 -13.1491 -13.1481 -13.1481 -13.1481 -13.1481
   -13.1471 -13.1471 -13.1469 -13.1457 -13.1447 -13.1447 -13.1446 -13.1446
   -13.1442 -13.1435 -13.1424 -13.1424 -13.1420 -13.1420 -13.1397 -13.1397
   -13.1382 -13.1381 -13.1381 -13.1381 -13.1381 -13.1379 -13.1378 -13.1338
   -13.1333 -13.1332 -13.1332 -13.1331 -13.1331 -12.9042 -12.9038 -12.8978
   -12.8978 -12.8970 -12.8969 -12.8932 -12.8931 -12.8931 -12.8930 -12.8899
   -12.8895 -12.8847 -12.8847 -12.8824 -12.8824 -12.8823 -12.8823 -12.8797
   -12.8797 -12.8797 -12.8797 -12.8794 -12.8791 -12.8782 -12.8781 -12.8779
   -12.8778 -12.8773 -12.8773 -12.7869 -12.7861 -12.7861 -12.7692 -12.7692
   -12.7690 -12.7686 -12.7683 -12.7683 -12.7628 -12.7628 -12.7626 -12.7498
   -12.7497 -12.7497 -12.6584 -12.6547 -12.6545 -12.6470 -12.6468 -12.6431
   -12.6419 -12.6402 -12.6400 -12.6369 -12.6367 -12.6351 -12.6187 -12.6160
   -12.6158 -12.6144 -12.6136 -12.6135 -12.6080 -12.6079 -12.6073 -12.6072
   -12.6067 -12.6043 -12.5961 -12.5946 -12.5944 -12.5919 -12.5917 -12.5906
    -8.3341  -8.1459  -8.1458  -8.1393  -8.1341  -8.1340  -8.1144  -7.9392
    -7.9035  -7.8892  -7.8892  -7.8881  -7.8859  -7.8858  -7.8746  -7.8618
    -7.8543  -7.8543  -7.8217  -7.8216  -7.8163  -7.8126  -7.8082  -7.8081
    -7.7892  -7.7724  -7.7723  -7.7563  -7.7559  -7.7559  -7.7535  -7.7434
    -7.7433  -7.7331  -7.7308  -7.7308  -7.6924  -7.6922  -7.6154  -7.5581
    -7.5451  -7.5450  -7.5184  -7.5184  -7.5108  -7.5015  -7.4557  -7.4373
    -7.4300  -7.4298  -7.4263  -7.4152  -7.4151  -7.3964  -7.3963  -7.3877
    -7.3875  -7.3388  -6.9272  -6.8817  -6.8811  -6.8202  -6.8195  -6.7885
    -4.9833  -3.9039  -3.8909  -3.8909  -3.8873  -3.8873  -3.8799  -3.8799
    -3.8774  -3.8729  -3.6219  -3.6219  -3.6139  -3.6133  -3.6032  -3.6032
    -3.5775  -3.5774  -3.5606  -3.5435  -3.5433  -3.3972  -3.3971  -3.3924
    -3.3344  -3.3332  -3.2450  -3.1839  -3.1837  -3.0761  -3.0760  -2.9622
     0.6833   0.6834   0.6891   0.9908   0.9979   0.9979   0.9990   0.9991
     1.0002   1.1501   1.1523   1.1575   1.1575   1.1587   1.1708   1.1709
     1.1776   1.1776   1.2973   1.3078   1.3079   1.3156   1.3156   1.3318
     1.4141   1.4141   1.4219   1.4272   1.4273   1.4884   1.5089   1.5575
     1.5794   1.5794   1.5795   1.5796   1.5995   1.6122   1.6238   1.6238
     1.6283   1.6283   1.6383   1.6383   1.6486   1.6857   1.6858   1.6881
     1.6882   1.6982   1.7371   1.7915   1.8515   1.8516   1.9007   1.9316
     1.9358   1.9358   1.9500   1.9500   1.9929   1.9981   1.9982   2.0005
     2.0036   2.0037   2.0293   2.0294   2.0783   2.0819   2.1015   2.1016
     2.1067   2.1650   2.1656   2.1657   2.1745   2.1875   2.2085   2.2085
     2.2256   2.2257   2.2385   2.2472   2.2794   2.2794   2.2978   2.2979
     2.2985   2.2985   2.3352   2.3746   2.3747   2.4267   2.4268   2.4305
     2.4569   2.4570   2.4617   2.4634   2.4637   2.4637   2.4994   2.4995
     2.5166   2.5392   2.5392   2.5436   2.5627   2.5735   2.5738   2.5738
     2.5754   2.5754   2.5883   2.5883   2.5910   2.5947   2.6652   2.6652
     2.6664   2.6664   2.6750   2.6783   2.6824   2.6825   2.7673   2.7674
     2.7868   2.8116   2.8117   2.8126   2.8388   2.8388   2.8813   2.9204
     2.9280   2.9280   2.9286   2.9343   2.9343   2.9527   2.9528   2.9543
     2.9821   2.9823   2.9855   2.9856   3.0069   3.0109   3.0156   3.0164
     3.0165   3.0269   3.0269   3.0363   3.0400   3.0400   3.0660   3.0680
     3.0681   3.0701   3.0807   3.0808   3.1086   3.1311   3.1322   3.1322
     3.1831   3.1841   3.1841   3.2822   3.2824   3.2984   3.3680   3.3877
     3.3946   3.3950   3.4140   3.4140   3.4201   3.4475   3.4481   3.6456
     3.6459   3.6614   3.6620   3.6814   3.6814   3.7375   3.8045   3.8046
     5.4671   5.4683   5.4814   5.7524   6.2358   6.3285   6.3285   6.3297
     6.3298   6.3357   6.3504   6.4387   6.4387   6.4881   6.5851   6.5851
     6.7365   6.7502   6.7503   6.7645   6.7645   6.7861   6.8552   6.8554
     6.8604   6.8604   6.8947   6.8947   6.9353   6.9353   6.9569   6.9586
     6.9586   6.9712   6.9821   6.9821   7.0813   7.0883   7.0913   7.0913
     7.0981   7.0981   7.1051   7.1139   7.1140   7.1164   7.1527   7.1550
     7.1550   7.1700   7.1701   7.2374   7.2374   7.2484   7.3002   7.3002
     7.3273   7.3442   7.3445   7.3522   7.3522   7.3679   7.3680   7.3709
     7.4013   7.4093   7.4177   7.4215   7.4347   7.4347   7.4426   7.4427
     7.4693   7.4704   7.4705   7.4742   7.4744   7.5012   7.5123   7.5182
     7.5183   7.5213   7.5876   7.6177   7.6178   7.6927   7.6928   7.7383
     7.8884   7.8885   7.8906   7.8907   8.0772   8.0774   8.0803   8.1211
     9.0851   9.0851   9.0905   9.6855   9.6870   9.6943   9.6943   9.7042
     9.7042   9.7616   9.7616   9.7665   9.7859   9.9486   9.9487   9.9682
     9.9682  10.0307  10.0308  10.0409  10.1084  10.1229  10.1284  10.1654
    10.1654  10.1842  10.1844  10.1844  10.2009  10.2115  10.2117  10.3706
    10.4939  10.5498  10.5498  10.5982  10.6521  10.6523  10.6990  10.7108
    10.7109  10.7629  10.7829  10.7829  10.8456  10.8456  10.8470  10.8545
    10.8618  10.8619  11.0863  11.0952  11.0953  11.1313  11.1313  11.1324
    11.1325  11.1698  11.1699  11.1711  11.1839

     occupation numbers 
     1.0000   1.0000   1.0000   1.0000   1.0000   1.0000   1.0000   1.0000
     1.0000   1.0000   1.0000   1.0000   1.0000   1.0000   1.0000   1.0000
     1.0000   1.0000   1.0000   1.0000   1.0000   1.0000   1.0000   1.0000
     1.0000   1.0000   1.0000   1.0000   1.0000   1.0000   1.0000   1.0000
     1.0000   1.0000   1.0000   1.0000   1.0000   1.0000   1.0000   1.0000
     1.0000   1.0000   1.0000   1.0000   1.0000   1.0000   1.0000   1.0000
     1.0000   1.0000   1.0000   1.0000   1.0000   1.0000   1.0000   1.0000
     1.0000   1.0000   1.0000   1.0000   1.0000   1.0000   1.0000   1.0000
     1.0000   1.0000   1.0000   1.0000   1.0000   1.0000   1.0000   1.0000
     1.0000   1.0000   1.0000   1.0000   1.0000   1.0000   1.0000   1.0000
     1.0000   1.0000   1.0000   1.0000   1.0000   1.0000   1.0000   1.0000
     1.0000   1.0000   1.0000   1.0000   1.0000   1.0000   1.0000   1.0000
     1.0000   1.0000   1.0000   1.0000   1.0000   1.0000   1.0000   1.0000
     1.0000   1.0000   1.0000   1.0000   1.0000   1.0000   1.0000   1.0000
     1.0000   1.0000   1.0000   1.0000   1.0000   1.0000   1.0000   1.0000
     1.0000   1.0000   1.0000   1.0000   1.0000   1.0000   1.0000   1.0000
     1.0000   1.0000   1.0000   1.0000   1.0000   1.0000   1.0000   1.0000
     1.0000   1.0000   1.0000   1.0000   1.0000   1.0000   1.0000   1.0000
     1.0000   1.0000   1.0000   1.0000   1.0000   1.0000   1.0000   1.0000
     1.0000   1.0000   1.0000   1.0000   1.0000   1.0000   1.0000   1.0000
     1.0000   1.0000   1.0000   1.0000   1.0000   1.0000   1.0000   1.0000
     1.0000   1.0000   1.0000   1.0000   1.0000   1.0000   1.0000   1.0000
     1.0000   1.0000   1.0000   1.0000   1.0000   1.0000   1.0000   1.0000
     1.0000   1.0000   1.0000   1.0000   1.0000   1.0000   1.0000   1.0000
     1.0000   1.0000   1.0000   1.0000   1.0000   1.0000   1.0000   1.0000
     1.0000   1.0000   1.0000   1.0000   1.0000   1.0000   1.0000   1.0000
     1.0000   1.0000   1.0000   1.0000   1.0000   1.0000   1.0000   1.0000
     1.0000   1.0000   1.0000   1.0000   1.0000   1.0000   1.0000   1.0000
     1.0000   1.0000   1.0000   1.0000   1.0000   1.0000   1.0000   1.0000
     1.0000   1.0000   1.0000   1.0000   1.0000   1.0000   1.0000   1.0000
     1.0000   1.0000   1.0000   1.0000   1.0000   1.0000   1.0000   1.0000
     1.0000   1.0000   1.0000   1.0000   1.0000   1.0000   1.0000   1.0000
     1.0000   1.0000   1.0000   1.0000   1.0000   1.0000   1.0000   1.0000
     1.0000   1.0000   1.0000   1.0000   1.0000   1.0000   1.0000   1.0000
     1.0000   1.0000   1.0000   1.0000   1.0000   1.0000   1.0000   1.0000
     1.0000   1.0000   1.0000   1.0000   1.0000   1.0000   1.0000   1.0000
     1.0000   1.0000   1.0000   1.0000   1.0000   1.0000   1.0000   1.0000
     1.0000   1.0000   1.0000   1.0000   1.0000   1.0000   1.0000   1.0000
     1.0000   1.0000   1.0000   1.0000   1.0000   1.0000   1.0000   1.0000
     1.0000   1.0000   1.0000   1.0000   1.0000   1.0000   1.0000   1.0000
     1.0000   1.0000   1.0000   1.0000   1.0000   1.0000   1.0000   1.0000
     1.0000   1.0000   1.0000   1.0000   1.0000   1.0000   1.0000   1.0000
     1.0000   1.0000   1.0000   1.0000   1.0000   1.0000   1.0000   1.0000
     1.0000   1.0000   1.0000   1.0000   1.0000   1.0000   1.0000   1.0000
     1.0000   1.0000   1.0000   1.0000   1.0000   1.0000   1.0000   1.0000
     1.0000   1.0000   1.0000   1.0000   1.0000   1.0000   1.0000   1.0000
     1.0000   1.0000   1.0000   1.0000   1.0000   1.0000   1.0000   1.0000
     1.0000   1.0000   1.0000   1.0000   1.0000   1.0000   1.0000   1.0000
     1.0000   1.0000   1.0000   1.0000   1.0000   1.0000   1.0000   1.0000
     1.0000   1.0000   1.0000   1.0000   1.0000   1.0000   1.0000   1.0000
     1.0000   1.0000   1.0000   1.0000   1.0000   1.0000   1.0000   1.0000
     1.0000   1.0000   1.0000   1.0000   1.0000   1.0000   1.0000   1.0000
     1.0000   1.0000   1.0000   1.0000   1.0000   1.0000   1.0000   1.0000
     1.0000   1.0000   1.0000   1.0000   1.0000   1.0000   1.0000   1.0000
     1.0000   1.0000   1.0000   1.0000   1.0000   1.0000   1.0000   1.0000
     1.0000   1.0000   1.0000   1.0000   1.0000   1.0000   1.0000   1.0000
     1.0000   1.0000   1.0000   1.0000   1.0000   1.0000   1.0000   1.0000
     1.0000   1.0000   1.0000   1.0000   1.0000   1.0000   1.0000   1.0000
     1.0000   1.0000   1.0000   1.0000   1.0000   1.0000   1.0000   1.0000
     1.0000   1.0000   1.0000   1.0000   1.0000   1.0000   1.0000   1.0000
     1.0000   1.0000   1.0000   1.0000   1.0000   1.0000   1.0000   1.0000
     1.0000   1.0000   1.0000   1.0000   1.0000   1.0000   1.0000   1.0000
     1.0000   1.0000   1.0000   1.0000   1.0000   1.0000   1.0000   1.0000
     1.0000   1.0000   1.0000   1.0000   1.0000   1.0000   1.0000   1.0000
     1.0000   1.0000   1.0000   1.0000   1.0000   1.0000   1.0000   1.0000
     1.0000   1.0000   1.0000   1.0000   1.0000   1.0000   1.0000   1.0000
     1.0000   1.0000   1.0000   1.0000   1.0000   1.0000   1.0000   1.0000
     1.0000   1.0000   1.0000   1.0000   1.0000   1.0000   1.0000   1.0000
     1.0000   1.0000   1.0000   1.0000   1.0000   1.0000   1.0000   1.0000
     1.0000   1.0000   1.0000   1.0000   1.0000   1.0000   1.0000   1.0000
     1.0000   1.0000   1.0000   1.0000   1.0000   1.0000   1.0000   1.0000
     1.0000   1.0000   1.0000   1.0000   1.0000   1.0000   1.0000   1.0000
     1.0000   1.0000   1.0000   1.0000   1.0000   1.0000   1.0000   1.0000
     1.0000   1.0000   1.0000   1.0000   1.0000   1.0000   1.0000   1.0000
     1.0000   1.0000   1.0000   1.0000   1.0000   1.0000   1.0000   1.0000
     1.0000   1.0000   1.0000   1.0000   1.0000   1.0000   1.0000   1.0000
     1.0000   1.0000   1.0000   1.0000   1.0000   1.0000   1.0000   1.0000
     1.0000   1.0000   1.0000   1.0000   1.0000   1.0000   1.0000   1.0000
     1.0000   1.0000   1.0000   1.0000   1.0000   1.0000   1.0000   1.0000
     1.0000   1.0000   1.0000   1.0000   1.0000   1.0000   1.0000   1.0000
     1.0000   1.0000   1.0000   1.0000   1.0000   1.0000   1.0000   1.0000
     1.0000   1.0000   1.0000   1.0000   1.0000   1.0000   1.0000   1.0000
     1.0000   1.0000   1.0000   1.0000   1.0000   1.0000   1.0000   1.0000
     1.0000   1.0000   1.0000   1.0000   1.0000   1.0000   1.0000   1.0000
     1.0000   1.0000   1.0000   1.0000   1.0000   1.0000   1.0000   1.0000
     1.0000   1.0000   1.0000   1.0000   1.0000   1.0000   1.0000   1.0000
     1.0000   1.0000   1.0000   1.0000   1.0000   1.0000   1.0000   1.0000
     1.0000   1.0000   1.0000   1.0000   1.0000   1.0000   1.0000   1.0000
     1.0000   1.0000   1.0000   1.0000   1.0000   1.0000   1.0000   1.0000
     1.0000   1.0000   1.0000   1.0000   1.0000   1.0000   1.0000   1.0000
     1.0000   1.0000   1.0000   1.0000   1.0000   1.0000   1.0000   1.0000
     1.0000   1.0000   1.0000   1.0000   1.0000   1.0000   1.0000   1.0000
     1.0000   1.0000   1.0000   1.0000   1.0000   1.0000   1.0000   1.0000
     1.0000   1.0000   1.0000   1.0000   1.0000   1.0000   1.0000   1.0000
     1.0000   1.0000   1.0000   1.0000   1.0000   1.0000   1.0000   1.0000
     1.0000   1.0000   1.0000   1.0000   1.0000   1.0000   1.0000   1.0000
     0.9641   0.9631   0.9507   0.1220   0.0000   0.0000   0.0000   0.0000
     0.0000   0.0000   0.0000   0.0000   0.0000   0.0000   0.0000   0.0000
     0.0000   0.0000   0.0000   0.0000   0.0000   0.0000   0.0000   0.0000
     0.0000   0.0000   0.0000   0.0000   0.0000   0.0000   0.0000   0.0000
     0.0000   0.0000   0.0000   0.0000   0.0000   0.0000   0.0000   0.0000
     0.0000   0.0000   0.0000   0.0000   0.0000   0.0000   0.0000   0.0000
     0.0000   0.0000   0.0000   0.0000   0.0000   0.0000   0.0000   0.0000
     0.0000   0.0000   0.0000   0.0000   0.0000   0.0000   0.0000   0.0000
     0.0000   0.0000   0.0000   0.0000   0.0000   0.0000   0.0000   0.0000
     0.0000   0.0000   0.0000   0.0000   0.0000   0.0000   0.0000   0.0000
     0.0000   0.0000   0.0000   0.0000   0.0000   0.0000   0.0000   0.0000
     0.0000   0.0000   0.0000   0.0000   0.0000   0.0000   0.0000   0.0000
     0.0000   0.0000   0.0000   0.0000   0.0000   0.0000   0.0000   0.0000
     0.0000   0.0000   0.0000   0.0000   0.0000   0.0000   0.0000   0.0000
     0.0000   0.0000   0.0000   0.0000   0.0000   0.0000   0.0000   0.0000
     0.0000   0.0000   0.0000   0.0000   0.0000   0.0000   0.0000   0.0000
     0.0000   0.0000   0.0000   0.0000   0.0000   0.0000   0.0000   0.0000
     0.0000   0.0000   0.0000   0.0000   0.0000   0.0000   0.0000   0.0000
     0.0000   0.0000   0.0000   0.0000   0.0000   0.0000   0.0000   0.0000
     0.0000   0.0000   0.0000   0.0000   0.0000

     the Fermi energy is     5.6403 ev

!    total energy              =  -64422.22560710 Ry
     total all-electron energy =  -2221424.372249 Ry
     estimated scf accuracy    <       0.00000002 Ry
     smearing contrib. (-TS)   =      -0.00655860 Ry
     internal energy E=F+TS    =  -64422.21904849 Ry

     The total energy is F=E-TS. E is the sum of the following terms:
     one-electron contribution =  -12011.06763187 Ry
     hartree contribution      =    6705.26430251 Ry
     xc contribution           =   -4558.88320309 Ry
     ewald contribution        =   -9930.51970618 Ry
     one-center paw contrib.   =  -44627.01280986 Ry
      -> PAW hartree energy AE =      96.05862979 Ry
      -> PAW hartree energy PS =     -96.29670878 Ry
      -> PAW xc energy AE      =    -798.44303951 Ry
      -> PAW xc energy PS      =      33.32207160 Ry
      -> total E_H with PAW    =    6705.02622351 Ry
      -> total E_XC with PAW   =   -5324.00417100 Ry

     convergence has been achieved in  22 iterations


     -----------------------------------------------
     Non-local corr. energy    =      46.31545945 Ry
     -----------------------------------------------


     Forces acting on atoms (cartesian axes, Ry/au):

     atom    1 type  1   force =     0.00000075   -0.00000014    0.00000351
     atom    2 type  1   force =     0.00498498   -0.00867414   -0.00002645
     atom    3 type  1   force =     0.00051625   -0.00089732    0.00000643
     atom    4 type  1   force =     0.00000229   -0.00000219   -0.00000563
     atom    5 type  1   force =    -0.00000004    0.00000170    0.00000441
     atom    6 type  1   force =    -0.00497975    0.00867147    0.00001908
     atom    7 type  1   force =    -0.00051741    0.00089831    0.00000567
     atom    8 type  1   force =    -0.00999786   -0.00002536    0.00002152
     atom    9 type  1   force =    -0.00103405    0.00000169    0.00000673
     atom   10 type  1   force =    -0.00499617   -0.00864274    0.00000110
     atom   11 type  1   force =    -0.00051402   -0.00089745    0.00000761
     atom   12 type  1   force =    -0.00000165   -0.00228911    0.00019540
     atom   13 type  1   force =     0.00000467   -0.00076442    0.00044847
     atom   14 type  1   force =    -0.00198631    0.00114725    0.00019491
     atom   15 type  1   force =    -0.00066531    0.00038816    0.00044778
     atom   16 type  1   force =    -0.00000015   -0.00000048   -0.00000284
     atom   17 type  1   force =    -0.00000103   -0.00000021    0.00000546
     atom   18 type  1   force =    -0.00198153   -0.00114796   -0.00020558
     atom   19 type  1   force =    -0.00066666   -0.00038075   -0.00043891
     atom   20 type  1   force =    -0.00000219   -0.00000249   -0.00000568
     atom   21 type  1   force =    -0.00000025    0.00000110    0.00000392
     atom   22 type  1   force =     0.00197978    0.00114520    0.00019465
     atom   23 type  1   force =     0.00066351    0.00038225    0.00044795
     atom   24 type  1   force =     0.00999670    0.00002627   -0.00003317
     atom   25 type  1   force =     0.00103369   -0.00000018    0.00000491
     atom   26 type  1   force =     0.00198769   -0.00114974   -0.00020618
     atom   27 type  1   force =     0.00066777   -0.00038734   -0.00043600
     atom   28 type  1   force =     0.00000178    0.00229056   -0.00020558
     atom   29 type  1   force =    -0.00000468    0.00076696   -0.00044049
     atom   30 type  1   force =     0.00499135    0.00863855   -0.00000812
     atom   31 type  1   force =     0.00051706    0.00089703    0.00000489
     atom   32 type  2   force =    -0.00001407   -0.00026947    0.00048911
     atom   33 type  2   force =    -0.00000356   -0.00709909   -0.00029706
     atom   34 type  2   force =    -0.00023062    0.00013276    0.00047829
     atom   35 type  2   force =    -0.00621806    0.00359113   -0.00029312
     atom   36 type  2   force =    -0.00010602    0.00036020   -0.00012470
     atom   37 type  2   force =    -0.00145884    0.00091030   -0.00004771
     atom   38 type  2   force =     0.00025188   -0.00027854   -0.00011870
     atom   39 type  2   force =     0.00004744   -0.00171836   -0.00006137
     atom   40 type  2   force =     0.00085094   -0.00049384    0.00056898
     atom   41 type  2   force =     0.00165383   -0.00095427   -0.00043478
     atom   42 type  2   force =     0.00022682    0.00014756    0.00049101
     atom   43 type  2   force =     0.00613648    0.00354744   -0.00030310
     atom   44 type  2   force =     0.00000897    0.00098081    0.00055476
     atom   45 type  2   force =     0.00001063    0.00191442   -0.00042050
     atom   46 type  2   force =     0.00008349    0.00003770    0.00053210
     atom   47 type  2   force =     0.00005951    0.00003218   -0.00040204
     atom   48 type  2   force =     0.00000949   -0.00008845    0.00053388
     atom   49 type  2   force =     0.00000087   -0.00006926   -0.00040017
     atom   50 type  2   force =     0.00036805   -0.00007826   -0.00011567
     atom   51 type  2   force =     0.00150764    0.00081962   -0.00006208
     atom   52 type  2   force =     0.00010736    0.00037163   -0.00011272
     atom   53 type  2   force =     0.00145458    0.00090177   -0.00006148
     atom   54 type  2   force =    -0.00006646    0.00003872    0.00053708
     atom   55 type  2   force =    -0.00005149    0.00002916   -0.00040292
     atom   56 type  2   force =    -0.00084512   -0.00050091    0.00055430
     atom   57 type  2   force =    -0.00165241   -0.00096542   -0.00041872
     atom   58 type  2   force =    -0.00036494   -0.00008827   -0.00012234
     atom   59 type  2   force =    -0.00151894    0.00080874   -0.00004484
     atom   60 type  2   force =    -0.00000800    0.00000656   -0.00112107
     atom   61 type  2   force =    -0.00000780    0.00000572   -0.00016003
     atom   62 type  2   force =    -0.00026691   -0.00027729   -0.00011407
     atom   63 type  2   force =    -0.00005715   -0.00171477   -0.00005711
     atom   64 type  2   force =    -0.00613876   -0.00354740    0.00029700
     atom   65 type  2   force =    -0.00022535   -0.00014589   -0.00048677
     atom   66 type  2   force =    -0.00165624    0.00095530    0.00043191
     atom   67 type  2   force =    -0.00084753    0.00048944   -0.00056406
     atom   68 type  2   force =    -0.00006205   -0.00003369    0.00039909
     atom   69 type  2   force =    -0.00008266   -0.00003505   -0.00053068
     atom   70 type  2   force =    -0.00001104   -0.00191622    0.00041943
     atom   71 type  2   force =    -0.00000738   -0.00098185   -0.00054878
     atom   72 type  2   force =     0.00621785   -0.00359002    0.00028782
     atom   73 type  2   force =     0.00022982   -0.00013073   -0.00047773
     atom   74 type  2   force =     0.00000219    0.00710759    0.00029815
     atom   75 type  2   force =     0.00001497    0.00026970   -0.00048738
     atom   76 type  2   force =    -0.00004763    0.00171716    0.00005887
     atom   77 type  2   force =    -0.00025120    0.00027844    0.00011939
     atom   78 type  2   force =     0.00146001   -0.00091685    0.00004336
     atom   79 type  2   force =     0.00010392   -0.00035763    0.00012405
     atom   80 type  2   force =     0.00152006   -0.00080598    0.00004297
     atom   81 type  2   force =     0.00036102    0.00008782    0.00012517
     atom   82 type  2   force =     0.00165566    0.00096592    0.00041783
     atom   83 type  2   force =     0.00084505    0.00049578   -0.00055249
     atom   84 type  2   force =     0.00005780    0.00171347    0.00005351
     atom   85 type  2   force =     0.00026762    0.00027648    0.00011516
     atom   86 type  2   force =     0.00000904   -0.00000373    0.00016031
     atom   87 type  2   force =     0.00000846   -0.00000511    0.00112374
     atom   88 type  2   force =    -0.00150984   -0.00081785    0.00006177
     atom   89 type  2   force =    -0.00036619    0.00007858    0.00011790
     atom   90 type  2   force =    -0.00000100    0.00007140    0.00040076
     atom   91 type  2   force =    -0.00001119    0.00008926   -0.00053493
     atom   92 type  2   force =     0.00005364   -0.00002982    0.00040041
     atom   93 type  2   force =     0.00006544   -0.00003816   -0.00053788
     atom   94 type  2   force =    -0.00145551   -0.00090833    0.00005791
     atom   95 type  2   force =    -0.00010565   -0.00037002    0.00011483
     atom   96 type  2   force =    -0.00000016    0.00000332   -0.00000362
     The non-local contrib.  to forces
     atom    1 type  1   force =     0.00000462   -0.00002218   -0.00000847
     atom    2 type  1   force =     0.03486021   -0.06019885    0.00013837
     atom    3 type  1   force =     0.00184729   -0.00320264    0.00000200
     atom    4 type  1   force =    -0.00001011    0.00002155    0.00002807
     atom    5 type  1   force =     0.00000850   -0.00002313   -0.00000593
     atom    6 type  1   force =    -0.03488118    0.06022101   -0.00009765
     atom    7 type  1   force =    -0.00181880    0.00316567   -0.00000981
     atom    8 type  1   force =    -0.06957701    0.00007690   -0.00014977
     atom    9 type  1   force =    -0.00366926   -0.00002961   -0.00001040
     atom   10 type  1   force =    -0.03472987   -0.06022481   -0.00000041
     atom   11 type  1   force =    -0.00184670   -0.00318763   -0.00001363
     atom   12 type  1   force =     0.00003358   -0.01612117    0.01592785
     atom   13 type  1   force =     0.00000148   -0.01046540   -0.00781906
     atom   14 type  1   force =    -0.01393981    0.00804184    0.01596115
     atom   15 type  1   force =    -0.00899078    0.00516568   -0.00777870
     atom   16 type  1   force =    -0.00000823   -0.00002280   -0.00001087
     atom   17 type  1   force =     0.00000419   -0.00002668   -0.00001174
     atom   18 type  1   force =    -0.01393570   -0.00802945   -0.01591530
     atom   19 type  1   force =    -0.00904586   -0.00524289    0.00782231
     atom   20 type  1   force =     0.00001779    0.00000905    0.00002299
     atom   21 type  1   force =     0.00000105   -0.00002630   -0.00000486
     atom   22 type  1   force =     0.01393338    0.00799936    0.01593461
     atom   23 type  1   force =     0.00905932    0.00520430   -0.00783226
     atom   24 type  1   force =     0.06957896   -0.00014235    0.00012190
     atom   25 type  1   force =     0.00367907   -0.00000902    0.00001223
     atom   26 type  1   force =     0.01397822   -0.00807962   -0.01594058
     atom   27 type  1   force =     0.00897174   -0.00519597    0.00776199
     atom   28 type  1   force =    -0.00002403    0.01604412   -0.01593172
     atom   29 type  1   force =     0.00000320    0.01041772    0.00782476
     atom   30 type  1   force =     0.03478125    0.06024367    0.00003569
     atom   31 type  1   force =     0.00182349    0.00315284   -0.00000439
     atom   32 type  2   force =    -0.00000772   -0.00534977    0.26444423
     atom   33 type  2   force =     0.00005030   -0.13664582    0.17246497
     atom   34 type  2   force =    -0.00461927    0.00268519    0.26442873
     atom   35 type  2   force =    -0.11848679    0.06842280    0.17228301
     atom   36 type  2   force =    -0.00262940    0.00135382    0.24949177
     atom   37 type  2   force =    -0.03972176    0.02005700    0.21526886
     atom   38 type  2   force =    -0.00017711   -0.00294188    0.24950094
     atom   39 type  2   force =    -0.00248744   -0.04433637    0.21528826
     atom   40 type  2   force =     0.00946868   -0.00547282    0.27437664
     atom   41 type  2   force =     0.00691119   -0.00399476    0.23005355
     atom   42 type  2   force =     0.00462407    0.00269905    0.26444134
     atom   43 type  2   force =     0.11831185    0.06826427    0.17248518
     atom   44 type  2   force =     0.00001287    0.01097479    0.27439261
     atom   45 type  2   force =     0.00002938    0.00802486    0.23009158
     atom   46 type  2   force =     0.00028572    0.00016303    0.25379910
     atom   47 type  2   force =    -0.00539796   -0.00312193    0.22653257
     atom   48 type  2   force =    -0.00000481   -0.00033703    0.25380044
     atom   49 type  2   force =     0.00000121    0.00621571    0.22654202
     atom   50 type  2   force =     0.00245287    0.00164509    0.24949383
     atom   51 type  2   force =     0.03714653    0.02433945    0.21529010
     atom   52 type  2   force =     0.00263253    0.00134746    0.24948627
     atom   53 type  2   force =     0.03968885    0.02004862    0.21527372
     atom   54 type  2   force =    -0.00028372    0.00015602    0.25378897
     atom   55 type  2   force =     0.00538058   -0.00311176    0.22654859
     atom   56 type  2   force =    -0.00948691   -0.00550023    0.27438608
     atom   57 type  2   force =    -0.00691708   -0.00403375    0.23010593
     atom   58 type  2   force =    -0.00246608    0.00163283    0.24948591
     atom   59 type  2   force =    -0.03722757    0.02440200    0.21527102
     atom   60 type  2   force =     0.00000218    0.00002090    0.24206012
     atom   61 type  2   force =    -0.00001823    0.00002978    0.22466674
     atom   62 type  2   force =     0.00017053   -0.00294494    0.24948723
     atom   63 type  2   force =     0.00249405   -0.04440632    0.21527471
     atom   64 type  2   force =    -0.11834029   -0.06825633   -0.17251636
     atom   65 type  2   force =    -0.00463848   -0.00267604   -0.26443979
     atom   66 type  2   force =    -0.00692238    0.00398581   -0.23005495
     atom   67 type  2   force =    -0.00947659    0.00546178   -0.27436915
     atom   68 type  2   force =     0.00538150    0.00311059   -0.22653525
     atom   69 type  2   force =    -0.00030078   -0.00017520   -0.25380273
     atom   70 type  2   force =    -0.00003996   -0.00799025   -0.23009956
     atom   71 type  2   force =    -0.00002070   -0.01095504   -0.27438149
     atom   72 type  2   force =     0.11849058   -0.06841235   -0.17230948
     atom   73 type  2   force =     0.00462536   -0.00265184   -0.26442782
     atom   74 type  2   force =    -0.00006259    0.13662799   -0.17247322
     atom   75 type  2   force =     0.00001643    0.00535895   -0.26443473
     atom   76 type  2   force =     0.00249247    0.04434271   -0.21528677
     atom   77 type  2   force =     0.00018840    0.00295141   -0.24949596
     atom   78 type  2   force =     0.03971967   -0.02004338   -0.21527747
     atom   79 type  2   force =     0.00263736   -0.00130744   -0.24949120
     atom   80 type  2   force =     0.03723401   -0.02435947   -0.21527034
     atom   81 type  2   force =     0.00247099   -0.00159979   -0.24948989
     atom   82 type  2   force =     0.00692317    0.00403064   -0.23010284
     atom   83 type  2   force =     0.00949909    0.00549927   -0.27438615
     atom   84 type  2   force =    -0.00248959    0.04441885   -0.21527426
     atom   85 type  2   force =    -0.00016432    0.00295608   -0.24948494
     atom   86 type  2   force =     0.00002056    0.00000834   -0.22466479
     atom   87 type  2   force =     0.00000710    0.00001284   -0.24206340
     atom   88 type  2   force =    -0.03715557   -0.02430919   -0.21528623
     atom   89 type  2   force =    -0.00246532   -0.00161886   -0.24949934
     atom   90 type  2   force =    -0.00001118   -0.00622595   -0.22652975
     atom   91 type  2   force =    -0.00000325    0.00033893   -0.25379786
     atom   92 type  2   force =    -0.00538774    0.00310248   -0.22655229
     atom   93 type  2   force =     0.00027372   -0.00016388   -0.25379588
     atom   94 type  2   force =    -0.03969855   -0.02003731   -0.21528097
     atom   95 type  2   force =    -0.00264404   -0.00131302   -0.24948823
     atom   96 type  2   force =     0.00000620    0.00000902   -0.00000760
     The ionic contribution  to forces
     atom    1 type  1   force =     0.00003810    0.00065978    0.00196639
     atom    2 type  1   force =     0.65900036   -1.15461630   -0.00677752
     atom    3 type  1   force =     0.17566883   -0.30632191    0.00291021
     atom    4 type  1   force =     0.00040416   -0.00074061   -0.00326287
     atom    5 type  1   force =    -0.00005983   -0.00001237    0.00023418
     atom    6 type  1   force =    -0.65850460    1.15315751    0.00100539
     atom    7 type  1   force =    -0.17701951    0.30721923   -0.00028683
     atom    8 type  1   force =    -1.32862660   -0.00621104    0.00434856
     atom    9 type  1   force =    -0.35390059    0.00045723    0.00006180
     atom   10 type  1   force =    -0.66705901   -1.15279573   -0.00204070
     atom   11 type  1   force =    -0.17628524   -0.30635208    0.00170089
     atom   12 type  1   force =    -0.00086695    0.19513444   -0.61375894
     atom   13 type  1   force =     0.00059515    0.23571113    0.41461046
     atom   14 type  1   force =     0.16592878   -0.09600400   -0.61227852
     atom   15 type  1   force =     0.20222924   -0.11605056    0.41217695
     atom   16 type  1   force =     0.00018126    0.00144874    0.00062057
     atom   17 type  1   force =    -0.00010188    0.00107994    0.00231936
     atom   18 type  1   force =     0.16894003    0.09634400    0.61129028
     atom   19 type  1   force =     0.20370936    0.11842318   -0.41297205
     atom   20 type  1   force =    -0.00065742   -0.00045784   -0.00220362
     atom   21 type  1   force =    -0.00019715    0.00003771    0.00086180
     atom   22 type  1   force =    -0.16830490   -0.09636116   -0.61366670
     atom   23 type  1   force =    -0.20429315   -0.11793953    0.41609779
     atom   24 type  1   force =     1.32896759    0.00881569   -0.00456329
     atom   25 type  1   force =     0.35354636    0.00144082    0.00341860
     atom   26 type  1   force =    -0.16767392    0.09645011    0.60901302
     atom   27 type  1   force =    -0.20147048    0.11633549   -0.40911312
     atom   28 type  1   force =     0.00076664   -0.19295832    0.61072880
     atom   29 type  1   force =    -0.00068895   -0.23536753   -0.41384993
     atom   30 type  1   force =     0.66596662    1.15157104   -0.00308593
     atom   31 type  1   force =     0.17752972    0.30702382    0.00185169
     atom   32 type  2   force =     0.00080143    1.07547458  -15.34764784
     atom   33 type  2   force =    -0.00178855    6.16098767  -11.94157539
     atom   34 type  2   force =     0.93115563   -0.53838139  -15.34776220
     atom   35 type  2   force =     5.32512413   -3.07465979  -11.94299311
     atom   36 type  2   force =     0.00040113   -0.11168535  -14.54336383
     atom   37 type  2   force =     0.79379429    0.40119337  -13.68881754
     atom   38 type  2   force =    -0.09545162    0.05620741  -14.54479782
     atom   39 type  2   force =     0.74770160    0.48200205  -13.68727785
     atom   40 type  2   force =     0.06370536   -0.03651374  -13.52479301
     atom   41 type  2   force =    -0.77151427    0.44426189  -14.05684662
     atom   42 type  2   force =    -0.93027334   -0.53880810  -15.34806346
[...]
     atom   80 type  2   force =     0.00000354    0.00001245   -0.00002323
     atom   81 type  2   force =    -0.00001314    0.00000096    0.00002433
     atom   82 type  2   force =    -0.00002668   -0.00000428   -0.00001310
     atom   83 type  2   force =    -0.00001818    0.00000040    0.00002127
     atom   84 type  2   force =     0.00001777   -0.00000281   -0.00002527
     atom   85 type  2   force =    -0.00000325   -0.00001036    0.00002208
     atom   86 type  2   force =     0.00000768   -0.00000597   -0.00004975
     atom   87 type  2   force =     0.00000794   -0.00000611    0.00002547
     atom   88 type  2   force =    -0.00000138    0.00000618   -0.00002428
     atom   89 type  2   force =     0.00002036   -0.00000564    0.00002498
     atom   90 type  2   force =    -0.00000321    0.00000555   -0.00002034
     atom   91 type  2   force =    -0.00000141   -0.00001717    0.00002122
     atom   92 type  2   force =    -0.00000532    0.00000356   -0.00002349
     atom   93 type  2   force =    -0.00002528    0.00001497    0.00001856
     atom   94 type  2   force =     0.00001101   -0.00001592   -0.00002554
     atom   95 type  2   force =     0.00000774    0.00000712    0.00002291
     atom   96 type  2   force =    -0.00000137    0.00000085   -0.00001144

     Total force =     0.016619     Total SCF correction =     0.000276


     Computing stress (Cartesian axis) and pressure



     -----------------------------------------------
     Non-local corr. energy    =      46.31576151 Ry
     -----------------------------------------------

          total   stress  (Ry/bohr**3)                   (kbar)     P=       13.56
   0.00009183  -0.00000001   0.00000001           13.51       -0.00        0.00
  -0.00000001   0.00009182  -0.00000000           -0.00       13.51       -0.00
   0.00000001  -0.00000000   0.00009298            0.00       -0.00       13.68

     kinetic stress (kbar)  14930.38      0.00     -0.00
                                0.00  14930.38      0.00
                               -0.00      0.00  14937.94

     local   stress (kbar)  -7223.47      0.25     -0.08
                                0.25  -7223.27      0.03
                               -0.08      0.03    955.42

     nonloc. stress (kbar)   -960.04      0.00     -0.00
                                0.00   -960.04      0.00
                               -0.00      0.00   -965.87

     hartree stress (kbar)  11977.87     -0.10      0.04
                               -0.10  11977.79     -0.02
                                0.04     -0.02   8271.15

     exc-cor stress (kbar)   6982.61     -0.00     -0.00
                               -0.00   6982.61      0.00
                               -0.00      0.00   6981.93

     corecor stress (kbar) -11365.84      0.00      0.00
                                0.00 -11365.84     -0.00
                                0.00     -0.00 -11365.79

     ewald   stress (kbar) -14411.97     -0.15      0.04
                               -0.15 -14412.09     -0.02
                                0.04     -0.02 -18886.18

     hubbard stress (kbar)      0.00      0.00      0.00
                                0.00      0.00      0.00
                                0.00      0.00      0.00

     DFT-D   stress (kbar)      0.00      0.00      0.00
                                0.00      0.00      0.00
                                0.00      0.00      0.00

     XDM     stress (kbar)      0.00      0.00      0.00
                                0.00      0.00      0.00
                                0.00      0.00      0.00

     dft-nl  stress (kbar)     83.97      0.00      0.00
                                0.00     83.97     -0.00
                                0.00     -0.00     85.08

     TS-vdW  stress (kbar)      0.00      0.00      0.00
                                0.00      0.00      0.00
                                0.00      0.00      0.00

     MDB     stress (kbar)      0.00      0.00      0.00
                                0.00      0.00      0.00
                                0.00      0.00      0.00

     3D-RISM stress (kbar)      0.00      0.00      0.00
                                0.00      0.00      0.00
                                0.00      0.00      0.00

     Energy error            =      2.1E-03 Ry
     Gradient error          =      4.1E-03 Ry/Bohr

     number of scf cycles    =   6
     number of bfgs steps    =   5

     energy             old  =  -64422.2307464844 Ry
     energy             new  =  -64422.2328252376 Ry

     CASE: energy            _new < energy            _old

     new trust radius        =       0.0557129392 bohr
     new conv_thr            =       0.0000000041 Ry


ATOMIC_POSITIONS (angstrom)
Pb            2.3553758965        4.0792138592        7.3770122671
Pb            0.1035360745        7.9796013670       14.7542908328
Pb            0.0062107644        8.1479907975        7.3771023167
Pb           -2.3551940357       12.2381512989       14.7538865918
Pb           -2.3552893497       12.2383090835        7.3768470560
Pb           -4.8139348120       16.4967270921       14.7538781022
Pb           -4.7168068928       16.3285627979        7.3768516482
Pb            6.8592986286        4.0791901000       14.7540150092
Pb            7.0536206934        4.0792014663        7.3770056098
Pb            4.6072745439        7.9794893127       14.7540844855
Pb            4.7045128048        8.1479919283        7.3770299635
Pb            2.3553941450       12.1892626092       14.7777545313
Pb            2.3553526452       12.2377572836        7.4016884910
Pb           -0.0424026792       16.3423002229       14.7778258837
Pb           -0.0004720628       16.3181449948        7.4016242722
Pb           11.7767257112        4.0791487501       14.7543260780
Pb           11.7766584831        4.0792147143        7.3772208423
Pb            9.3789562162        8.1342068656       14.7303963191
Pb            9.4208613002        8.1584590472        7.3523914422
Pb            7.0659871008       12.2381691032       14.7540131397
Pb            7.0660204616       12.2383045009        7.3769903007
Pb            4.7531173622       16.3422516035       14.7778987233
Pb            4.7111542254       16.3181279168        7.4018645637
Pb           16.6941109493        4.0790961863       14.7544778478
Pb           16.4997034854        4.0792385274        7.3772853738
Pb           14.1745170234        8.1341507458       14.7303517359
Pb           14.1325356780        8.1584422714        7.3525419137
Pb           11.7766785611       12.2872273062       14.7302358189
Pb           11.7766773444       12.2388742938        7.3522396064
Pb            9.5247358174       16.4968083143       14.7541433197
Pb            9.4275657992       16.3285606136        7.3770571333
I             2.3552858565        1.3625033727        5.4930054248
I             2.3553506233        0.8315620150       12.6423389557
I             0.0024761895        5.4376470992        5.4931445755
I            -0.4562264871        5.7023321883       12.6431004077
I            -2.3471137506        9.5270078635        5.4877760262
I            -2.3963153649        9.5541785269       12.8789516452
I            -4.6992113643       13.6010567089        5.4875852387
I            -4.6999672967       13.5441742748       12.8786918195
I             7.1015593253        1.3390657760        5.5345821908
I             7.0737797691        1.3551204865       12.8406029222
I             4.7081709462        5.4376924024        5.4930609060
I             5.1682073432        5.7030215111       12.6421439117
I             2.3553656240        9.5597527229        5.5347796465
I             2.3553920976        9.5275425989       12.8407147979
I             0.0056339733       13.6014189542        5.5124311311
I             0.0022078323       13.5994109211       12.8585830329
I            11.7767025889        1.3532298408        5.5126331174
I            11.7766859542        1.3571432457       12.8588146793
I             9.4246113477        5.4277804745        5.4878838996
I             9.4733558243        5.4567076072       12.8790316651
I             7.0578376097        9.5270949460        5.4878154924
I             7.1072062377        9.5543938056       12.8789982881
I             4.7051242293       13.6014563160        5.5125845489
I             4.7085420024       13.5994386025       12.8586474609
I            16.4515661022        1.3389624783        5.5348990076
I            16.4795599980        1.3551147371       12.8408476552
I            14.1287855316        5.4277815740        5.4880192954
I            14.0804670777        5.4566240397       12.8792401764
I            11.7767735509        9.5185658457        5.4561349968
I            11.7766573507        9.5185861253       12.8784782474
I             9.4099017045       13.6010999031        5.4877588410
I             9.4107420982       13.5443676272       12.8789427656
I            -0.4573866877        2.4550569142        2.1120113382
I             0.0026225076        2.7208052322        9.2609971129
I            -2.3630208676        6.8034687638        1.9134902245
I            -2.3906921116        6.8194345281        9.2196037754
I            -4.7126774613       10.8772816155        1.8951441821
I            -4.7161457995       10.8753795108        9.2414536336
I            -7.0658835345       14.9490143408        1.9132315085
I            -7.0658580977       14.9167696345        9.2193043116
I             5.1672910105        2.4555842942        2.1111301851
I             4.7081948192        2.7208095522        9.2608502194
I             2.3553794825        7.3270886790        2.1119440178
I             2.3554093908        6.7960860626        9.2609142327
I            -0.0104842029       10.9321558700        1.8750103236
I            -0.0114085922       10.8756832889        9.2661147298
I            -2.3140568847       14.9218467552        1.8748396697
I            -2.3635180304       14.9496212185        9.2660224735
I             9.4729997563        2.7015666216        1.8750720238
I             9.4244532197        2.7306814248        9.2662520117
I             7.0737780730        6.8034370783        1.9133197224
I             7.1016907942        6.8195185835        9.2193245490
I             4.7212063241       10.9319730249        1.8748803488
I             4.7220923183       10.8756334040        9.2661328693
I             2.3553655275       14.9579722270        1.8754946213
I             2.3552302084       14.9580589606        9.2979748956
I            14.0801202927        2.7015010607        1.8753463624
I            14.1287482967        2.7307174028        9.2664268515
I            11.7766846141        6.8014359086        1.8953935075
I            11.7766327798        6.8054238375        9.2416308130
I             9.4235084034       10.8772567412        1.8952355308
I             9.4269095331       10.8753323210        9.2414259746
I             7.0247632451       14.9217641659        1.8749968903
I             7.0742483370       14.9495726390        9.2662173412
I             2.3555254800        4.0792839802       14.7546351342



     Writing config-only to output data dir ./PbI2.save/
     NEW-OLD atomic charge density approx. for the potential

     Check: negative core charge=   -0.000001


     -----------------------------------------------
     Non-local corr. energy    =      46.31538699 Ry
     -----------------------------------------------


     total cpu time spent up to now is    15774.0 secs

     Self-consistent Calculation

     iteration #  1     ecut=    70.00 Ry     beta= 0.70
     Davidson diagonalization with overlap

---- Real-time Memory Report at c_bands before calling an iterative solver
          1385 MiB given to the printing process from OS
             0 MiB allocation reported by mallinfo(arena+hblkhd)
       1790071 MiB available memory on the node where the printing process lives
------------------
     c_bands:  1 eigenvalues not converged
     ethr =  1.00E-06,  avg # of iterations = 20.0


     -----------------------------------------------
     Non-local corr. energy    =      46.30339666 Ry
     -----------------------------------------------


     total cpu time spent up to now is    15931.0 secs

     total energy              =  -64422.22884469 Ry
     estimated scf accuracy    <       0.00794674 Ry

     iteration #  2     ecut=    70.00 Ry     beta= 0.70
     Davidson diagonalization with overlap

---- Real-time Memory Report at c_bands before calling an iterative solver
          1385 MiB given to the printing process from OS
             0 MiB allocation reported by mallinfo(arena+hblkhd)
       1784554 MiB available memory on the node where the printing process lives
------------------
     ethr =  5.15E-07,  avg # of iterations = 19.0


     -----------------------------------------------
     Non-local corr. energy    =      46.30809662 Ry
     -----------------------------------------------


     total cpu time spent up to now is    16219.9 secs

     total energy              =  -64422.23160543 Ry
     estimated scf accuracy    <       0.01813586 Ry

     iteration #  3     ecut=    70.00 Ry     beta= 0.70
     Davidson diagonalization with overlap

---- Real-time Memory Report at c_bands before calling an iterative solver
          1385 MiB given to the printing process from OS
             0 MiB allocation reported by mallinfo(arena+hblkhd)
       1784831 MiB available memory on the node where the printing process lives
------------------
     c_bands:  3 eigenvalues not converged
     ethr =  5.15E-07,  avg # of iterations = 20.0


     -----------------------------------------------
     Non-local corr. energy    =      46.30853551 Ry
     -----------------------------------------------


     total cpu time spent up to now is    16478.2 secs

     total energy              =  -64422.23094049 Ry
     estimated scf accuracy    <       0.05209241 Ry

     iteration #  4     ecut=    70.00 Ry     beta= 0.70
     Davidson diagonalization with overlap

---- Real-time Memory Report at c_bands before calling an iterative solver
          1385 MiB given to the printing process from OS
             0 MiB allocation reported by mallinfo(arena+hblkhd)
       1785068 MiB available memory on the node where the printing process lives
------------------
     ethr =  5.15E-07,  avg # of iterations = 17.0


     -----------------------------------------------
     Non-local corr. energy    =      46.30989555 Ry
     -----------------------------------------------


     total cpu time spent up to now is    16641.6 secs

     total energy              =  -64422.23467790 Ry
     estimated scf accuracy    <       0.00289493 Ry

     iteration #  5     ecut=    70.00 Ry     beta= 0.70
     Davidson diagonalization with overlap

---- Real-time Memory Report at c_bands before calling an iterative solver
          1385 MiB given to the printing process from OS
             0 MiB allocation reported by mallinfo(arena+hblkhd)
       1785542 MiB available memory on the node where the printing process lives
------------------
     c_bands:  1 eigenvalues not converged
     ethr =  1.88E-07,  avg # of iterations = 20.0


     -----------------------------------------------
     Non-local corr. energy    =      46.31128505 Ry
     -----------------------------------------------


     total cpu time spent up to now is    16832.8 secs

     total energy              =  -64422.23478269 Ry
     estimated scf accuracy    <       0.00100836 Ry

     iteration #  6     ecut=    70.00 Ry     beta= 0.70
     Davidson diagonalization with overlap

---- Real-time Memory Report at c_bands before calling an iterative solver
          1385 MiB given to the printing process from OS
             0 MiB allocation reported by mallinfo(arena+hblkhd)
       1785943 MiB available memory on the node where the printing process lives
------------------
     c_bands:  1 eigenvalues not converged
     ethr =  6.54E-08,  avg # of iterations = 20.0


     -----------------------------------------------
     Non-local corr. energy    =      46.31380103 Ry
     -----------------------------------------------


     total cpu time spent up to now is    16995.7 secs

     total energy              =  -64422.23471360 Ry
     estimated scf accuracy    <       0.00055459 Ry

     iteration #  7     ecut=    70.00 Ry     beta= 0.70
     Davidson diagonalization with overlap

---- Real-time Memory Report at c_bands before calling an iterative solver
          1385 MiB given to the printing process from OS
             0 MiB allocation reported by mallinfo(arena+hblkhd)
       1785629 MiB available memory on the node where the printing process lives
------------------
     ethr =  3.60E-08,  avg # of iterations = 15.0


     -----------------------------------------------
     Non-local corr. energy    =      46.31530394 Ry
     -----------------------------------------------


     total cpu time spent up to now is    17124.6 secs

     total energy              =  -64422.23472243 Ry
     estimated scf accuracy    <       0.00014927 Ry

     iteration #  8     ecut=    70.00 Ry     beta= 0.70
     Davidson diagonalization with overlap

---- Real-time Memory Report at c_bands before calling an iterative solver
          1385 MiB given to the printing process from OS
             0 MiB allocation reported by mallinfo(arena+hblkhd)
       1785556 MiB available memory on the node where the printing process lives
------------------
     ethr =  9.68E-09,  avg # of iterations = 17.0


     -----------------------------------------------
     Non-local corr. energy    =      46.31555749 Ry
     -----------------------------------------------


     total cpu time spent up to now is    17294.8 secs

     total energy              =  -64422.23472823 Ry
     estimated scf accuracy    <       0.00007028 Ry

     iteration #  9     ecut=    70.00 Ry     beta= 0.70
     Davidson diagonalization with overlap

---- Real-time Memory Report at c_bands before calling an iterative solver
          1385 MiB given to the printing process from OS
             0 MiB allocation reported by mallinfo(arena+hblkhd)
       1786351 MiB available memory on the node where the printing process lives
------------------
     ethr =  4.56E-09,  avg # of iterations = 16.0


     -----------------------------------------------
     Non-local corr. energy    =      46.31564859 Ry
     -----------------------------------------------


     total cpu time spent up to now is    17440.2 secs

     total energy              =  -64422.23472951 Ry
     estimated scf accuracy    <       0.00003228 Ry

     iteration # 10     ecut=    70.00 Ry     beta= 0.70
     Davidson diagonalization with overlap

---- Real-time Memory Report at c_bands before calling an iterative solver
          1385 MiB given to the printing process from OS
             0 MiB allocation reported by mallinfo(arena+hblkhd)
       1786100 MiB available memory on the node where the printing process lives
------------------
     ethr =  2.09E-09,  avg # of iterations = 16.0


     -----------------------------------------------
     Non-local corr. energy    =      46.31574081 Ry
     -----------------------------------------------


     total cpu time spent up to now is    17581.2 secs

     total energy              =  -64422.23473021 Ry
     estimated scf accuracy    <       0.00001110 Ry

     iteration # 11     ecut=    70.00 Ry     beta= 0.70
     Davidson diagonalization with overlap

---- Real-time Memory Report at c_bands before calling an iterative solver
          1385 MiB given to the printing process from OS
             0 MiB allocation reported by mallinfo(arena+hblkhd)
       1786092 MiB available memory on the node where the printing process lives
------------------
