
     Program PWSCF v.7.1 starts on  9Jan2024 at 15:14: 6 

     This program is part of the open-source Quantum ESPRESSO suite
     for quantum simulation of materials; please cite
         "P. Giannozzi et al., J. Phys.:Condens. Matter 21 395502 (2009);
         "P. Giannozzi et al., J. Phys.:Condens. Matter 29 465901 (2017);
         "P. Giannozzi et al., J. Chem. Phys. 152 154105 (2020);
          URL http://www.quantum-espresso.org", 
     in publications or presentations arising from this work. More details at
     http://www.quantum-espresso.org/quote

     Parallel version (MPI & OpenMP), running on     256 processor cores
     Number of MPI processes:               256
     Threads/MPI process:                     1

     MPI processes distributed on     2 nodes
     1322137 MiB available memory on the printing compute node when the environment starts
 
     Reading input from espresso.pwi
Warning: card &CELL ignored
Warning: card    CELL_DYNAMICS    = 'BFGS' ignored
Warning: card / ignored

     Current dimensions of program PWSCF are:
     Max number of different atomic species (ntypx) = 10
     Max number of k-points (npk) =  40000
     Max angular momentum in pseudopotentials (lmaxx) =  4
     file C.pbe-n-kjpaw_psl.1.0.0.UPF: wavefunction(s)  2S 2P renormalized

     **************************************************************************
     Initializing libbeef V0.1.2 with the BEEF-vdW functional.
     Citation: Wellendorff et al., PRB 85, 235149 (2012).
     **************************************************************************


     IMPORTANT: XC functional enforced from input :
     Exchange-correlation= BEEF-VDW
                           (   1   4  43  14   2   0   0)
     Any further DFT definition will be discarded
     Please, verify this is what you really want

 
     R & G space division:  proc/nbgrp/npool/nimage =     256
     WARNING: too many processors for an effective parallelization!
     wavefunctions fft division:  task group distribution
                                  #TG    x Z-proc =       8     32
     Subspace diagonalization in iterative solution of the eigenvalue problem:
     a serial algorithm will be used

 
     Parallelization info
     --------------------
     sticks:   dense  smooth     PW     G-vecs:    dense   smooth      PW
     Min          79      63     15                 8501     6083     751
     Max          80      64     16                 8510     6094     766
     Sum       20305   16237   4049              2177001  1558403  194543
 
     Using Pencil Decomposition
 


     bravais-lattice index     =            1
     lattice parameter (alat)  =      27.0027  a.u.
     unit-cell volume          =   19688.9026 (a.u.)^3
     number of atoms/cell      =          511
     number of atomic types    =            1
     number of electrons       =      2042.00
     number of Kohn-Sham states=         1225
     kinetic-energy cutoff     =      70.0000  Ry
     charge density cutoff     =     350.0000  Ry
     scf convergence threshold =      1.0E-08
     mixing beta               =       0.7000
     number of iterations used =            8  plain     mixing
     Exchange-correlation= BEEF-VDW
                           (   1   4  43  14   2   0   0)

     celldm(1)=  27.002699  celldm(2)=   0.000000  celldm(3)=   0.000000
     celldm(4)=   0.000000  celldm(5)=   0.000000  celldm(6)=   0.000000

     crystal axes: (cart. coord. in units of alat)
               a(1) = (   1.000000   0.000000   0.000000 )  
               a(2) = (   0.000000   1.000000   0.000000 )  
               a(3) = (   0.000000   0.000000   1.000000 )  

     reciprocal axes: (cart. coord. in units 2 pi/alat)
               b(1) = (  1.000000  0.000000  0.000000 )  
               b(2) = (  0.000000  1.000000  0.000000 )  
               b(3) = (  0.000000  0.000000  1.000000 )  


     PseudoPot. # 1 for C  read from file:
     /trace/group/acmegroup/atimmins/packages/espresso/pseudo/psl_1.0.0/pslibrary.1.0.0/pbe/PSEUDOPOTENTIALS/C.pbe-n-kjpaw_psl.1.0.0.UPF
     MD5 check sum: 5459cf7f2c8c37df2f7cde8914797f4d
     Pseudo is Projector augmented-wave + core cor, Zval =  4.0
     Generated using 'atomic' code by A. Dal Corso  v.7.1
     Shape of augmentation charge: PSQ
     Using radial grid of 1073 points,  4 beta functions with: 
                l(1) =   0
                l(2) =   0
                l(3) =   1
                l(4) =   1
     Q(r) pseudized with 0 coefficients 


     atomic species   valence    mass     pseudopotential
        C              4.00    12.01100     C ( 1.00)

      6 Sym. Ops. (no inversion) found ( 4 have fractional translation)


                                    s                        frac. trans.

      isym =  1     identity                                     

 cryst.   s( 1) = (     1          0          0      )
                  (     0          1          0      )
                  (     0          0          1      )

 cart.    s( 1) = (  1.0000000  0.0000000  0.0000000 )
                  (  0.0000000  1.0000000  0.0000000 )
                  (  0.0000000  0.0000000  1.0000000 )


      isym =  2     120 deg rotation - cart. axis [1,-1,1]       

 cryst.   s( 2) = (     0          0          1      )    f =( -0.2500000 )
                  (    -1          0          0      )       ( -0.2500000 )
                  (     0         -1          0      )       (  0.0000000 )

 cart.    s( 2) = (  0.0000000 -1.0000000  0.0000000 )    f =( -0.2500000 )
                  (  0.0000000  0.0000000 -1.0000000 )       ( -0.2500000 )
                  (  1.0000000  0.0000000  0.0000000 )       (  0.0000000 )


      isym =  3     120 deg rotation - cart. axis [-1,1,-1]      

 cryst.   s( 3) = (     0         -1          0      )    f =(  0.0000000 )
                  (     0          0         -1      )       ( -0.2500000 )
                  (     1          0          0      )       ( -0.2500000 )

 cart.    s( 3) = (  0.0000000  0.0000000  1.0000000 )    f =(  0.0000000 )
                  ( -1.0000000  0.0000000  0.0000000 )       ( -0.2500000 )
                  (  0.0000000 -1.0000000  0.0000000 )       ( -0.2500000 )


      isym =  4     inv. 180 deg rotation - cart. axis [1,1,0]   

 cryst.   s( 4) = (     0         -1          0      )    f =( -0.2500000 )
                  (    -1          0          0      )       ( -0.2500000 )
                  (     0          0          1      )       (  0.0000000 )

 cart.    s( 4) = (  0.0000000 -1.0000000  0.0000000 )    f =( -0.2500000 )
                  ( -1.0000000  0.0000000  0.0000000 )       ( -0.2500000 )
                  (  0.0000000  0.0000000  1.0000000 )       (  0.0000000 )


      isym =  5     inv. 180 deg rotation - cart. axis [-1,0,1]  

 cryst.   s( 5) = (     0          0          1      )
                  (     0          1          0      )
                  (     1          0          0      )

 cart.    s( 5) = (  0.0000000  0.0000000  1.0000000 )
                  (  0.0000000  1.0000000  0.0000000 )
                  (  1.0000000  0.0000000  0.0000000 )


      isym =  6     inv. 180 deg rotation - cart. axis [0,1,1]   

 cryst.   s( 6) = (     1          0          0      )    f =(  0.0000000 )
                  (     0          0         -1      )       ( -0.2500000 )
                  (     0         -1          0      )       ( -0.2500000 )

 cart.    s( 6) = (  1.0000000  0.0000000  0.0000000 )    f =(  0.0000000 )
                  (  0.0000000  0.0000000 -1.0000000 )       ( -0.2500000 )
                  (  0.0000000 -1.0000000  0.0000000 )       ( -0.2500000 )


     point group C_3v (3m)  
     there are  3 classes
     the character table:

       E     2C3   3s_v 
A_1    1.00  1.00  1.00
A_2    1.00  1.00 -1.00
E      2.00 -1.00  0.00

     the symmetry operations in each class and the name of the first element:

     E        1
          identity                                               
     2C3      2    3
          120 deg rotation - cart. axis [1,-1,1]                 
     3s_v     4    5    6
          inv. 180 deg rotation - cart. axis [1,1,0]             

   Cartesian axes

     site n.     atom                  positions (alat units)
         1           C   tau(   1) = (   0.0625015   0.1874985   0.3125015  )
         2           C   tau(   2) = (   0.0625015   0.1874985   0.5625015  )
         3           C   tau(   3) = (   0.0625015   0.1874985   0.8125015  )
         4           C   tau(   4) = (   0.0625015   0.4374985   0.0625015  )
         5           C   tau(   5) = (   0.0625015   0.4374985   0.3125015  )
         6           C   tau(   6) = (   0.0625015   0.4374985   0.5625015  )
         7           C   tau(   7) = (   0.0625015   0.4374985   0.8125015  )
         8           C   tau(   8) = (   0.0625015   0.6874985   0.0625015  )
         9           C   tau(   9) = (   0.0625015   0.6874985   0.3125015  )
        10           C   tau(  10) = (   0.0625015   0.6874985   0.5625015  )
        11           C   tau(  11) = (   0.0625015   0.6874985   0.8125015  )
        12           C   tau(  12) = (   0.0625015   0.9374985   0.0625015  )
        13           C   tau(  13) = (   0.0625015   0.9374985   0.3125015  )
        14           C   tau(  14) = (   0.0625015   0.9374985   0.5625015  )
        15           C   tau(  15) = (   0.0625015   0.9374985   0.8125015  )
        16           C   tau(  16) = (   0.3125015   0.1874985   0.0625015  )
        17           C   tau(  17) = (   0.3125015   0.1874985   0.3125015  )
        18           C   tau(  18) = (   0.3125015   0.1874985   0.5625015  )
        19           C   tau(  19) = (   0.3125015   0.1874985   0.8125015  )
        20           C   tau(  20) = (   0.3125015   0.4374985   0.0625015  )
        21           C   tau(  21) = (   0.3125015   0.4374985   0.3125015  )
        22           C   tau(  22) = (   0.3125015   0.4374985   0.5625015  )
        23           C   tau(  23) = (   0.3125015   0.4374985   0.8125015  )
        24           C   tau(  24) = (   0.3125015   0.6874985   0.0625015  )
        25           C   tau(  25) = (   0.3125015   0.6874985   0.3125015  )
        26           C   tau(  26) = (   0.3125015   0.6874985   0.5625015  )
        27           C   tau(  27) = (   0.3125015   0.6874985   0.8125015  )
        28           C   tau(  28) = (   0.3125015   0.9374985   0.0625015  )
        29           C   tau(  29) = (   0.3125015   0.9374985   0.3125015  )
        30           C   tau(  30) = (   0.3125015   0.9374985   0.5625015  )
        31           C   tau(  31) = (   0.3125015   0.9374985   0.8125015  )
        32           C   tau(  32) = (   0.5625015   0.1874985   0.0625015  )
        33           C   tau(  33) = (   0.5625015   0.1874985   0.3125015  )
        34           C   tau(  34) = (   0.5625015   0.1874985   0.5625015  )
        35           C   tau(  35) = (   0.5625015   0.1874985   0.8125015  )
        36           C   tau(  36) = (   0.5625015   0.4374985   0.0625015  )
        37           C   tau(  37) = (   0.5625015   0.4374985   0.3125015  )
        38           C   tau(  38) = (   0.5625015   0.4374985   0.5625015  )
        39           C   tau(  39) = (   0.5625015   0.4374985   0.8125015  )
        40           C   tau(  40) = (   0.5625015   0.6874985   0.0625015  )
        41           C   tau(  41) = (   0.5625015   0.6874985   0.3125015  )
        42           C   tau(  42) = (   0.5625015   0.6874985   0.5625015  )
        43           C   tau(  43) = (   0.5625015   0.6874985   0.8125015  )
        44           C   tau(  44) = (   0.5625015   0.9374985   0.0625015  )
        45           C   tau(  45) = (   0.5625015   0.9374985   0.3125015  )
        46           C   tau(  46) = (   0.5625015   0.9374985   0.5625015  )
        47           C   tau(  47) = (   0.5625015   0.9374985   0.8125015  )
        48           C   tau(  48) = (   0.8125015   0.1874985   0.0625015  )
        49           C   tau(  49) = (   0.8125015   0.1874985   0.3125015  )
        50           C   tau(  50) = (   0.8125015   0.1874985   0.5625015  )
        51           C   tau(  51) = (   0.8125015   0.1874985   0.8125015  )
        52           C   tau(  52) = (   0.8125015   0.4374985   0.0625015  )
        53           C   tau(  53) = (   0.8125015   0.4374985   0.3125015  )
        54           C   tau(  54) = (   0.8125015   0.4374985   0.5625015  )
        55           C   tau(  55) = (   0.8125015   0.4374985   0.8125015  )
        56           C   tau(  56) = (   0.8125015   0.6874985   0.0625015  )
        57           C   tau(  57) = (   0.8125015   0.6874985   0.3125015  )
        58           C   tau(  58) = (   0.8125015   0.6874985   0.5625015  )
        59           C   tau(  59) = (   0.8125015   0.6874985   0.8125015  )
        60           C   tau(  60) = (   0.8125015   0.9374985   0.0625015  )
        61           C   tau(  61) = (   0.8125015   0.9374985   0.3125015  )
        62           C   tau(  62) = (   0.8125015   0.9374985   0.5625015  )
        63           C   tau(  63) = (   0.8125015   0.9374985   0.8125015  )
        64           C   tau(  64) = (   0.0000000   0.0000000   0.1250000  )
        65           C   tau(  65) = (   0.0000000   0.0000000   0.3750000  )
        66           C   tau(  66) = (   0.0000000   0.0000000   0.6250000  )
        67           C   tau(  67) = (   0.0000000   0.0000000   0.8750000  )
        68           C   tau(  68) = (   0.0000000   0.2500000   0.1250000  )
        69           C   tau(  69) = (   0.0000000   0.2500000   0.3750000  )
        70           C   tau(  70) = (   0.0000000   0.2500000   0.6250000  )
        71           C   tau(  71) = (   0.0000000   0.2500000   0.8750000  )
        72           C   tau(  72) = (   0.0000000   0.5000000   0.1250000  )
        73           C   tau(  73) = (   0.0000000   0.5000000   0.3750000  )
        74           C   tau(  74) = (   0.0000000   0.5000000   0.6250000  )
        75           C   tau(  75) = (   0.0000000   0.5000000   0.8750000  )
        76           C   tau(  76) = (   0.0000000   0.7500000   0.1250000  )
        77           C   tau(  77) = (   0.0000000   0.7500000   0.3750000  )
        78           C   tau(  78) = (   0.0000000   0.7500000   0.6250000  )
        79           C   tau(  79) = (   0.0000000   0.7500000   0.8750000  )
        80           C   tau(  80) = (   0.2500000   0.0000000   0.1250000  )
        81           C   tau(  81) = (   0.2500000   0.0000000   0.3750000  )
        82           C   tau(  82) = (   0.2500000   0.0000000   0.6250000  )
        83           C   tau(  83) = (   0.2500000   0.0000000   0.8750000  )
        84           C   tau(  84) = (   0.2500000   0.2500000   0.1250000  )
        85           C   tau(  85) = (   0.2500000   0.2500000   0.3750000  )
        86           C   tau(  86) = (   0.2500000   0.2500000   0.6250000  )
        87           C   tau(  87) = (   0.2500000   0.2500000   0.8750000  )
        88           C   tau(  88) = (   0.2500000   0.5000000   0.1250000  )
        89           C   tau(  89) = (   0.2500000   0.5000000   0.3750000  )
        90           C   tau(  90) = (   0.2500000   0.5000000   0.6250000  )
        91           C   tau(  91) = (   0.2500000   0.5000000   0.8750000  )
        92           C   tau(  92) = (   0.2500000   0.7500000   0.1250000  )
        93           C   tau(  93) = (   0.2500000   0.7500000   0.3750000  )
        94           C   tau(  94) = (   0.2500000   0.7500000   0.6250000  )
        95           C   tau(  95) = (   0.2500000   0.7500000   0.8750000  )
        96           C   tau(  96) = (   0.5000000   0.0000000   0.1250000  )
        97           C   tau(  97) = (   0.5000000   0.0000000   0.3750000  )
        98           C   tau(  98) = (   0.5000000   0.0000000   0.6250000  )
        99           C   tau(  99) = (   0.5000000   0.0000000   0.8750000  )
       100           C   tau( 100) = (   0.5000000   0.2500000   0.1250000  )
       101           C   tau( 101) = (   0.5000000   0.2500000   0.3750000  )
       102           C   tau( 102) = (   0.5000000   0.2500000   0.6250000  )
       103           C   tau( 103) = (   0.5000000   0.2500000   0.8750000  )
       104           C   tau( 104) = (   0.5000000   0.5000000   0.1250000  )
       105           C   tau( 105) = (   0.5000000   0.5000000   0.3750000  )
       106           C   tau( 106) = (   0.5000000   0.5000000   0.6250000  )
       107           C   tau( 107) = (   0.5000000   0.5000000   0.8750000  )
       108           C   tau( 108) = (   0.5000000   0.7500000   0.1250000  )
       109           C   tau( 109) = (   0.5000000   0.7500000   0.3750000  )
       110           C   tau( 110) = (   0.5000000   0.7500000   0.6250000  )
       111           C   tau( 111) = (   0.5000000   0.7500000   0.8750000  )
       112           C   tau( 112) = (   0.7500000   0.0000000   0.1250000  )
       113           C   tau( 113) = (   0.7500000   0.0000000   0.3750000  )
       114           C   tau( 114) = (   0.7500000   0.0000000   0.6250000  )
       115           C   tau( 115) = (   0.7500000   0.0000000   0.8750000  )
       116           C   tau( 116) = (   0.7500000   0.2500000   0.1250000  )
       117           C   tau( 117) = (   0.7500000   0.2500000   0.3750000  )
       118           C   tau( 118) = (   0.7500000   0.2500000   0.6250000  )
       119           C   tau( 119) = (   0.7500000   0.2500000   0.8750000  )
       120           C   tau( 120) = (   0.7500000   0.5000000   0.1250000  )
       121           C   tau( 121) = (   0.7500000   0.5000000   0.3750000  )
       122           C   tau( 122) = (   0.7500000   0.5000000   0.6250000  )
       123           C   tau( 123) = (   0.7500000   0.5000000   0.8750000  )
       124           C   tau( 124) = (   0.7500000   0.7500000   0.1250000  )
       125           C   tau( 125) = (   0.7500000   0.7500000   0.3750000  )
       126           C   tau( 126) = (   0.7500000   0.7500000   0.6250000  )
       127           C   tau( 127) = (   0.7500000   0.7500000   0.8750000  )
       128           C   tau( 128) = (   0.0625015   0.0625015   0.1874985  )
       129           C   tau( 129) = (   0.0625015   0.0625015   0.4374985  )
       130           C   tau( 130) = (   0.0625015   0.0625015   0.6874985  )
       131           C   tau( 131) = (   0.0625015   0.0625015   0.9374985  )
       132           C   tau( 132) = (   0.0625015   0.3125015   0.1874985  )
       133           C   tau( 133) = (   0.0625015   0.3125015   0.4374985  )
       134           C   tau( 134) = (   0.0625015   0.3125015   0.6874985  )
       135           C   tau( 135) = (   0.0625015   0.3125015   0.9374985  )
       136           C   tau( 136) = (   0.0625015   0.5625015   0.1874985  )
       137           C   tau( 137) = (   0.0625015   0.5625015   0.4374985  )
       138           C   tau( 138) = (   0.0625015   0.5625015   0.6874985  )
       139           C   tau( 139) = (   0.0625015   0.5625015   0.9374985  )
       140           C   tau( 140) = (   0.0625015   0.8125015   0.1874985  )
       141           C   tau( 141) = (   0.0625015   0.8125015   0.4374985  )
       142           C   tau( 142) = (   0.0625015   0.8125015   0.6874985  )
       143           C   tau( 143) = (   0.0625015   0.8125015   0.9374985  )
       144           C   tau( 144) = (   0.3125015   0.0625015   0.1874985  )
       145           C   tau( 145) = (   0.3125015   0.0625015   0.4374985  )
       146           C   tau( 146) = (   0.3125015   0.0625015   0.6874985  )
       147           C   tau( 147) = (   0.3125015   0.0625015   0.9374985  )
       148           C   tau( 148) = (   0.3125015   0.3125015   0.1874985  )
       149           C   tau( 149) = (   0.3125015   0.3125015   0.4374985  )
       150           C   tau( 150) = (   0.3125015   0.3125015   0.6874985  )
       151           C   tau( 151) = (   0.3125015   0.3125015   0.9374985  )
       152           C   tau( 152) = (   0.3125015   0.5625015   0.1874985  )
       153           C   tau( 153) = (   0.3125015   0.5625015   0.4374985  )
       154           C   tau( 154) = (   0.3125015   0.5625015   0.6874985  )
       155           C   tau( 155) = (   0.3125015   0.5625015   0.9374985  )
       156           C   tau( 156) = (   0.3125015   0.8125015   0.1874985  )
       157           C   tau( 157) = (   0.3125015   0.8125015   0.4374985  )
       158           C   tau( 158) = (   0.3125015   0.8125015   0.6874985  )
       159           C   tau( 159) = (   0.3125015   0.8125015   0.9374985  )
       160           C   tau( 160) = (   0.5625015   0.0625015   0.1874985  )
       161           C   tau( 161) = (   0.5625015   0.0625015   0.4374985  )
       162           C   tau( 162) = (   0.5625015   0.0625015   0.6874985  )
       163           C   tau( 163) = (   0.5625015   0.0625015   0.9374985  )
       164           C   tau( 164) = (   0.5625015   0.3125015   0.1874985  )
       165           C   tau( 165) = (   0.5625015   0.3125015   0.4374985  )
       166           C   tau( 166) = (   0.5625015   0.3125015   0.6874985  )
       167           C   tau( 167) = (   0.5625015   0.3125015   0.9374985  )
       168           C   tau( 168) = (   0.5625015   0.5625015   0.1874985  )
       169           C   tau( 169) = (   0.5625015   0.5625015   0.4374985  )
       170           C   tau( 170) = (   0.5625015   0.5625015   0.6874985  )
       171           C   tau( 171) = (   0.5625015   0.5625015   0.9374985  )
       172           C   tau( 172) = (   0.5625015   0.8125015   0.1874985  )
       173           C   tau( 173) = (   0.5625015   0.8125015   0.4374985  )
       174           C   tau( 174) = (   0.5625015   0.8125015   0.6874985  )
       175           C   tau( 175) = (   0.5625015   0.8125015   0.9374985  )
       176           C   tau( 176) = (   0.8125015   0.0625015   0.1874985  )
       177           C   tau( 177) = (   0.8125015   0.0625015   0.4374985  )
       178           C   tau( 178) = (   0.8125015   0.0625015   0.6874985  )
       179           C   tau( 179) = (   0.8125015   0.0625015   0.9374985  )
       180           C   tau( 180) = (   0.8125015   0.3125015   0.1874985  )
       181           C   tau( 181) = (   0.8125015   0.3125015   0.4374985  )
       182           C   tau( 182) = (   0.8125015   0.3125015   0.6874985  )
       183           C   tau( 183) = (   0.8125015   0.3125015   0.9374985  )
       184           C   tau( 184) = (   0.8125015   0.5625015   0.1874985  )
       185           C   tau( 185) = (   0.8125015   0.5625015   0.4374985  )
       186           C   tau( 186) = (   0.8125015   0.5625015   0.6874985  )
       187           C   tau( 187) = (   0.8125015   0.5625015   0.9374985  )
       188           C   tau( 188) = (   0.8125015   0.8125015   0.1874985  )
       189           C   tau( 189) = (   0.8125015   0.8125015   0.4374985  )
       190           C   tau( 190) = (   0.8125015   0.8125015   0.6874985  )
       191           C   tau( 191) = (   0.8125015   0.8125015   0.9374985  )
       192           C   tau( 192) = (   0.0000000   0.1250000   0.0000000  )
       193           C   tau( 193) = (   0.0000000   0.1250000   0.2500000  )
       194           C   tau( 194) = (   0.0000000   0.1250000   0.5000000  )
       195           C   tau( 195) = (   0.0000000   0.1250000   0.7500000  )
       196           C   tau( 196) = (   0.0000000   0.3750000   0.0000000  )
       197           C   tau( 197) = (   0.0000000   0.3750000   0.2500000  )
       198           C   tau( 198) = (   0.0000000   0.3750000   0.5000000  )
       199           C   tau( 199) = (   0.0000000   0.3750000   0.7500000  )
       200           C   tau( 200) = (   0.0000000   0.6250000   0.0000000  )
       201           C   tau( 201) = (   0.0000000   0.6250000   0.2500000  )
       202           C   tau( 202) = (   0.0000000   0.6250000   0.5000000  )
       203           C   tau( 203) = (   0.0000000   0.6250000   0.7500000  )
       204           C   tau( 204) = (   0.0000000   0.8750000   0.0000000  )
       205           C   tau( 205) = (   0.0000000   0.8750000   0.2500000  )
       206           C   tau( 206) = (   0.0000000   0.8750000   0.5000000  )
       207           C   tau( 207) = (   0.0000000   0.8750000   0.7500000  )
       208           C   tau( 208) = (   0.2500000   0.1250000   0.0000000  )
       209           C   tau( 209) = (   0.2500000   0.1250000   0.2500000  )
       210           C   tau( 210) = (   0.2500000   0.1250000   0.5000000  )
       211           C   tau( 211) = (   0.2500000   0.1250000   0.7500000  )
       212           C   tau( 212) = (   0.2500000   0.3750000   0.0000000  )
       213           C   tau( 213) = (   0.2500000   0.3750000   0.2500000  )
       214           C   tau( 214) = (   0.2500000   0.3750000   0.5000000  )
       215           C   tau( 215) = (   0.2500000   0.3750000   0.7500000  )
       216           C   tau( 216) = (   0.2500000   0.6250000   0.0000000  )
       217           C   tau( 217) = (   0.2500000   0.6250000   0.2500000  )
       218           C   tau( 218) = (   0.2500000   0.6250000   0.5000000  )
       219           C   tau( 219) = (   0.2500000   0.6250000   0.7500000  )
       220           C   tau( 220) = (   0.2500000   0.8750000   0.0000000  )
       221           C   tau( 221) = (   0.2500000   0.8750000   0.2500000  )
       222           C   tau( 222) = (   0.2500000   0.8750000   0.5000000  )
       223           C   tau( 223) = (   0.2500000   0.8750000   0.7500000  )
       224           C   tau( 224) = (   0.5000000   0.1250000   0.0000000  )
       225           C   tau( 225) = (   0.5000000   0.1250000   0.2500000  )
       226           C   tau( 226) = (   0.5000000   0.1250000   0.5000000  )
       227           C   tau( 227) = (   0.5000000   0.1250000   0.7500000  )
       228           C   tau( 228) = (   0.5000000   0.3750000   0.0000000  )
       229           C   tau( 229) = (   0.5000000   0.3750000   0.2500000  )
       230           C   tau( 230) = (   0.5000000   0.3750000   0.5000000  )
       231           C   tau( 231) = (   0.5000000   0.3750000   0.7500000  )
       232           C   tau( 232) = (   0.5000000   0.6250000   0.0000000  )
       233           C   tau( 233) = (   0.5000000   0.6250000   0.2500000  )
       234           C   tau( 234) = (   0.5000000   0.6250000   0.5000000  )
       235           C   tau( 235) = (   0.5000000   0.6250000   0.7500000  )
       236           C   tau( 236) = (   0.5000000   0.8750000   0.0000000  )
       237           C   tau( 237) = (   0.5000000   0.8750000   0.2500000  )
       238           C   tau( 238) = (   0.5000000   0.8750000   0.5000000  )
       239           C   tau( 239) = (   0.5000000   0.8750000   0.7500000  )
       240           C   tau( 240) = (   0.7500000   0.1250000   0.0000000  )
       241           C   tau( 241) = (   0.7500000   0.1250000   0.2500000  )
       242           C   tau( 242) = (   0.7500000   0.1250000   0.5000000  )
       243           C   tau( 243) = (   0.7500000   0.1250000   0.7500000  )
       244           C   tau( 244) = (   0.7500000   0.3750000   0.0000000  )
       245           C   tau( 245) = (   0.7500000   0.3750000   0.2500000  )
       246           C   tau( 246) = (   0.7500000   0.3750000   0.5000000  )
       247           C   tau( 247) = (   0.7500000   0.3750000   0.7500000  )
       248           C   tau( 248) = (   0.7500000   0.6250000   0.0000000  )
       249           C   tau( 249) = (   0.7500000   0.6250000   0.2500000  )
       250           C   tau( 250) = (   0.7500000   0.6250000   0.5000000  )
       251           C   tau( 251) = (   0.7500000   0.6250000   0.7500000  )
       252           C   tau( 252) = (   0.7500000   0.8750000   0.0000000  )
       253           C   tau( 253) = (   0.7500000   0.8750000   0.2500000  )
       254           C   tau( 254) = (   0.7500000   0.8750000   0.5000000  )
       255           C   tau( 255) = (   0.7500000   0.8750000   0.7500000  )
       256           C   tau( 256) = (   0.1874985   0.1874985   0.1874985  )
       257           C   tau( 257) = (   0.1874985   0.1874985   0.4374985  )
       258           C   tau( 258) = (   0.1874985   0.1874985   0.6874985  )
       259           C   tau( 259) = (   0.1874985   0.1874985   0.9374985  )
       260           C   tau( 260) = (   0.1874985   0.4374985   0.1874985  )
       261           C   tau( 261) = (   0.1874985   0.4374985   0.4374985  )
       262           C   tau( 262) = (   0.1874985   0.4374985   0.6874985  )
       263           C   tau( 263) = (   0.1874985   0.4374985   0.9374985  )
       264           C   tau( 264) = (   0.1874985   0.6874985   0.1874985  )
       265           C   tau( 265) = (   0.1874985   0.6874985   0.4374985  )
       266           C   tau( 266) = (   0.1874985   0.6874985   0.6874985  )
       267           C   tau( 267) = (   0.1874985   0.6874985   0.9374985  )
       268           C   tau( 268) = (   0.1874985   0.9374985   0.1874985  )
       269           C   tau( 269) = (   0.1874985   0.9374985   0.4374985  )
       270           C   tau( 270) = (   0.1874985   0.9374985   0.6874985  )
       271           C   tau( 271) = (   0.1874985   0.9374985   0.9374985  )
       272           C   tau( 272) = (   0.4374985   0.1874985   0.1874985  )
       273           C   tau( 273) = (   0.4374985   0.1874985   0.4374985  )
       274           C   tau( 274) = (   0.4374985   0.1874985   0.6874985  )
       275           C   tau( 275) = (   0.4374985   0.1874985   0.9374985  )
       276           C   tau( 276) = (   0.4374985   0.4374985   0.1874985  )
       277           C   tau( 277) = (   0.4374985   0.4374985   0.4374985  )
       278           C   tau( 278) = (   0.4374985   0.4374985   0.6874985  )
       279           C   tau( 279) = (   0.4374985   0.4374985   0.9374985  )
       280           C   tau( 280) = (   0.4374985   0.6874985   0.1874985  )
       281           C   tau( 281) = (   0.4374985   0.6874985   0.4374985  )
       282           C   tau( 282) = (   0.4374985   0.6874985   0.6874985  )
       283           C   tau( 283) = (   0.4374985   0.6874985   0.9374985  )
       284           C   tau( 284) = (   0.4374985   0.9374985   0.1874985  )
       285           C   tau( 285) = (   0.4374985   0.9374985   0.4374985  )
       286           C   tau( 286) = (   0.4374985   0.9374985   0.6874985  )
       287           C   tau( 287) = (   0.4374985   0.9374985   0.9374985  )
       288           C   tau( 288) = (   0.6874985   0.1874985   0.1874985  )
       289           C   tau( 289) = (   0.6874985   0.1874985   0.4374985  )
       290           C   tau( 290) = (   0.6874985   0.1874985   0.6874985  )
       291           C   tau( 291) = (   0.6874985   0.1874985   0.9374985  )
       292           C   tau( 292) = (   0.6874985   0.4374985   0.1874985  )
       293           C   tau( 293) = (   0.6874985   0.4374985   0.4374985  )
       294           C   tau( 294) = (   0.6874985   0.4374985   0.6874985  )
       295           C   tau( 295) = (   0.6874985   0.4374985   0.9374985  )
       296           C   tau( 296) = (   0.6874985   0.6874985   0.1874985  )
       297           C   tau( 297) = (   0.6874985   0.6874985   0.4374985  )
       298           C   tau( 298) = (   0.6874985   0.6874985   0.6874985  )
       299           C   tau( 299) = (   0.6874985   0.6874985   0.9374985  )
       300           C   tau( 300) = (   0.6874985   0.9374985   0.1874985  )
       301           C   tau( 301) = (   0.6874985   0.9374985   0.4374985  )
       302           C   tau( 302) = (   0.6874985   0.9374985   0.6874985  )
       303           C   tau( 303) = (   0.6874985   0.9374985   0.9374985  )
       304           C   tau( 304) = (   0.9374985   0.1874985   0.1874985  )
       305           C   tau( 305) = (   0.9374985   0.1874985   0.4374985  )
       306           C   tau( 306) = (   0.9374985   0.1874985   0.6874985  )
       307           C   tau( 307) = (   0.9374985   0.1874985   0.9374985  )
       308           C   tau( 308) = (   0.9374985   0.4374985   0.1874985  )
       309           C   tau( 309) = (   0.9374985   0.4374985   0.4374985  )
       310           C   tau( 310) = (   0.9374985   0.4374985   0.6874985  )
       311           C   tau( 311) = (   0.9374985   0.4374985   0.9374985  )
       312           C   tau( 312) = (   0.9374985   0.6874985   0.1874985  )
       313           C   tau( 313) = (   0.9374985   0.6874985   0.4374985  )
       314           C   tau( 314) = (   0.9374985   0.6874985   0.6874985  )
       315           C   tau( 315) = (   0.9374985   0.6874985   0.9374985  )
       316           C   tau( 316) = (   0.9374985   0.9374985   0.1874985  )
       317           C   tau( 317) = (   0.9374985   0.9374985   0.4374985  )
       318           C   tau( 318) = (   0.9374985   0.9374985   0.6874985  )
       319           C   tau( 319) = (   0.9374985   0.9374985   0.9374985  )
       320           C   tau( 320) = (   0.1250000   0.0000000   0.0000000  )
       321           C   tau( 321) = (   0.1250000   0.0000000   0.2500000  )
       322           C   tau( 322) = (   0.1250000   0.0000000   0.5000000  )
       323           C   tau( 323) = (   0.1250000   0.0000000   0.7500000  )
       324           C   tau( 324) = (   0.1250000   0.2500000   0.0000000  )
       325           C   tau( 325) = (   0.1250000   0.2500000   0.2500000  )
       326           C   tau( 326) = (   0.1250000   0.2500000   0.5000000  )
       327           C   tau( 327) = (   0.1250000   0.2500000   0.7500000  )
       328           C   tau( 328) = (   0.1250000   0.5000000   0.0000000  )
       329           C   tau( 329) = (   0.1250000   0.5000000   0.2500000  )
       330           C   tau( 330) = (   0.1250000   0.5000000   0.5000000  )
       331           C   tau( 331) = (   0.1250000   0.5000000   0.7500000  )
       332           C   tau( 332) = (   0.1250000   0.7500000   0.0000000  )
       333           C   tau( 333) = (   0.1250000   0.7500000   0.2500000  )
       334           C   tau( 334) = (   0.1250000   0.7500000   0.5000000  )
       335           C   tau( 335) = (   0.1250000   0.7500000   0.7500000  )
       336           C   tau( 336) = (   0.3750000   0.0000000   0.0000000  )
       337           C   tau( 337) = (   0.3750000   0.0000000   0.2500000  )
       338           C   tau( 338) = (   0.3750000   0.0000000   0.5000000  )
       339           C   tau( 339) = (   0.3750000   0.0000000   0.7500000  )
       340           C   tau( 340) = (   0.3750000   0.2500000   0.0000000  )
       341           C   tau( 341) = (   0.3750000   0.2500000   0.2500000  )
       342           C   tau( 342) = (   0.3750000   0.2500000   0.5000000  )
       343           C   tau( 343) = (   0.3750000   0.2500000   0.7500000  )
       344           C   tau( 344) = (   0.3750000   0.5000000   0.0000000  )
       345           C   tau( 345) = (   0.3750000   0.5000000   0.2500000  )
       346           C   tau( 346) = (   0.3750000   0.5000000   0.5000000  )
       347           C   tau( 347) = (   0.3750000   0.5000000   0.7500000  )
       348           C   tau( 348) = (   0.3750000   0.7500000   0.0000000  )
       349           C   tau( 349) = (   0.3750000   0.7500000   0.2500000  )
       350           C   tau( 350) = (   0.3750000   0.7500000   0.5000000  )
       351           C   tau( 351) = (   0.3750000   0.7500000   0.7500000  )
       352           C   tau( 352) = (   0.6250000   0.0000000   0.0000000  )
       353           C   tau( 353) = (   0.6250000   0.0000000   0.2500000  )
       354           C   tau( 354) = (   0.6250000   0.0000000   0.5000000  )
       355           C   tau( 355) = (   0.6250000   0.0000000   0.7500000  )
       356           C   tau( 356) = (   0.6250000   0.2500000   0.0000000  )
       357           C   tau( 357) = (   0.6250000   0.2500000   0.2500000  )
       358           C   tau( 358) = (   0.6250000   0.2500000   0.5000000  )
       359           C   tau( 359) = (   0.6250000   0.2500000   0.7500000  )
       360           C   tau( 360) = (   0.6250000   0.5000000   0.0000000  )
       361           C   tau( 361) = (   0.6250000   0.5000000   0.2500000  )
       362           C   tau( 362) = (   0.6250000   0.5000000   0.5000000  )
       363           C   tau( 363) = (   0.6250000   0.5000000   0.7500000  )
       364           C   tau( 364) = (   0.6250000   0.7500000   0.0000000  )
       365           C   tau( 365) = (   0.6250000   0.7500000   0.2500000  )
       366           C   tau( 366) = (   0.6250000   0.7500000   0.5000000  )
       367           C   tau( 367) = (   0.6250000   0.7500000   0.7500000  )
       368           C   tau( 368) = (   0.8750000   0.0000000   0.0000000  )
       369           C   tau( 369) = (   0.8750000   0.0000000   0.2500000  )
       370           C   tau( 370) = (   0.8750000   0.0000000   0.5000000  )
       371           C   tau( 371) = (   0.8750000   0.0000000   0.7500000  )
       372           C   tau( 372) = (   0.8750000   0.2500000   0.0000000  )
       373           C   tau( 373) = (   0.8750000   0.2500000   0.2500000  )
       374           C   tau( 374) = (   0.8750000   0.2500000   0.5000000  )
       375           C   tau( 375) = (   0.8750000   0.2500000   0.7500000  )
       376           C   tau( 376) = (   0.8750000   0.5000000   0.0000000  )
       377           C   tau( 377) = (   0.8750000   0.5000000   0.2500000  )
       378           C   tau( 378) = (   0.8750000   0.5000000   0.5000000  )
       379           C   tau( 379) = (   0.8750000   0.5000000   0.7500000  )
       380           C   tau( 380) = (   0.8750000   0.7500000   0.0000000  )
       381           C   tau( 381) = (   0.8750000   0.7500000   0.2500000  )
       382           C   tau( 382) = (   0.8750000   0.7500000   0.5000000  )
       383           C   tau( 383) = (   0.8750000   0.7500000   0.7500000  )
       384           C   tau( 384) = (   0.1874985   0.0625015   0.0625015  )
       385           C   tau( 385) = (   0.1874985   0.0625015   0.3125015  )
       386           C   tau( 386) = (   0.1874985   0.0625015   0.5625015  )
       387           C   tau( 387) = (   0.1874985   0.0625015   0.8125015  )
       388           C   tau( 388) = (   0.1874985   0.3125015   0.0625015  )
       389           C   tau( 389) = (   0.1874985   0.3125015   0.3125015  )
       390           C   tau( 390) = (   0.1874985   0.3125015   0.5625015  )
       391           C   tau( 391) = (   0.1874985   0.3125015   0.8125015  )
       392           C   tau( 392) = (   0.1874985   0.5625015   0.0625015  )
       393           C   tau( 393) = (   0.1874985   0.5625015   0.3125015  )
       394           C   tau( 394) = (   0.1874985   0.5625015   0.5625015  )
       395           C   tau( 395) = (   0.1874985   0.5625015   0.8125015  )
       396           C   tau( 396) = (   0.1874985   0.8125015   0.0625015  )
       397           C   tau( 397) = (   0.1874985   0.8125015   0.3125015  )
       398           C   tau( 398) = (   0.1874985   0.8125015   0.5625015  )
       399           C   tau( 399) = (   0.1874985   0.8125015   0.8125015  )
       400           C   tau( 400) = (   0.4374985   0.0625015   0.0625015  )
       401           C   tau( 401) = (   0.4374985   0.0625015   0.3125015  )
       402           C   tau( 402) = (   0.4374985   0.0625015   0.5625015  )
       403           C   tau( 403) = (   0.4374985   0.0625015   0.8125015  )
       404           C   tau( 404) = (   0.4374985   0.3125015   0.0625015  )
       405           C   tau( 405) = (   0.4374985   0.3125015   0.3125015  )
       406           C   tau( 406) = (   0.4374985   0.3125015   0.5625015  )
       407           C   tau( 407) = (   0.4374985   0.3125015   0.8125015  )
       408           C   tau( 408) = (   0.4374985   0.5625015   0.0625015  )
       409           C   tau( 409) = (   0.4374985   0.5625015   0.3125015  )
       410           C   tau( 410) = (   0.4374985   0.5625015   0.5625015  )
       411           C   tau( 411) = (   0.4374985   0.5625015   0.8125015  )
       412           C   tau( 412) = (   0.4374985   0.8125015   0.0625015  )
       413           C   tau( 413) = (   0.4374985   0.8125015   0.3125015  )
       414           C   tau( 414) = (   0.4374985   0.8125015   0.5625015  )
       415           C   tau( 415) = (   0.4374985   0.8125015   0.8125015  )
       416           C   tau( 416) = (   0.6874985   0.0625015   0.0625015  )
       417           C   tau( 417) = (   0.6874985   0.0625015   0.3125015  )
       418           C   tau( 418) = (   0.6874985   0.0625015   0.5625015  )
       419           C   tau( 419) = (   0.6874985   0.0625015   0.8125015  )
       420           C   tau( 420) = (   0.6874985   0.3125015   0.0625015  )
       421           C   tau( 421) = (   0.6874985   0.3125015   0.3125015  )
       422           C   tau( 422) = (   0.6874985   0.3125015   0.5625015  )
       423           C   tau( 423) = (   0.6874985   0.3125015   0.8125015  )
       424           C   tau( 424) = (   0.6874985   0.5625015   0.0625015  )
       425           C   tau( 425) = (   0.6874985   0.5625015   0.3125015  )
       426           C   tau( 426) = (   0.6874985   0.5625015   0.5625015  )
       427           C   tau( 427) = (   0.6874985   0.5625015   0.8125015  )
       428           C   tau( 428) = (   0.6874985   0.8125015   0.0625015  )
       429           C   tau( 429) = (   0.6874985   0.8125015   0.3125015  )
       430           C   tau( 430) = (   0.6874985   0.8125015   0.5625015  )
       431           C   tau( 431) = (   0.6874985   0.8125015   0.8125015  )
       432           C   tau( 432) = (   0.9374985   0.0625015   0.0625015  )
       433           C   tau( 433) = (   0.9374985   0.0625015   0.3125015  )
       434           C   tau( 434) = (   0.9374985   0.0625015   0.5625015  )
       435           C   tau( 435) = (   0.9374985   0.0625015   0.8125015  )
       436           C   tau( 436) = (   0.9374985   0.3125015   0.0625015  )
       437           C   tau( 437) = (   0.9374985   0.3125015   0.3125015  )
       438           C   tau( 438) = (   0.9374985   0.3125015   0.5625015  )
       439           C   tau( 439) = (   0.9374985   0.3125015   0.8125015  )
       440           C   tau( 440) = (   0.9374985   0.5625015   0.0625015  )
       441           C   tau( 441) = (   0.9374985   0.5625015   0.3125015  )
       442           C   tau( 442) = (   0.9374985   0.5625015   0.5625015  )
       443           C   tau( 443) = (   0.9374985   0.5625015   0.8125015  )
       444           C   tau( 444) = (   0.9374985   0.8125015   0.0625015  )
       445           C   tau( 445) = (   0.9374985   0.8125015   0.3125015  )
       446           C   tau( 446) = (   0.9374985   0.8125015   0.5625015  )
       447           C   tau( 447) = (   0.9374985   0.8125015   0.8125015  )
       448           C   tau( 448) = (   0.1250000   0.1250000   0.1250000  )
       449           C   tau( 449) = (   0.1250000   0.1250000   0.3750000  )
       450           C   tau( 450) = (   0.1250000   0.1250000   0.6250000  )
       451           C   tau( 451) = (   0.1250000   0.1250000   0.8750000  )
       452           C   tau( 452) = (   0.1250000   0.3750000   0.1250000  )
       453           C   tau( 453) = (   0.1250000   0.3750000   0.3750000  )
       454           C   tau( 454) = (   0.1250000   0.3750000   0.6250000  )
       455           C   tau( 455) = (   0.1250000   0.3750000   0.8750000  )
       456           C   tau( 456) = (   0.1250000   0.6250000   0.1250000  )
       457           C   tau( 457) = (   0.1250000   0.6250000   0.3750000  )
       458           C   tau( 458) = (   0.1250000   0.6250000   0.6250000  )
       459           C   tau( 459) = (   0.1250000   0.6250000   0.8750000  )
       460           C   tau( 460) = (   0.1250000   0.8750000   0.1250000  )
       461           C   tau( 461) = (   0.1250000   0.8750000   0.3750000  )
       462           C   tau( 462) = (   0.1250000   0.8750000   0.6250000  )
       463           C   tau( 463) = (   0.1250000   0.8750000   0.8750000  )
       464           C   tau( 464) = (   0.3750000   0.1250000   0.1250000  )
       465           C   tau( 465) = (   0.3750000   0.1250000   0.3750000  )
       466           C   tau( 466) = (   0.3750000   0.1250000   0.6250000  )
       467           C   tau( 467) = (   0.3750000   0.1250000   0.8750000  )
       468           C   tau( 468) = (   0.3750000   0.3750000   0.1250000  )
       469           C   tau( 469) = (   0.3750000   0.3750000   0.3750000  )
       470           C   tau( 470) = (   0.3750000   0.3750000   0.6250000  )
       471           C   tau( 471) = (   0.3750000   0.3750000   0.8750000  )
       472           C   tau( 472) = (   0.3750000   0.6250000   0.1250000  )
       473           C   tau( 473) = (   0.3750000   0.6250000   0.3750000  )
       474           C   tau( 474) = (   0.3750000   0.6250000   0.6250000  )
       475           C   tau( 475) = (   0.3750000   0.6250000   0.8750000  )
       476           C   tau( 476) = (   0.3750000   0.8750000   0.1250000  )
       477           C   tau( 477) = (   0.3750000   0.8750000   0.3750000  )
       478           C   tau( 478) = (   0.3750000   0.8750000   0.6250000  )
       479           C   tau( 479) = (   0.3750000   0.8750000   0.8750000  )
       480           C   tau( 480) = (   0.6250000   0.1250000   0.1250000  )
       481           C   tau( 481) = (   0.6250000   0.1250000   0.3750000  )
       482           C   tau( 482) = (   0.6250000   0.1250000   0.6250000  )
       483           C   tau( 483) = (   0.6250000   0.1250000   0.8750000  )
       484           C   tau( 484) = (   0.6250000   0.3750000   0.1250000  )
       485           C   tau( 485) = (   0.6250000   0.3750000   0.3750000  )
       486           C   tau( 486) = (   0.6250000   0.3750000   0.6250000  )
       487           C   tau( 487) = (   0.6250000   0.3750000   0.8750000  )
       488           C   tau( 488) = (   0.6250000   0.6250000   0.1250000  )
       489           C   tau( 489) = (   0.6250000   0.6250000   0.3750000  )
       490           C   tau( 490) = (   0.6250000   0.6250000   0.6250000  )
       491           C   tau( 491) = (   0.6250000   0.6250000   0.8750000  )
       492           C   tau( 492) = (   0.6250000   0.8750000   0.1250000  )
       493           C   tau( 493) = (   0.6250000   0.8750000   0.3750000  )
       494           C   tau( 494) = (   0.6250000   0.8750000   0.6250000  )
       495           C   tau( 495) = (   0.6250000   0.8750000   0.8750000  )
       496           C   tau( 496) = (   0.8750000   0.1250000   0.1250000  )
       497           C   tau( 497) = (   0.8750000   0.1250000   0.3750000  )
       498           C   tau( 498) = (   0.8750000   0.1250000   0.6250000  )
       499           C   tau( 499) = (   0.8750000   0.1250000   0.8750000  )
       500           C   tau( 500) = (   0.8750000   0.3750000   0.1250000  )
       501           C   tau( 501) = (   0.8750000   0.3750000   0.3750000  )
       502           C   tau( 502) = (   0.8750000   0.3750000   0.6250000  )
       503           C   tau( 503) = (   0.8750000   0.3750000   0.8750000  )
       504           C   tau( 504) = (   0.8750000   0.6250000   0.1250000  )
       505           C   tau( 505) = (   0.8750000   0.6250000   0.3750000  )
       506           C   tau( 506) = (   0.8750000   0.6250000   0.6250000  )
       507           C   tau( 507) = (   0.8750000   0.6250000   0.8750000  )
       508           C   tau( 508) = (   0.8750000   0.8750000   0.1250000  )
       509           C   tau( 509) = (   0.8750000   0.8750000   0.3750000  )
       510           C   tau( 510) = (   0.8750000   0.8750000   0.6250000  )
       511           C   tau( 511) = (   0.8750000   0.8750000   0.8750000  )

   Crystallographic axes

     site n.     atom                  positions (cryst. coord.)
         1           C   tau(   1) = (  0.0625015  0.1874985  0.3125015  )
         2           C   tau(   2) = (  0.0625015  0.1874985  0.5625015  )
         3           C   tau(   3) = (  0.0625015  0.1874985  0.8125015  )
         4           C   tau(   4) = (  0.0625015  0.4374985  0.0625015  )
         5           C   tau(   5) = (  0.0625015  0.4374985  0.3125015  )
         6           C   tau(   6) = (  0.0625015  0.4374985  0.5625015  )
         7           C   tau(   7) = (  0.0625015  0.4374985  0.8125015  )
         8           C   tau(   8) = (  0.0625015  0.6874985  0.0625015  )
         9           C   tau(   9) = (  0.0625015  0.6874985  0.3125015  )
        10           C   tau(  10) = (  0.0625015  0.6874985  0.5625015  )
        11           C   tau(  11) = (  0.0625015  0.6874985  0.8125015  )
        12           C   tau(  12) = (  0.0625015  0.9374985  0.0625015  )
        13           C   tau(  13) = (  0.0625015  0.9374985  0.3125015  )
        14           C   tau(  14) = (  0.0625015  0.9374985  0.5625015  )
        15           C   tau(  15) = (  0.0625015  0.9374985  0.8125015  )
        16           C   tau(  16) = (  0.3125015  0.1874985  0.0625015  )
        17           C   tau(  17) = (  0.3125015  0.1874985  0.3125015  )
        18           C   tau(  18) = (  0.3125015  0.1874985  0.5625015  )
        19           C   tau(  19) = (  0.3125015  0.1874985  0.8125015  )
        20           C   tau(  20) = (  0.3125015  0.4374985  0.0625015  )
        21           C   tau(  21) = (  0.3125015  0.4374985  0.3125015  )
        22           C   tau(  22) = (  0.3125015  0.4374985  0.5625015  )
        23           C   tau(  23) = (  0.3125015  0.4374985  0.8125015  )
        24           C   tau(  24) = (  0.3125015  0.6874985  0.0625015  )
        25           C   tau(  25) = (  0.3125015  0.6874985  0.3125015  )
        26           C   tau(  26) = (  0.3125015  0.6874985  0.5625015  )
        27           C   tau(  27) = (  0.3125015  0.6874985  0.8125015  )
        28           C   tau(  28) = (  0.3125015  0.9374985  0.0625015  )
        29           C   tau(  29) = (  0.3125015  0.9374985  0.3125015  )
        30           C   tau(  30) = (  0.3125015  0.9374985  0.5625015  )
        31           C   tau(  31) = (  0.3125015  0.9374985  0.8125015  )
        32           C   tau(  32) = (  0.5625015  0.1874985  0.0625015  )
        33           C   tau(  33) = (  0.5625015  0.1874985  0.3125015  )
        34           C   tau(  34) = (  0.5625015  0.1874985  0.5625015  )
        35           C   tau(  35) = (  0.5625015  0.1874985  0.8125015  )
        36           C   tau(  36) = (  0.5625015  0.4374985  0.0625015  )
        37           C   tau(  37) = (  0.5625015  0.4374985  0.3125015  )
        38           C   tau(  38) = (  0.5625015  0.4374985  0.5625015  )
        39           C   tau(  39) = (  0.5625015  0.4374985  0.8125015  )
        40           C   tau(  40) = (  0.5625015  0.6874985  0.0625015  )
        41           C   tau(  41) = (  0.5625015  0.6874985  0.3125015  )
        42           C   tau(  42) = (  0.5625015  0.6874985  0.5625015  )
        43           C   tau(  43) = (  0.5625015  0.6874985  0.8125015  )
        44           C   tau(  44) = (  0.5625015  0.9374985  0.0625015  )
        45           C   tau(  45) = (  0.5625015  0.9374985  0.3125015  )
        46           C   tau(  46) = (  0.5625015  0.9374985  0.5625015  )
        47           C   tau(  47) = (  0.5625015  0.9374985  0.8125015  )
        48           C   tau(  48) = (  0.8125015  0.1874985  0.0625015  )
        49           C   tau(  49) = (  0.8125015  0.1874985  0.3125015  )
        50           C   tau(  50) = (  0.8125015  0.1874985  0.5625015  )
        51           C   tau(  51) = (  0.8125015  0.1874985  0.8125015  )
        52           C   tau(  52) = (  0.8125015  0.4374985  0.0625015  )
        53           C   tau(  53) = (  0.8125015  0.4374985  0.3125015  )
        54           C   tau(  54) = (  0.8125015  0.4374985  0.5625015  )
        55           C   tau(  55) = (  0.8125015  0.4374985  0.8125015  )
        56           C   tau(  56) = (  0.8125015  0.6874985  0.0625015  )
        57           C   tau(  57) = (  0.8125015  0.6874985  0.3125015  )
        58           C   tau(  58) = (  0.8125015  0.6874985  0.5625015  )
        59           C   tau(  59) = (  0.8125015  0.6874985  0.8125015  )
        60           C   tau(  60) = (  0.8125015  0.9374985  0.0625015  )
        61           C   tau(  61) = (  0.8125015  0.9374985  0.3125015  )
        62           C   tau(  62) = (  0.8125015  0.9374985  0.5625015  )
        63           C   tau(  63) = (  0.8125015  0.9374985  0.8125015  )
        64           C   tau(  64) = (  0.0000000  0.0000000  0.1250000  )
        65           C   tau(  65) = (  0.0000000  0.0000000  0.3750000  )
        66           C   tau(  66) = (  0.0000000  0.0000000  0.6250000  )
        67           C   tau(  67) = (  0.0000000  0.0000000  0.8750000  )
        68           C   tau(  68) = (  0.0000000  0.2500000  0.1250000  )
        69           C   tau(  69) = (  0.0000000  0.2500000  0.3750000  )
        70           C   tau(  70) = (  0.0000000  0.2500000  0.6250000  )
        71           C   tau(  71) = (  0.0000000  0.2500000  0.8750000  )
        72           C   tau(  72) = (  0.0000000  0.5000000  0.1250000  )
        73           C   tau(  73) = (  0.0000000  0.5000000  0.3750000  )
        74           C   tau(  74) = (  0.0000000  0.5000000  0.6250000  )
        75           C   tau(  75) = (  0.0000000  0.5000000  0.8750000  )
        76           C   tau(  76) = (  0.0000000  0.7500000  0.1250000  )
        77           C   tau(  77) = (  0.0000000  0.7500000  0.3750000  )
        78           C   tau(  78) = (  0.0000000  0.7500000  0.6250000  )
        79           C   tau(  79) = (  0.0000000  0.7500000  0.8750000  )
        80           C   tau(  80) = (  0.2500000  0.0000000  0.1250000  )
        81           C   tau(  81) = (  0.2500000  0.0000000  0.3750000  )
        82           C   tau(  82) = (  0.2500000  0.0000000  0.6250000  )
        83           C   tau(  83) = (  0.2500000  0.0000000  0.8750000  )
        84           C   tau(  84) = (  0.2500000  0.2500000  0.1250000  )
        85           C   tau(  85) = (  0.2500000  0.2500000  0.3750000  )
        86           C   tau(  86) = (  0.2500000  0.2500000  0.6250000  )
        87           C   tau(  87) = (  0.2500000  0.2500000  0.8750000  )
        88           C   tau(  88) = (  0.2500000  0.5000000  0.1250000  )
        89           C   tau(  89) = (  0.2500000  0.5000000  0.3750000  )
        90           C   tau(  90) = (  0.2500000  0.5000000  0.6250000  )
        91           C   tau(  91) = (  0.2500000  0.5000000  0.8750000  )
        92           C   tau(  92) = (  0.2500000  0.7500000  0.1250000  )
        93           C   tau(  93) = (  0.2500000  0.7500000  0.3750000  )
        94           C   tau(  94) = (  0.2500000  0.7500000  0.6250000  )
        95           C   tau(  95) = (  0.2500000  0.7500000  0.8750000  )
        96           C   tau(  96) = (  0.5000000  0.0000000  0.1250000  )
        97           C   tau(  97) = (  0.5000000  0.0000000  0.3750000  )
        98           C   tau(  98) = (  0.5000000  0.0000000  0.6250000  )
        99           C   tau(  99) = (  0.5000000  0.0000000  0.8750000  )
       100           C   tau( 100) = (  0.5000000  0.2500000  0.1250000  )
       101           C   tau( 101) = (  0.5000000  0.2500000  0.3750000  )
       102           C   tau( 102) = (  0.5000000  0.2500000  0.6250000  )
       103           C   tau( 103) = (  0.5000000  0.2500000  0.8750000  )
       104           C   tau( 104) = (  0.5000000  0.5000000  0.1250000  )
       105           C   tau( 105) = (  0.5000000  0.5000000  0.3750000  )
       106           C   tau( 106) = (  0.5000000  0.5000000  0.6250000  )
       107           C   tau( 107) = (  0.5000000  0.5000000  0.8750000  )
       108           C   tau( 108) = (  0.5000000  0.7500000  0.1250000  )
       109           C   tau( 109) = (  0.5000000  0.7500000  0.3750000  )
       110           C   tau( 110) = (  0.5000000  0.7500000  0.6250000  )
       111           C   tau( 111) = (  0.5000000  0.7500000  0.8750000  )
       112           C   tau( 112) = (  0.7500000  0.0000000  0.1250000  )
       113           C   tau( 113) = (  0.7500000  0.0000000  0.3750000  )
       114           C   tau( 114) = (  0.7500000  0.0000000  0.6250000  )
       115           C   tau( 115) = (  0.7500000  0.0000000  0.8750000  )
       116           C   tau( 116) = (  0.7500000  0.2500000  0.1250000  )
       117           C   tau( 117) = (  0.7500000  0.2500000  0.3750000  )
       118           C   tau( 118) = (  0.7500000  0.2500000  0.6250000  )
       119           C   tau( 119) = (  0.7500000  0.2500000  0.8750000  )
       120           C   tau( 120) = (  0.7500000  0.5000000  0.1250000  )
       121           C   tau( 121) = (  0.7500000  0.5000000  0.3750000  )
       122           C   tau( 122) = (  0.7500000  0.5000000  0.6250000  )
       123           C   tau( 123) = (  0.7500000  0.5000000  0.8750000  )
       124           C   tau( 124) = (  0.7500000  0.7500000  0.1250000  )
       125           C   tau( 125) = (  0.7500000  0.7500000  0.3750000  )
       126           C   tau( 126) = (  0.7500000  0.7500000  0.6250000  )
       127           C   tau( 127) = (  0.7500000  0.7500000  0.8750000  )
       128           C   tau( 128) = (  0.0625015  0.0625015  0.1874985  )
       129           C   tau( 129) = (  0.0625015  0.0625015  0.4374985  )
       130           C   tau( 130) = (  0.0625015  0.0625015  0.6874985  )
       131           C   tau( 131) = (  0.0625015  0.0625015  0.9374985  )
       132           C   tau( 132) = (  0.0625015  0.3125015  0.1874985  )
       133           C   tau( 133) = (  0.0625015  0.3125015  0.4374985  )
       134           C   tau( 134) = (  0.0625015  0.3125015  0.6874985  )
       135           C   tau( 135) = (  0.0625015  0.3125015  0.9374985  )
       136           C   tau( 136) = (  0.0625015  0.5625015  0.1874985  )
       137           C   tau( 137) = (  0.0625015  0.5625015  0.4374985  )
       138           C   tau( 138) = (  0.0625015  0.5625015  0.6874985  )
       139           C   tau( 139) = (  0.0625015  0.5625015  0.9374985  )
       140           C   tau( 140) = (  0.0625015  0.8125015  0.1874985  )
       141           C   tau( 141) = (  0.0625015  0.8125015  0.4374985  )
       142           C   tau( 142) = (  0.0625015  0.8125015  0.6874985  )
       143           C   tau( 143) = (  0.0625015  0.8125015  0.9374985  )
       144           C   tau( 144) = (  0.3125015  0.0625015  0.1874985  )
       145           C   tau( 145) = (  0.3125015  0.0625015  0.4374985  )
       146           C   tau( 146) = (  0.3125015  0.0625015  0.6874985  )
       147           C   tau( 147) = (  0.3125015  0.0625015  0.9374985  )
       148           C   tau( 148) = (  0.3125015  0.3125015  0.1874985  )
       149           C   tau( 149) = (  0.3125015  0.3125015  0.4374985  )
       150           C   tau( 150) = (  0.3125015  0.3125015  0.6874985  )
       151           C   tau( 151) = (  0.3125015  0.3125015  0.9374985  )
       152           C   tau( 152) = (  0.3125015  0.5625015  0.1874985  )
       153           C   tau( 153) = (  0.3125015  0.5625015  0.4374985  )
       154           C   tau( 154) = (  0.3125015  0.5625015  0.6874985  )
       155           C   tau( 155) = (  0.3125015  0.5625015  0.9374985  )
       156           C   tau( 156) = (  0.3125015  0.8125015  0.1874985  )
       157           C   tau( 157) = (  0.3125015  0.8125015  0.4374985  )
       158           C   tau( 158) = (  0.3125015  0.8125015  0.6874985  )
       159           C   tau( 159) = (  0.3125015  0.8125015  0.9374985  )
       160           C   tau( 160) = (  0.5625015  0.0625015  0.1874985  )
       161           C   tau( 161) = (  0.5625015  0.0625015  0.4374985  )
       162           C   tau( 162) = (  0.5625015  0.0625015  0.6874985  )
       163           C   tau( 163) = (  0.5625015  0.0625015  0.9374985  )
       164           C   tau( 164) = (  0.5625015  0.3125015  0.1874985  )
       165           C   tau( 165) = (  0.5625015  0.3125015  0.4374985  )
       166           C   tau( 166) = (  0.5625015  0.3125015  0.6874985  )
       167           C   tau( 167) = (  0.5625015  0.3125015  0.9374985  )
       168           C   tau( 168) = (  0.5625015  0.5625015  0.1874985  )
       169           C   tau( 169) = (  0.5625015  0.5625015  0.4374985  )
       170           C   tau( 170) = (  0.5625015  0.5625015  0.6874985  )
       171           C   tau( 171) = (  0.5625015  0.5625015  0.9374985  )
       172           C   tau( 172) = (  0.5625015  0.8125015  0.1874985  )
       173           C   tau( 173) = (  0.5625015  0.8125015  0.4374985  )
       174           C   tau( 174) = (  0.5625015  0.8125015  0.6874985  )
       175           C   tau( 175) = (  0.5625015  0.8125015  0.9374985  )
       176           C   tau( 176) = (  0.8125015  0.0625015  0.1874985  )
       177           C   tau( 177) = (  0.8125015  0.0625015  0.4374985  )
       178           C   tau( 178) = (  0.8125015  0.0625015  0.6874985  )
       179           C   tau( 179) = (  0.8125015  0.0625015  0.9374985  )
       180           C   tau( 180) = (  0.8125015  0.3125015  0.1874985  )
       181           C   tau( 181) = (  0.8125015  0.3125015  0.4374985  )
       182           C   tau( 182) = (  0.8125015  0.3125015  0.6874985  )
       183           C   tau( 183) = (  0.8125015  0.3125015  0.9374985  )
       184           C   tau( 184) = (  0.8125015  0.5625015  0.1874985  )
       185           C   tau( 185) = (  0.8125015  0.5625015  0.4374985  )
       186           C   tau( 186) = (  0.8125015  0.5625015  0.6874985  )
       187           C   tau( 187) = (  0.8125015  0.5625015  0.9374985  )
       188           C   tau( 188) = (  0.8125015  0.8125015  0.1874985  )
       189           C   tau( 189) = (  0.8125015  0.8125015  0.4374985  )
       190           C   tau( 190) = (  0.8125015  0.8125015  0.6874985  )
       191           C   tau( 191) = (  0.8125015  0.8125015  0.9374985  )
       192           C   tau( 192) = (  0.0000000  0.1250000  0.0000000  )
       193           C   tau( 193) = (  0.0000000  0.1250000  0.2500000  )
       194           C   tau( 194) = (  0.0000000  0.1250000  0.5000000  )
       195           C   tau( 195) = (  0.0000000  0.1250000  0.7500000  )
       196           C   tau( 196) = (  0.0000000  0.3750000  0.0000000  )
       197           C   tau( 197) = (  0.0000000  0.3750000  0.2500000  )
       198           C   tau( 198) = (  0.0000000  0.3750000  0.5000000  )
       199           C   tau( 199) = (  0.0000000  0.3750000  0.7500000  )
       200           C   tau( 200) = (  0.0000000  0.6250000  0.0000000  )
       201           C   tau( 201) = (  0.0000000  0.6250000  0.2500000  )
       202           C   tau( 202) = (  0.0000000  0.6250000  0.5000000  )
       203           C   tau( 203) = (  0.0000000  0.6250000  0.7500000  )
       204           C   tau( 204) = (  0.0000000  0.8750000  0.0000000  )
       205           C   tau( 205) = (  0.0000000  0.8750000  0.2500000  )
       206           C   tau( 206) = (  0.0000000  0.8750000  0.5000000  )
       207           C   tau( 207) = (  0.0000000  0.8750000  0.7500000  )
       208           C   tau( 208) = (  0.2500000  0.1250000  0.0000000  )
       209           C   tau( 209) = (  0.2500000  0.1250000  0.2500000  )
       210           C   tau( 210) = (  0.2500000  0.1250000  0.5000000  )
       211           C   tau( 211) = (  0.2500000  0.1250000  0.7500000  )
       212           C   tau( 212) = (  0.2500000  0.3750000  0.0000000  )
       213           C   tau( 213) = (  0.2500000  0.3750000  0.2500000  )
       214           C   tau( 214) = (  0.2500000  0.3750000  0.5000000  )
       215           C   tau( 215) = (  0.2500000  0.3750000  0.7500000  )
       216           C   tau( 216) = (  0.2500000  0.6250000  0.0000000  )
       217           C   tau( 217) = (  0.2500000  0.6250000  0.2500000  )
       218           C   tau( 218) = (  0.2500000  0.6250000  0.5000000  )
       219           C   tau( 219) = (  0.2500000  0.6250000  0.7500000  )
       220           C   tau( 220) = (  0.2500000  0.8750000  0.0000000  )
       221           C   tau( 221) = (  0.2500000  0.8750000  0.2500000  )
       222           C   tau( 222) = (  0.2500000  0.8750000  0.5000000  )
       223           C   tau( 223) = (  0.2500000  0.8750000  0.7500000  )
       224           C   tau( 224) = (  0.5000000  0.1250000  0.0000000  )
       225           C   tau( 225) = (  0.5000000  0.1250000  0.2500000  )
       226           C   tau( 226) = (  0.5000000  0.1250000  0.5000000  )
       227           C   tau( 227) = (  0.5000000  0.1250000  0.7500000  )
       228           C   tau( 228) = (  0.5000000  0.3750000  0.0000000  )
       229           C   tau( 229) = (  0.5000000  0.3750000  0.2500000  )
       230           C   tau( 230) = (  0.5000000  0.3750000  0.5000000  )
       231           C   tau( 231) = (  0.5000000  0.3750000  0.7500000  )
       232           C   tau( 232) = (  0.5000000  0.6250000  0.0000000  )
       233           C   tau( 233) = (  0.5000000  0.6250000  0.2500000  )
       234           C   tau( 234) = (  0.5000000  0.6250000  0.5000000  )
       235           C   tau( 235) = (  0.5000000  0.6250000  0.7500000  )
       236           C   tau( 236) = (  0.5000000  0.8750000  0.0000000  )
       237           C   tau( 237) = (  0.5000000  0.8750000  0.2500000  )
       238           C   tau( 238) = (  0.5000000  0.8750000  0.5000000  )
       239           C   tau( 239) = (  0.5000000  0.8750000  0.7500000  )
       240           C   tau( 240) = (  0.7500000  0.1250000  0.0000000  )
       241           C   tau( 241) = (  0.7500000  0.1250000  0.2500000  )
       242           C   tau( 242) = (  0.7500000  0.1250000  0.5000000  )
       243           C   tau( 243) = (  0.7500000  0.1250000  0.7500000  )
       244           C   tau( 244) = (  0.7500000  0.3750000  0.0000000  )
       245           C   tau( 245) = (  0.7500000  0.3750000  0.2500000  )
       246           C   tau( 246) = (  0.7500000  0.3750000  0.5000000  )
       247           C   tau( 247) = (  0.7500000  0.3750000  0.7500000  )
       248           C   tau( 248) = (  0.7500000  0.6250000  0.0000000  )
       249           C   tau( 249) = (  0.7500000  0.6250000  0.2500000  )
       250           C   tau( 250) = (  0.7500000  0.6250000  0.5000000  )
       251           C   tau( 251) = (  0.7500000  0.6250000  0.7500000  )
       252           C   tau( 252) = (  0.7500000  0.8750000  0.0000000  )
       253           C   tau( 253) = (  0.7500000  0.8750000  0.2500000  )
       254           C   tau( 254) = (  0.7500000  0.8750000  0.5000000  )
       255           C   tau( 255) = (  0.7500000  0.8750000  0.7500000  )
       256           C   tau( 256) = (  0.1874985  0.1874985  0.1874985  )
       257           C   tau( 257) = (  0.1874985  0.1874985  0.4374985  )
       258           C   tau( 258) = (  0.1874985  0.1874985  0.6874985  )
       259           C   tau( 259) = (  0.1874985  0.1874985  0.9374985  )
       260           C   tau( 260) = (  0.1874985  0.4374985  0.1874985  )
       261           C   tau( 261) = (  0.1874985  0.4374985  0.4374985  )
       262           C   tau( 262) = (  0.1874985  0.4374985  0.6874985  )
       263           C   tau( 263) = (  0.1874985  0.4374985  0.9374985  )
       264           C   tau( 264) = (  0.1874985  0.6874985  0.1874985  )
       265           C   tau( 265) = (  0.1874985  0.6874985  0.4374985  )
       266           C   tau( 266) = (  0.1874985  0.6874985  0.6874985  )
       267           C   tau( 267) = (  0.1874985  0.6874985  0.9374985  )
       268           C   tau( 268) = (  0.1874985  0.9374985  0.1874985  )
       269           C   tau( 269) = (  0.1874985  0.9374985  0.4374985  )
       270           C   tau( 270) = (  0.1874985  0.9374985  0.6874985  )
       271           C   tau( 271) = (  0.1874985  0.9374985  0.9374985  )
       272           C   tau( 272) = (  0.4374985  0.1874985  0.1874985  )
       273           C   tau( 273) = (  0.4374985  0.1874985  0.4374985  )
       274           C   tau( 274) = (  0.4374985  0.1874985  0.6874985  )
       275           C   tau( 275) = (  0.4374985  0.1874985  0.9374985  )
       276           C   tau( 276) = (  0.4374985  0.4374985  0.1874985  )
       277           C   tau( 277) = (  0.4374985  0.4374985  0.4374985  )
       278           C   tau( 278) = (  0.4374985  0.4374985  0.6874985  )
       279           C   tau( 279) = (  0.4374985  0.4374985  0.9374985  )
       280           C   tau( 280) = (  0.4374985  0.6874985  0.1874985  )
       281           C   tau( 281) = (  0.4374985  0.6874985  0.4374985  )
       282           C   tau( 282) = (  0.4374985  0.6874985  0.6874985  )
       283           C   tau( 283) = (  0.4374985  0.6874985  0.9374985  )
       284           C   tau( 284) = (  0.4374985  0.9374985  0.1874985  )
       285           C   tau( 285) = (  0.4374985  0.9374985  0.4374985  )
       286           C   tau( 286) = (  0.4374985  0.9374985  0.6874985  )
       287           C   tau( 287) = (  0.4374985  0.9374985  0.9374985  )
       288           C   tau( 288) = (  0.6874985  0.1874985  0.1874985  )
       289           C   tau( 289) = (  0.6874985  0.1874985  0.4374985  )
       290           C   tau( 290) = (  0.6874985  0.1874985  0.6874985  )
       291           C   tau( 291) = (  0.6874985  0.1874985  0.9374985  )
       292           C   tau( 292) = (  0.6874985  0.4374985  0.1874985  )
       293           C   tau( 293) = (  0.6874985  0.4374985  0.4374985  )
       294           C   tau( 294) = (  0.6874985  0.4374985  0.6874985  )
       295           C   tau( 295) = (  0.6874985  0.4374985  0.9374985  )
       296           C   tau( 296) = (  0.6874985  0.6874985  0.1874985  )
       297           C   tau( 297) = (  0.6874985  0.6874985  0.4374985  )
       298           C   tau( 298) = (  0.6874985  0.6874985  0.6874985  )
       299           C   tau( 299) = (  0.6874985  0.6874985  0.9374985  )
       300           C   tau( 300) = (  0.6874985  0.9374985  0.1874985  )
       301           C   tau( 301) = (  0.6874985  0.9374985  0.4374985  )
       302           C   tau( 302) = (  0.6874985  0.9374985  0.6874985  )
       303           C   tau( 303) = (  0.6874985  0.9374985  0.9374985  )
       304           C   tau( 304) = (  0.9374985  0.1874985  0.1874985  )
       305           C   tau( 305) = (  0.9374985  0.1874985  0.4374985  )
       306           C   tau( 306) = (  0.9374985  0.1874985  0.6874985  )
       307           C   tau( 307) = (  0.9374985  0.1874985  0.9374985  )
       308           C   tau( 308) = (  0.9374985  0.4374985  0.1874985  )
       309           C   tau( 309) = (  0.9374985  0.4374985  0.4374985  )
       310           C   tau( 310) = (  0.9374985  0.4374985  0.6874985  )
       311           C   tau( 311) = (  0.9374985  0.4374985  0.9374985  )
       312           C   tau( 312) = (  0.9374985  0.6874985  0.1874985  )
       313           C   tau( 313) = (  0.9374985  0.6874985  0.4374985  )
       314           C   tau( 314) = (  0.9374985  0.6874985  0.6874985  )
       315           C   tau( 315) = (  0.9374985  0.6874985  0.9374985  )
       316           C   tau( 316) = (  0.9374985  0.9374985  0.1874985  )
       317           C   tau( 317) = (  0.9374985  0.9374985  0.4374985  )
       318           C   tau( 318) = (  0.9374985  0.9374985  0.6874985  )
       319           C   tau( 319) = (  0.9374985  0.9374985  0.9374985  )
       320           C   tau( 320) = (  0.1250000  0.0000000  0.0000000  )
       321           C   tau( 321) = (  0.1250000  0.0000000  0.2500000  )
       322           C   tau( 322) = (  0.1250000  0.0000000  0.5000000  )
       323           C   tau( 323) = (  0.1250000  0.0000000  0.7500000  )
       324           C   tau( 324) = (  0.1250000  0.2500000  0.0000000  )
       325           C   tau( 325) = (  0.1250000  0.2500000  0.2500000  )
       326           C   tau( 326) = (  0.1250000  0.2500000  0.5000000  )
       327           C   tau( 327) = (  0.1250000  0.2500000  0.7500000  )
       328           C   tau( 328) = (  0.1250000  0.5000000  0.0000000  )
       329           C   tau( 329) = (  0.1250000  0.5000000  0.2500000  )
       330           C   tau( 330) = (  0.1250000  0.5000000  0.5000000  )
       331           C   tau( 331) = (  0.1250000  0.5000000  0.7500000  )
       332           C   tau( 332) = (  0.1250000  0.7500000  0.0000000  )
       333           C   tau( 333) = (  0.1250000  0.7500000  0.2500000  )
       334           C   tau( 334) = (  0.1250000  0.7500000  0.5000000  )
       335           C   tau( 335) = (  0.1250000  0.7500000  0.7500000  )
       336           C   tau( 336) = (  0.3750000  0.0000000  0.0000000  )
       337           C   tau( 337) = (  0.3750000  0.0000000  0.2500000  )
       338           C   tau( 338) = (  0.3750000  0.0000000  0.5000000  )
       339           C   tau( 339) = (  0.3750000  0.0000000  0.7500000  )
       340           C   tau( 340) = (  0.3750000  0.2500000  0.0000000  )
       341           C   tau( 341) = (  0.3750000  0.2500000  0.2500000  )
       342           C   tau( 342) = (  0.3750000  0.2500000  0.5000000  )
       343           C   tau( 343) = (  0.3750000  0.2500000  0.7500000  )
       344           C   tau( 344) = (  0.3750000  0.5000000  0.0000000  )
       345           C   tau( 345) = (  0.3750000  0.5000000  0.2500000  )
       346           C   tau( 346) = (  0.3750000  0.5000000  0.5000000  )
       347           C   tau( 347) = (  0.3750000  0.5000000  0.7500000  )
       348           C   tau( 348) = (  0.3750000  0.7500000  0.0000000  )
       349           C   tau( 349) = (  0.3750000  0.7500000  0.2500000  )
       350           C   tau( 350) = (  0.3750000  0.7500000  0.5000000  )
       351           C   tau( 351) = (  0.3750000  0.7500000  0.7500000  )
       352           C   tau( 352) = (  0.6250000  0.0000000  0.0000000  )
       353           C   tau( 353) = (  0.6250000  0.0000000  0.2500000  )
       354           C   tau( 354) = (  0.6250000  0.0000000  0.5000000  )
       355           C   tau( 355) = (  0.6250000  0.0000000  0.7500000  )
       356           C   tau( 356) = (  0.6250000  0.2500000  0.0000000  )
       357           C   tau( 357) = (  0.6250000  0.2500000  0.2500000  )
       358           C   tau( 358) = (  0.6250000  0.2500000  0.5000000  )
       359           C   tau( 359) = (  0.6250000  0.2500000  0.7500000  )
       360           C   tau( 360) = (  0.6250000  0.5000000  0.0000000  )
       361           C   tau( 361) = (  0.6250000  0.5000000  0.2500000  )
       362           C   tau( 362) = (  0.6250000  0.5000000  0.5000000  )
       363           C   tau( 363) = (  0.6250000  0.5000000  0.7500000  )
       364           C   tau( 364) = (  0.6250000  0.7500000  0.0000000  )
       365           C   tau( 365) = (  0.6250000  0.7500000  0.2500000  )
       366           C   tau( 366) = (  0.6250000  0.7500000  0.5000000  )
       367           C   tau( 367) = (  0.6250000  0.7500000  0.7500000  )
       368           C   tau( 368) = (  0.8750000  0.0000000  0.0000000  )
       369           C   tau( 369) = (  0.8750000  0.0000000  0.2500000  )
       370           C   tau( 370) = (  0.8750000  0.0000000  0.5000000  )
       371           C   tau( 371) = (  0.8750000  0.0000000  0.7500000  )
       372           C   tau( 372) = (  0.8750000  0.2500000  0.0000000  )
       373           C   tau( 373) = (  0.8750000  0.2500000  0.2500000  )
       374           C   tau( 374) = (  0.8750000  0.2500000  0.5000000  )
       375           C   tau( 375) = (  0.8750000  0.2500000  0.7500000  )
       376           C   tau( 376) = (  0.8750000  0.5000000  0.0000000  )
       377           C   tau( 377) = (  0.8750000  0.5000000  0.2500000  )
       378           C   tau( 378) = (  0.8750000  0.5000000  0.5000000  )
       379           C   tau( 379) = (  0.8750000  0.5000000  0.7500000  )
       380           C   tau( 380) = (  0.8750000  0.7500000  0.0000000  )
       381           C   tau( 381) = (  0.8750000  0.7500000  0.2500000  )
       382           C   tau( 382) = (  0.8750000  0.7500000  0.5000000  )
       383           C   tau( 383) = (  0.8750000  0.7500000  0.7500000  )
       384           C   tau( 384) = (  0.1874985  0.0625015  0.0625015  )
       385           C   tau( 385) = (  0.1874985  0.0625015  0.3125015  )
       386           C   tau( 386) = (  0.1874985  0.0625015  0.5625015  )
       387           C   tau( 387) = (  0.1874985  0.0625015  0.8125015  )
       388           C   tau( 388) = (  0.1874985  0.3125015  0.0625015  )
       389           C   tau( 389) = (  0.1874985  0.3125015  0.3125015  )
       390           C   tau( 390) = (  0.1874985  0.3125015  0.5625015  )
       391           C   tau( 391) = (  0.1874985  0.3125015  0.8125015  )
       392           C   tau( 392) = (  0.1874985  0.5625015  0.0625015  )
       393           C   tau( 393) = (  0.1874985  0.5625015  0.3125015  )
       394           C   tau( 394) = (  0.1874985  0.5625015  0.5625015  )
       395           C   tau( 395) = (  0.1874985  0.5625015  0.8125015  )
       396           C   tau( 396) = (  0.1874985  0.8125015  0.0625015  )
       397           C   tau( 397) = (  0.1874985  0.8125015  0.3125015  )
       398           C   tau( 398) = (  0.1874985  0.8125015  0.5625015  )
       399           C   tau( 399) = (  0.1874985  0.8125015  0.8125015  )
       400           C   tau( 400) = (  0.4374985  0.0625015  0.0625015  )
       401           C   tau( 401) = (  0.4374985  0.0625015  0.3125015  )
       402           C   tau( 402) = (  0.4374985  0.0625015  0.5625015  )
       403           C   tau( 403) = (  0.4374985  0.0625015  0.8125015  )
       404           C   tau( 404) = (  0.4374985  0.3125015  0.0625015  )
       405           C   tau( 405) = (  0.4374985  0.3125015  0.3125015  )
       406           C   tau( 406) = (  0.4374985  0.3125015  0.5625015  )
       407           C   tau( 407) = (  0.4374985  0.3125015  0.8125015  )
       408           C   tau( 408) = (  0.4374985  0.5625015  0.0625015  )
       409           C   tau( 409) = (  0.4374985  0.5625015  0.3125015  )
       410           C   tau( 410) = (  0.4374985  0.5625015  0.5625015  )
       411           C   tau( 411) = (  0.4374985  0.5625015  0.8125015  )
       412           C   tau( 412) = (  0.4374985  0.8125015  0.0625015  )
       413           C   tau( 413) = (  0.4374985  0.8125015  0.3125015  )
       414           C   tau( 414) = (  0.4374985  0.8125015  0.5625015  )
       415           C   tau( 415) = (  0.4374985  0.8125015  0.8125015  )
       416           C   tau( 416) = (  0.6874985  0.0625015  0.0625015  )
       417           C   tau( 417) = (  0.6874985  0.0625015  0.3125015  )
       418           C   tau( 418) = (  0.6874985  0.0625015  0.5625015  )
       419           C   tau( 419) = (  0.6874985  0.0625015  0.8125015  )
       420           C   tau( 420) = (  0.6874985  0.3125015  0.0625015  )
       421           C   tau( 421) = (  0.6874985  0.3125015  0.3125015  )
       422           C   tau( 422) = (  0.6874985  0.3125015  0.5625015  )
       423           C   tau( 423) = (  0.6874985  0.3125015  0.8125015  )
[...]
              0.218146821379609E+03
              0.135459211656091E+02
              0.344628816204799E+02
              0.157747040293808E+03
              0.517216067511529E+02
             -0.985806915986091E+02
             -0.184936484336534E+03
              0.101713629264646E+01
             -0.216952920740322E+03
              0.740431342133895E+02
             -0.242787012490381E+02
             -0.746754105419768E+02
              0.682587102528098E+02
              0.329339250113915E+02
              0.779188294967699E+02
             -0.217028625311326E+01
              0.114812009462588E+03
             -0.209537944282560E+03
             -0.986575105206009E+01
             -0.190300341264163E+03
              0.610934455923057E+02
              0.929596940544020E+02
             -0.178597926955085E+02
             -0.553209408751517E+02
              0.162388016662621E+03
             -0.731776492166898E+02
              0.511417123908566E+02
             -0.341546016269363E+02
              0.127846144206847E+03
              0.106145343594311E+03
             -0.482111373121274E+02
              0.109414592058350E+03
              0.409668363956648E+02
             -0.112364343003823E+03
             -0.559189231397100E+02
              0.171888558765323E+03
              0.814773592728563E+02
              0.449392288306001E+00
             -0.224995861609364E+02
              0.272368151625795E+03
              0.156147873888872E+03
              0.503836114169484E+02
             -0.194010343823053E+03
              0.269385612864773E+03
             -0.141849211944325E+03
             -0.166577183594715E+03
             -0.226349243278028E+03
              0.112427257280699E+03
             -0.199944640576295E+03
              0.894541078229272E+02
              0.174752813474078E+03
              0.110899794565829E+03
              0.547535339446129E+02
              0.704851642781474E+02
             -0.178010102808744E+03
             -0.591417560859363E+02
             -0.501596565116197E+02
              0.958585285410266E+02
              0.162398863244855E+03
              0.189068625314428E+03
              0.158108712165479E+03
             -0.387322911270346E+02
              0.382517413849732E+02
             -0.151962478307739E+02
             -0.578692645259163E+02
              0.626770044720313E+02
              0.655676429479226E+02
             -0.918532037965477E+02
             -0.123419090086903E+03
             -0.434277421475922E+02
              0.156720975359998E+03
              0.779075256593929E+02
             -0.101615785760331E+03
             -0.134806466753630E+03
             -0.175867264487574E+03
             -0.786712735226536E+01
              0.377783605100767E+02
             -0.741928864179909E+02
              0.265451363929886E+03
              0.229176618154631E+02
             -0.317105798995766E+03
              0.709303317735407E+02
              0.154585590739792E+03
             -0.668751877180491E+02
              0.145794288183214E+02
             -0.101747557924090E+03
              0.124850466377315E+03
              0.472926469243871E+02
             -0.159874975320162E+03
              0.195467024272868E+03
             -0.175138025771319E+02
             -0.106258481151255E+03
             -0.101655462297418E+03
              0.368581740002878E+03
              0.178400161177911E+03
             -0.393541845445227E+02
              0.105489722705246E+03
             -0.138966355681933E+03
             -0.214599197913572E+02
             -0.166380697508830E+03
              0.716832543266873E+02
              0.953011289136439E+02
              0.129320204671041E+03
             -0.553439441539183E+02
              0.165280675684310E+02
              0.143312324343877E+03
              0.712573133729552E+02
              0.933387840968871E+02
              0.435108225067444E+02
             -0.353800165208251E+02
             -0.388045916877292E+01
             -0.249459118183832E+02
              0.369567348255321E+02
              0.148739824947523E+02
             -0.117577040575806E+03
              0.219032813405735E+03
              0.929385491676026E+02
             -0.142415050102887E+03
             -0.975872676791092E+02
             -0.159672420909634E+03
             -0.810336151983620E+02
             -0.511828062436084E+02
             -0.125289346411219E+03
             -0.126961885513138E+03
              0.195918223318783E+03
              0.132634447293932E+03
             -0.311523945070930E+02
              0.172978900494954E+03
              0.466670121725324E+02
             -0.300990822706840E+03
              0.154982612121288E+03
              0.458203556859800E+02
              0.141521861070779E+03
              0.364321563282729E+02
              0.383916060334580E+02
              0.329766099445833E+02
              0.862822617759525E+02
             -0.111635268474575E+03
             -0.642420772440955E+02
             -0.976591215022358E+02
             -0.687174604599151E+02
              0.415294177545519E+02
             -0.107046112113419E+03
              0.418640979122879E+02
              0.609241565287574E+02
             -0.730985589890365E+02
             -0.294182081474559E+02
             -0.813348804412476E+01
              0.188686664908956E+03
              0.143291423823340E+02
              0.204440743595540E+03
              0.530025334916040E+02
             -0.233101981546312E+03
             -0.904028063942283E+02
              0.792280717270344E+02
              0.154342691879967E+03
              0.581439361969183E+02
              0.607209341984459E+02
              0.164114916242269E+03
             -0.112028682617178E+03
             -0.174071856807315E+03
              0.203941850243478E+03
             -0.210266962044341E+02
             -0.232369461951018E+03
              0.780521007865586E+02
              0.150491022128289E+03
             -0.238222981616941E+02
             -0.118320134111734E+03
             -0.601588012250818E+01
              0.186485114182656E+02
             -0.713306655859005E+02
              0.386934092092547E+02
             -0.278700739381685E+02
              0.308829823952669E+03
              0.701548750535400E+02
             -0.154882691110775E+03
              0.451381158821175E+02
              0.206679306571132E+03
             -0.115318564628243E+03
             -0.611053963498994E+02
             -0.111521598668372E+03
              0.727187316863869E+02
              0.499167942245355E+02
              0.457282471915871E+02
             -0.196717354461293E+01
              0.220416565099066E+03
             -0.144218094130423E+03
             -0.109470559282276E+03
             -0.104636468160947E+03
              0.108714618993028E+03
              0.209475865619885E+03
             -0.653016008258453E+01
              0.900061288894456E+02
             -0.111651543540413E+03
             -0.108550129748648E+02
             -0.303619423343357E+02
             -0.449471793983510E+02
             -0.555324123983472E+02
             -0.577463601789252E+02
             -0.372993627554455E+02
              0.565665147886414E+02
              0.553010611248823E+02
             -0.156987027396843E+03
              0.109831431841055E+03
             -0.174443306530106E+03
              0.126342470334536E+03
             -0.172033118545373E+03
              0.258558310412491E+03
              0.127645346414540E+03
              0.126583899050749E+03
              0.265763017261108E+02
              0.153654230701720E+02
             -0.324347662092084E+03
              0.630965755435476E+02
              0.182360005397361E+02
              0.686154915136785E+01
             -0.404303301296745E+02
              0.232064840271925E+03
             -0.105207664830754E+03
             -0.838932197637927E+02
             -0.253630867512063E+03
             -0.859781271688812E+02
             -0.101039528983153E+03
             -0.106824896779053E+03
             -0.256751138094158E+02
             -0.458314716592236E+02
             -0.664542938871978E+02
             -0.107172085625632E+03
              0.806213467544146E+02
              0.253937916563160E+03
              0.220419294538218E+03
             -0.736816202534242E+02
             -0.274740702376191E+03
             -0.108826529734544E+03
              0.695549597701128E+02
              0.485265806376134E+02
              0.663555871823793E+02
              0.691193450570818E+02
              0.213058363244884E+02
              0.223471919905571E+03
             -0.587767269883830E+02
              0.133047340298003E+03
              0.431624264353776E+02
             -0.834666231246217E+02
             -0.584884849915429E+02
              0.112653504590595E+03
             -0.481628247208937E+02
             -0.560577450076022E+02
             -0.303278494199476E+02
              0.143692984929032E+03
             -0.179345240023034E+03
             -0.415679755290116E+02
             -0.156639503268345E+03
             -0.340059818921734E+03
              0.161880988706854E+02
             -0.347722506903886E+02
              0.119168532545409E+03
              0.127114184756508E+03
              0.192780036886936E+03
             -0.117510483046622E+03
              0.200201487857975E+03
              0.469851726602499E+02
             -0.379389537083381E+02
              0.417635201562701E+02
             -0.793842212745255E+02
             -0.515082960783138E+02
              0.978460658110739E+02
             -0.109409717383741E+03
              0.251643166018191E+03
             -0.620161133400588E+02
             -0.137425814390313E+03
              0.248414244833431E+03
             -0.145241894254023E+03
             -0.343706436473165E+02
              0.256684456869110E+02
              0.720152050824643E+02
             -0.115805723032475E+03
             -0.897186078392236E+02
              0.117281260219221E+03
             -0.224436040054964E+03
              0.148193220811683E+03
              0.266135252133898E+02
              0.117096462133824E+03
              0.161642362721429E+03
              0.215238879820365E+02
             -0.190088327328076E+03
             -0.953760578698311E+02
             -0.161657462817957E+03
             -0.955059374345074E+02
             -0.617606744239301E+02
              0.253268620933366E+02
             -0.526833166807033E+02
              0.141454157544413E+02
             -0.275749298279919E+03
             -0.998919947273549E+01
             -0.160939651186214E+03
              0.146722325855400E+03
             -0.624846214305423E+02
             -0.195483030121711E+02
              0.111746534047700E+03
              0.549191817351914E+01
              0.121699385781018E+03
             -0.189514923887669E+03
              0.469073894102073E+02
              0.265263932288979E+02
              0.626871706805445E+02
              0.152481734147757E+03
             -0.117649574492310E+02
             -0.178183189369690E+03
             -0.890257145643704E+02
             -0.638971660787502E+02
             -0.356744674014326E+02
              0.146985922104273E+03
              0.988271778493697E+02
             -0.770005325750703E+02
             -0.996271201168342E+02
              0.828717843815934E+02
              0.749297625338689E+02
             -0.190385314473646E+03
              0.601037894250548E+02
              0.142973586700143E+03
             -0.112690984968556E+02
              0.162192834040448E+03
              0.953012122854115E+02
              0.124143756726214E+03
              0.176530301310499E+03
              0.632269875922410E+01
             -0.289934125054879E+03
              0.263806200704125E+02
              0.314946712619152E+03
              0.209737037194392E+03
             -0.147871750741444E+03
              0.111126332906357E+02
              0.174645924945316E+03
              0.161209901127778E+03
              0.688911481434031E+02
             -0.495422609729553E+02
              0.765514160888766E+02
              0.189538959973000E+03
             -0.649558112179720E+02
             -0.626708101633913E+02
              0.108727796548339E+03
             -0.164210377283797E+02
              0.877668642612120E+02
              0.420133898437285E+00
              0.208750649963255E+03
             -0.704356264304803E+02
              0.291579945099553E+02
             -0.113093471807739E+03
              0.101754968731822E+03
             -0.126235710594242E+02
              0.162553372982648E+03
              0.114197030599639E+02
              0.452499470365426E+02
             -0.108536317241688E+03
             -0.592709222640711E+02
             -0.332764761556298E+02
             -0.135870077319700E+02
              0.171311999083628E+03
              0.487748796641854E+02
              0.226342648443693E+03
              0.133650310752977E+03
              0.209637916718343E+02
             -0.140323698780918E+00
              0.205530118365699E+03
              0.107511538268595E+03
              0.135400822160617E+02
              0.190001644450849E+03
             -0.169163591555749E+03
              0.708297421962228E+02
             -0.899584913650699E+02
             -0.683325951896182E+02
              0.246477590423465E+03
             -0.400347916454548E+02
              0.236968277676556E+01
             -0.391355920969228E+02
              0.205860698708904E+03
             -0.576282494288406E+02
             -0.578246685343174E+01
              0.426567948361245E+03
             -0.153652158215899E+03
             -0.124831659734627E+03
             -0.160183470667767E+03
             -0.752858929888898E+02
              0.876603402057855E+02
             -0.399813516431768E+02
              0.370822663943709E+02
              0.157929160944423E+01
              0.537323303389023E+02
              0.863850479140942E+02
              0.816055823771579E+02
              0.173909985754412E+03
              0.710519617123822E+02
              0.121214307159247E+03
             -0.173521917270569E+03
             -0.135165504988253E+03
             -0.550631884232121E+02
             -0.148710219993740E+03
              0.268049863301345E+03
              0.229917851256396E+03
              0.999142697887865E+02
              0.271050537663496E+03
             -0.145380480057556E+03
             -0.699440892189176E+02
             -0.721993811045148E+02
              0.213867683428978E+03
 
 BEEF-vdW xc energy contributions
            1 :    -2089.889202546525     
            2 :     1843.675691679960     
            3 :    -1419.184056859315     
            4 :     926.6130094883188     
            5 :    -478.4023406420956     
            6 :     152.0475952598267     
            7 :     29.32437486702975     
            8 :    -92.66794096962803     
            9 :     92.08608537507780     
           10 :    -79.96781159748798     
           11 :     85.80548930761279     
           12 :    -110.6749626192004     
           13 :     136.6756243092509     
           14 :    -143.5399310508315     
           15 :     122.4766052201439     
           16 :    -80.53558846757869     
           17 :     34.96483245611853     
           18 :    -2.504555688860364     
           19 :    -9.486739094948916     
           20 :     5.311005091613424     
           21 :     3.687594823975360     
           22 :    -6.958326049005791     
           23 :    0.7972729399580203     
           24 :     10.64158223675031     
           25 :    -19.23834998636949     
           26 :     18.68964575036489     
           27 :    -8.438862950297789     
           28 :    -6.403141414157290     
           29 :     18.61886923654492     
           30 :    -23.34497711072299     
           31 :    -273.4365634603641     
           32 :    -198.3483932259865     

     Writing all to output data dir ./diamond.save/
 
     init_run     :     20.50s CPU     26.31s WALL (       1 calls)
     electrons    :    756.59s CPU    769.67s WALL (       1 calls)
     forces       :      7.92s CPU      8.38s WALL (       1 calls)
     stress       :    104.25s CPU    105.28s WALL (       1 calls)

     Called by init_run:
     wfcinit      :     16.79s CPU     22.25s WALL (       1 calls)
     potinit      :      0.92s CPU      1.05s WALL (       1 calls)
     hinit0       :      1.50s CPU      1.63s WALL (       1 calls)

     Called by electrons:
     c_bands      :    736.58s CPU    748.91s WALL (       2 calls)
     sum_band     :     18.12s CPU     18.57s WALL (       2 calls)
     v_of_rho     :      1.26s CPU      1.29s WALL (       2 calls)
     v_h          :      0.02s CPU      0.02s WALL (       2 calls)
     v_xc         :     20.39s CPU     20.65s WALL (      38 calls)
     newd         :      0.17s CPU      0.27s WALL (       2 calls)
     PAW_pot      :      0.25s CPU      0.25s WALL (       2 calls)
     mix_rho      :      0.00s CPU      0.00s WALL (       2 calls)
     vdW_kernel   :      0.16s CPU      0.17s WALL (       1 calls)

     Called by c_bands:
     init_us_2    :      0.12s CPU      0.13s WALL (       4 calls)
     init_us_2:cp :      0.12s CPU      0.13s WALL (       4 calls)
     cegterg      :    735.85s CPU    746.28s WALL (       2 calls)

     Called by sum_band:
     sum_band:wei :      0.00s CPU      0.00s WALL (       2 calls)
     sum_band:loo :     17.83s CPU     18.03s WALL (       2 calls)
     sum_band:buf :      0.00s CPU      0.00s WALL (       2 calls)
     sum_band:ini :      0.11s CPU      0.12s WALL (       2 calls)
     sum_band:cal :      2.94s CPU      2.97s WALL (       2 calls)
     sum_band:bec :      0.08s CPU      0.08s WALL (       2 calls)
     addusdens    :      0.16s CPU      0.27s WALL (       2 calls)
     addusd:skk   :      0.05s CPU      0.15s WALL (       2 calls)
     addusd:dgemm :      0.11s CPU      0.11s WALL (       2 calls)
     addusd:qvan2 :      0.01s CPU      0.01s WALL (       2 calls)

     Called by *egterg:
     cdiaghg      :    604.61s CPU    609.39s WALL (      21 calls)
     cegterg:over :      8.06s CPU      8.66s WALL (      21 calls)
     cegterg:upda :      3.86s CPU      3.94s WALL (      21 calls)
     cegterg:last :      1.77s CPU      1.79s WALL (       2 calls)
     h_psi        :     95.38s CPU     96.71s WALL (      23 calls)
     s_psi        :      6.40s CPU      6.71s WALL (      23 calls)
     g_psi        :      0.02s CPU      0.02s WALL (      21 calls)

     Called by h_psi:
     h_psi:calbec :      8.04s CPU      8.12s WALL (      23 calls)
     vloc_psi     :     80.90s CPU     81.71s WALL (      23 calls)
     vloc_psi:tg_ :      0.00s CPU      0.00s WALL (      23 calls)
     add_vuspsi   :      6.38s CPU      6.76s WALL (      23 calls)

     General routines
     calbec       :     18.47s CPU     18.66s WALL (      30 calls)
     fft          :     17.45s CPU     17.64s WALL (    2232 calls)
     ffts         :      0.03s CPU      0.03s WALL (       4 calls)
     fftw         :     94.94s CPU     95.89s WALL (   14992 calls)
     interpolate  :      0.04s CPU      0.04s WALL (       2 calls)
 
     Parallel routines
     fft_scatt_xy :      1.07s CPU      1.09s WALL (   17228 calls)
     fft_scatt_yz :    105.31s CPU    106.35s WALL (   17228 calls)
     fft_scatt_tg :      0.05s CPU      0.05s WALL (   14992 calls)

     PAW routines
     PAW_pot      :      0.25s CPU      0.25s WALL (       2 calls)
     PAW_symme    :      0.00s CPU      0.00s WALL (       3 calls)
 
     PWSCF        :  15m23.32s CPU  15m49.62s WALL

 
   This run was terminated on:  15:29:55   9Jan2024            

=------------------------------------------------------------------------------=
   JOB DONE.
=------------------------------------------------------------------------------=
