
     Program PWSCF v.7.2 starts on 17Mar2024 at 21:17:40 

     This program is part of the open-source Quantum ESPRESSO suite
     for quantum simulation of materials; please cite
         "P. Giannozzi et al., J. Phys.:Condens. Matter 21 395502 (2009);
         "P. Giannozzi et al., J. Phys.:Condens. Matter 29 465901 (2017);
         "P. Giannozzi et al., J. Chem. Phys. 152 154105 (2020);
          URL http://www.quantum-espresso.org", 
     in publications or presentations arising from this work. More details at
     http://www.quantum-espresso.org/quote

     Parallel version (MPI & OpenMP), running on     128 processor cores
     Number of MPI processes:               128
     Threads/MPI process:                     1

     MPI processes distributed on     1 nodes
     1999920 MiB available memory on the printing compute node when the environment starts
 
     Reading input from espresso.pwi
Warning: card &CELL ignored
Warning: card    CELL_DYNAMICS    = 'BFGS' ignored
Warning: card / ignored

     Current dimensions of program PWSCF are:
     Max number of different atomic species (ntypx) = 10
     Max number of k-points (npk) =  40000
     Max angular momentum in pseudopotentials (lmaxx) =  4
     file C.pbe-n-kjpaw_psl.1.0.0.UPF: wavefunction(s)  2S 2P renormalized

     **************************************************************************
     Initializing libbeef V0.1.2 with the BEEF-vdW functional.
     Citation: Wellendorff et al., PRB 85, 235149 (2012).
     **************************************************************************


     IMPORTANT: XC functional enforced from input :
     Exchange-correlation= BEEF-VDW
                           (   1   4  43  14   2   0   0)
     Any further DFT definition will be discarded
     Please, verify this is what you really want

 
     K-points division:     npool     =       4
     R & G space division:  proc/nbgrp/npool/nimage =      32
     Subspace diagonalization in iterative solution of the eigenvalue problem:
     a serial algorithm will be used

 
     Parallelization info
     --------------------
     sticks:   dense  smooth     PW     G-vecs:    dense   smooth      PW
     Min         158     126     34                 8504     6078     876
     Max         160     127     35                 8506     6081     881
     Sum        5073    4049   1109               272153   194543   28113
 
     Using Slab Decomposition
 


     bravais-lattice index     =            1
     lattice parameter (alat)  =      13.5013  a.u.
     unit-cell volume          =    2461.1121 (a.u.)^3
     number of atoms/cell      =           63
     number of atomic types    =            1
     number of electrons       =       250.00
     number of Kohn-Sham states=          150
     kinetic-energy cutoff     =      70.0000  Ry
     charge density cutoff     =     350.0000  Ry
     scf convergence threshold =      1.0E-07
     mixing beta               =       0.7000
     number of iterations used =            8  plain     mixing
     Exchange-correlation= BEEF-VDW
                           (   1   4  43  14   2   0   0)

     celldm(1)=  13.501348  celldm(2)=   0.000000  celldm(3)=   0.000000
     celldm(4)=   0.000000  celldm(5)=   0.000000  celldm(6)=   0.000000

     crystal axes: (cart. coord. in units of alat)
               a(1) = (   1.000000   0.000000   0.000000 )  
               a(2) = (   0.000000   1.000000   0.000000 )  
               a(3) = (   0.000000   0.000000   1.000000 )  

     reciprocal axes: (cart. coord. in units 2 pi/alat)
               b(1) = (  1.000000  0.000000  0.000000 )  
               b(2) = (  0.000000  1.000000  0.000000 )  
               b(3) = (  0.000000  0.000000  1.000000 )  


     PseudoPot. # 1 for C  read from file:
     //group///packages/espresso/pseudo/psl_1.0.0/pslibrary.1.0.0/pbe/PSEUDOPOTENTIALS/C.pbe-n-kjpaw_psl.1.0.0.UPF
     MD5 check sum: 5459cf7f2c8c37df2f7cde8914797f4d
     Pseudo is Projector augmented-wave + core cor, Zval =  4.0
     Generated using 'atomic' code by A. Dal Corso  v.7.1
     Shape of augmentation charge: PSQ
     Using radial grid of 1073 points,  4 beta functions with: 
                l(1) =   0
                l(2) =   0
                l(3) =   1
                l(4) =   1
     Q(r) pseudized with 0 coefficients 


     atomic species   valence    mass     pseudopotential
        C              4.00    12.01100     C ( 1.00)

      6 Sym. Ops. (no inversion) found ( 4 have fractional translation)


                                    s                        frac. trans.

      isym =  1     identity                                     

 cryst.   s( 1) = (     1          0          0      )
                  (     0          1          0      )
                  (     0          0          1      )

 cart.    s( 1) = (  1.0000000  0.0000000  0.0000000 )
                  (  0.0000000  1.0000000  0.0000000 )
                  (  0.0000000  0.0000000  1.0000000 )


      isym =  2     120 deg rotation - cart. axis [1,-1,1]       

 cryst.   s( 2) = (     0          0          1      )    f =( -0.5000000 )
                  (    -1          0          0      )       ( -0.5000000 )
                  (     0         -1          0      )       (  0.0000000 )

 cart.    s( 2) = (  0.0000000 -1.0000000  0.0000000 )    f =( -0.5000000 )
                  (  0.0000000  0.0000000 -1.0000000 )       ( -0.5000000 )
                  (  1.0000000  0.0000000  0.0000000 )       (  0.0000000 )


      isym =  3     120 deg rotation - cart. axis [-1,1,-1]      

 cryst.   s( 3) = (     0         -1          0      )    f =(  0.0000000 )
                  (     0          0         -1      )       ( -0.5000000 )
                  (     1          0          0      )       ( -0.5000000 )

 cart.    s( 3) = (  0.0000000  0.0000000  1.0000000 )    f =(  0.0000000 )
                  ( -1.0000000  0.0000000  0.0000000 )       ( -0.5000000 )
                  (  0.0000000 -1.0000000  0.0000000 )       ( -0.5000000 )


      isym =  4     inv. 180 deg rotation - cart. axis [1,1,0]   

 cryst.   s( 4) = (     0         -1          0      )    f =( -0.5000000 )
                  (    -1          0          0      )       ( -0.5000000 )
                  (     0          0          1      )       (  0.0000000 )

 cart.    s( 4) = (  0.0000000 -1.0000000  0.0000000 )    f =( -0.5000000 )
                  ( -1.0000000  0.0000000  0.0000000 )       ( -0.5000000 )
                  (  0.0000000  0.0000000  1.0000000 )       (  0.0000000 )


      isym =  5     inv. 180 deg rotation - cart. axis [-1,0,1]  

 cryst.   s( 5) = (     0          0          1      )
                  (     0          1          0      )
                  (     1          0          0      )

 cart.    s( 5) = (  0.0000000  0.0000000  1.0000000 )
                  (  0.0000000  1.0000000  0.0000000 )
                  (  1.0000000  0.0000000  0.0000000 )


      isym =  6     inv. 180 deg rotation - cart. axis [0,1,1]   

 cryst.   s( 6) = (     1          0          0      )    f =(  0.0000000 )
                  (     0          0         -1      )       ( -0.5000000 )
                  (     0         -1          0      )       ( -0.5000000 )

 cart.    s( 6) = (  1.0000000  0.0000000  0.0000000 )    f =(  0.0000000 )
                  (  0.0000000  0.0000000 -1.0000000 )       ( -0.5000000 )
                  (  0.0000000 -1.0000000  0.0000000 )       ( -0.5000000 )


     point group C_3v (3m)  
     there are  3 classes
     the character table:

       E     2C3   3s_v 
A_1    1.00  1.00  1.00
A_2    1.00  1.00 -1.00
E      2.00 -1.00  0.00

     the symmetry operations in each class and the name of the first element:

     E        1
          identity                                               
     2C3      2    3
          120 deg rotation - cart. axis [1,-1,1]                 
     3s_v     4    5    6
          inv. 180 deg rotation - cart. axis [1,1,0]             

   Cartesian axes

     site n.     atom                  positions (alat units)
         1           C   tau(   1) = (   0.1250031   0.3749969   0.6250031  )
         2           C   tau(   2) = (   0.1250031   0.8749969   0.1250031  )
         3           C   tau(   3) = (   0.1250031   0.8749969   0.6250031  )
         4           C   tau(   4) = (   0.6250031   0.3749969   0.1250031  )
         5           C   tau(   5) = (   0.6250031   0.3749969   0.6250031  )
         6           C   tau(   6) = (   0.6250031   0.8749969   0.1250031  )
         7           C   tau(   7) = (   0.6250031   0.8749969   0.6250031  )
         8           C   tau(   8) = (   0.0000000   0.0000000   0.2500000  )
         9           C   tau(   9) = (   0.0000000   0.0000000   0.7500000  )
        10           C   tau(  10) = (   0.0000000   0.5000000   0.2500000  )
        11           C   tau(  11) = (   0.0000000   0.5000000   0.7500000  )
        12           C   tau(  12) = (   0.5000000   0.0000000   0.2500000  )
        13           C   tau(  13) = (   0.5000000   0.0000000   0.7500000  )
        14           C   tau(  14) = (   0.5000000   0.5000000   0.2500000  )
        15           C   tau(  15) = (   0.5000000   0.5000000   0.7500000  )
        16           C   tau(  16) = (   0.1250031   0.1250031   0.3749969  )
        17           C   tau(  17) = (   0.1250031   0.1250031   0.8749969  )
        18           C   tau(  18) = (   0.1250031   0.6250031   0.3749969  )
        19           C   tau(  19) = (   0.1250031   0.6250031   0.8749969  )
        20           C   tau(  20) = (   0.6250031   0.1250031   0.3749969  )
        21           C   tau(  21) = (   0.6250031   0.1250031   0.8749969  )
        22           C   tau(  22) = (   0.6250031   0.6250031   0.3749969  )
        23           C   tau(  23) = (   0.6250031   0.6250031   0.8749969  )
        24           C   tau(  24) = (   0.0000000   0.2500000   0.0000000  )
        25           C   tau(  25) = (   0.0000000   0.2500000   0.5000000  )
        26           C   tau(  26) = (   0.0000000   0.7500000   0.0000000  )
        27           C   tau(  27) = (   0.0000000   0.7500000   0.5000000  )
        28           C   tau(  28) = (   0.5000000   0.2500000   0.0000000  )
        29           C   tau(  29) = (   0.5000000   0.2500000   0.5000000  )
        30           C   tau(  30) = (   0.5000000   0.7500000   0.0000000  )
        31           C   tau(  31) = (   0.5000000   0.7500000   0.5000000  )
        32           C   tau(  32) = (   0.3749969   0.3749969   0.3749969  )
        33           C   tau(  33) = (   0.3749969   0.3749969   0.8749969  )
        34           C   tau(  34) = (   0.3749969   0.8749969   0.3749969  )
        35           C   tau(  35) = (   0.3749969   0.8749969   0.8749969  )
        36           C   tau(  36) = (   0.8749969   0.3749969   0.3749969  )
        37           C   tau(  37) = (   0.8749969   0.3749969   0.8749969  )
        38           C   tau(  38) = (   0.8749969   0.8749969   0.3749969  )
        39           C   tau(  39) = (   0.8749969   0.8749969   0.8749969  )
        40           C   tau(  40) = (   0.2500000   0.0000000   0.0000000  )
        41           C   tau(  41) = (   0.2500000   0.0000000   0.5000000  )
        42           C   tau(  42) = (   0.2500000   0.5000000   0.0000000  )
        43           C   tau(  43) = (   0.2500000   0.5000000   0.5000000  )
        44           C   tau(  44) = (   0.7500000   0.0000000   0.0000000  )
        45           C   tau(  45) = (   0.7500000   0.0000000   0.5000000  )
        46           C   tau(  46) = (   0.7500000   0.5000000   0.0000000  )
        47           C   tau(  47) = (   0.7500000   0.5000000   0.5000000  )
        48           C   tau(  48) = (   0.3749969   0.1250031   0.1250031  )
        49           C   tau(  49) = (   0.3749969   0.1250031   0.6250031  )
        50           C   tau(  50) = (   0.3749969   0.6250031   0.1250031  )
        51           C   tau(  51) = (   0.3749969   0.6250031   0.6250031  )
        52           C   tau(  52) = (   0.8749969   0.1250031   0.1250031  )
        53           C   tau(  53) = (   0.8749969   0.1250031   0.6250031  )
        54           C   tau(  54) = (   0.8749969   0.6250031   0.1250031  )
        55           C   tau(  55) = (   0.8749969   0.6250031   0.6250031  )
        56           C   tau(  56) = (   0.2500000   0.2500000   0.2500000  )
        57           C   tau(  57) = (   0.2500000   0.2500000   0.7500000  )
        58           C   tau(  58) = (   0.2500000   0.7500000   0.2500000  )
        59           C   tau(  59) = (   0.2500000   0.7500000   0.7500000  )
        60           C   tau(  60) = (   0.7500000   0.2500000   0.2500000  )
        61           C   tau(  61) = (   0.7500000   0.2500000   0.7500000  )
        62           C   tau(  62) = (   0.7500000   0.7500000   0.2500000  )
        63           C   tau(  63) = (   0.7500000   0.7500000   0.7500000  )

   Crystallographic axes

     site n.     atom                  positions (cryst. coord.)
         1           C   tau(   1) = (  0.1250031  0.3749969  0.6250031  )
         2           C   tau(   2) = (  0.1250031  0.8749969  0.1250031  )
         3           C   tau(   3) = (  0.1250031  0.8749969  0.6250031  )
         4           C   tau(   4) = (  0.6250031  0.3749969  0.1250031  )
         5           C   tau(   5) = (  0.6250031  0.3749969  0.6250031  )
         6           C   tau(   6) = (  0.6250031  0.8749969  0.1250031  )
         7           C   tau(   7) = (  0.6250031  0.8749969  0.6250031  )
         8           C   tau(   8) = (  0.0000000  0.0000000  0.2500000  )
         9           C   tau(   9) = (  0.0000000  0.0000000  0.7500000  )
        10           C   tau(  10) = (  0.0000000  0.5000000  0.2500000  )
        11           C   tau(  11) = (  0.0000000  0.5000000  0.7500000  )
        12           C   tau(  12) = (  0.5000000  0.0000000  0.2500000  )
        13           C   tau(  13) = (  0.5000000  0.0000000  0.7500000  )
        14           C   tau(  14) = (  0.5000000  0.5000000  0.2500000  )
        15           C   tau(  15) = (  0.5000000  0.5000000  0.7500000  )
        16           C   tau(  16) = (  0.1250031  0.1250031  0.3749969  )
        17           C   tau(  17) = (  0.1250031  0.1250031  0.8749969  )
        18           C   tau(  18) = (  0.1250031  0.6250031  0.3749969  )
        19           C   tau(  19) = (  0.1250031  0.6250031  0.8749969  )
        20           C   tau(  20) = (  0.6250031  0.1250031  0.3749969  )
        21           C   tau(  21) = (  0.6250031  0.1250031  0.8749969  )
        22           C   tau(  22) = (  0.6250031  0.6250031  0.3749969  )
        23           C   tau(  23) = (  0.6250031  0.6250031  0.8749969  )
        24           C   tau(  24) = (  0.0000000  0.2500000  0.0000000  )
        25           C   tau(  25) = (  0.0000000  0.2500000  0.5000000  )
        26           C   tau(  26) = (  0.0000000  0.7500000  0.0000000  )
        27           C   tau(  27) = (  0.0000000  0.7500000  0.5000000  )
        28           C   tau(  28) = (  0.5000000  0.2500000  0.0000000  )
        29           C   tau(  29) = (  0.5000000  0.2500000  0.5000000  )
        30           C   tau(  30) = (  0.5000000  0.7500000  0.0000000  )
        31           C   tau(  31) = (  0.5000000  0.7500000  0.5000000  )
        32           C   tau(  32) = (  0.3749969  0.3749969  0.3749969  )
        33           C   tau(  33) = (  0.3749969  0.3749969  0.8749969  )
        34           C   tau(  34) = (  0.3749969  0.8749969  0.3749969  )
        35           C   tau(  35) = (  0.3749969  0.8749969  0.8749969  )
        36           C   tau(  36) = (  0.8749969  0.3749969  0.3749969  )
        37           C   tau(  37) = (  0.8749969  0.3749969  0.8749969  )
        38           C   tau(  38) = (  0.8749969  0.8749969  0.3749969  )
        39           C   tau(  39) = (  0.8749969  0.8749969  0.8749969  )
        40           C   tau(  40) = (  0.2500000  0.0000000  0.0000000  )
        41           C   tau(  41) = (  0.2500000  0.0000000  0.5000000  )
        42           C   tau(  42) = (  0.2500000  0.5000000  0.0000000  )
        43           C   tau(  43) = (  0.2500000  0.5000000  0.5000000  )
        44           C   tau(  44) = (  0.7500000  0.0000000  0.0000000  )
        45           C   tau(  45) = (  0.7500000  0.0000000  0.5000000  )
        46           C   tau(  46) = (  0.7500000  0.5000000  0.0000000  )
        47           C   tau(  47) = (  0.7500000  0.5000000  0.5000000  )
        48           C   tau(  48) = (  0.3749969  0.1250031  0.1250031  )
        49           C   tau(  49) = (  0.3749969  0.1250031  0.6250031  )
        50           C   tau(  50) = (  0.3749969  0.6250031  0.1250031  )
        51           C   tau(  51) = (  0.3749969  0.6250031  0.6250031  )
        52           C   tau(  52) = (  0.8749969  0.1250031  0.1250031  )
        53           C   tau(  53) = (  0.8749969  0.1250031  0.6250031  )
        54           C   tau(  54) = (  0.8749969  0.6250031  0.1250031  )
        55           C   tau(  55) = (  0.8749969  0.6250031  0.6250031  )
        56           C   tau(  56) = (  0.2500000  0.2500000  0.2500000  )
        57           C   tau(  57) = (  0.2500000  0.2500000  0.7500000  )
        58           C   tau(  58) = (  0.2500000  0.7500000  0.2500000  )
        59           C   tau(  59) = (  0.2500000  0.7500000  0.7500000  )
        60           C   tau(  60) = (  0.7500000  0.2500000  0.2500000  )
        61           C   tau(  61) = (  0.7500000  0.2500000  0.7500000  )
        62           C   tau(  62) = (  0.7500000  0.7500000  0.2500000  )
        63           C   tau(  63) = (  0.7500000  0.7500000  0.7500000  )

     number of k points=     4  Gaussian smearing, width (Ry)=  0.0100
                       cart. coord. in units 2pi/alat
        k(    1) = (   0.0000000   0.0000000   0.0000000), wk =   0.2500000
        k(    2) = (   0.0000000   0.0000000  -0.5000000), wk =   0.7500000
        k(    3) = (   0.0000000  -0.5000000  -0.5000000), wk =   0.7500000
        k(    4) = (  -0.5000000  -0.5000000  -0.5000000), wk =   0.2500000

                       cryst. coord.
        k(    1) = (   0.0000000   0.0000000   0.0000000), wk =   0.2500000
        k(    2) = (   0.0000000   0.0000000  -0.5000000), wk =   0.7500000
        k(    3) = (   0.0000000  -0.5000000  -0.5000000), wk =   0.7500000
        k(    4) = (  -0.5000000  -0.5000000  -0.5000000), wk =   0.2500000

     Dense  grid:   272153 G-vectors     FFT dimensions: (  90,  90,  90)

     Smooth grid:   194543 G-vectors     FFT dimensions: (  72,  72,  72)

     Dynamical RAM for                 wfc:       1.74 MB

     Dynamical RAM for     wfc (w. buffer):       1.74 MB

     Dynamical RAM for           str. fact:       0.13 MB

     Dynamical RAM for           local pot:       0.00 MB

     Dynamical RAM for          nlocal pot:       5.84 MB

     Dynamical RAM for                qrad:       0.43 MB

     Dynamical RAM for          rho,v,vnew:       0.95 MB

     Dynamical RAM for               rhoin:       0.32 MB

     Dynamical RAM for            rho*nmix:       2.08 MB

     Dynamical RAM for           G-vectors:       0.53 MB

     Dynamical RAM for          h,s,v(r/c):      16.48 MB

     Dynamical RAM for          <psi|beta>:       1.15 MB

     Dynamical RAM for                 psi:       6.96 MB

     Dynamical RAM for                hpsi:       6.96 MB

     Dynamical RAM for                spsi:       6.96 MB

     Dynamical RAM for      wfcinit/wfcrot:       4.00 MB

     Dynamical RAM for           addusdens:       3.54 MB

     Dynamical RAM for          addusforce:       7.58 MB

     Dynamical RAM for         addusstress:       1.67 MB

     Estimated static dynamical RAM per process >      11.12 MB

     Estimated max dynamical RAM per process >      51.71 MB

     Estimated total dynamical RAM >       6.27 GB

     Atomic positions and unit cell read from directory:
     ./diamond.save/
     Atomic positions from file used, from input discarded
 

     Check: negative core charge=   -0.000014

     The initial density is read from file :
     ./diamond.save/charge-density



     %%%%%%%%%%%%%%%%%%%%%%%%%%%%%%%%%%%%%%%%%%%%%%%%%%%%%%%%%%%%%%%%%%%%%%%%
     %                                                                      %
     % You are using vdW-DF, which was implemented by the Thonhauser group. %
     % Please cite the following two papers that made this development      %
     % possible and the two reviews that describe the various versions:     %
     %                                                                      %
     %   T. Thonhauser et al., PRL 115, 136402 (2015).                      %
     %   T. Thonhauser et al., PRB 76, 125112 (2007).                       %
     %   K. Berland et al., Rep. Prog. Phys. 78, 066501 (2015).             %
     %   D.C. Langreth et al., J. Phys.: Condens. Matter 21, 084203 (2009). %
     %                                                                      %
     % If you are calculating stress with vdW-DF, please also cite:         %
     %                                                                      %
     %   R. Sabatini et al., J. Phys.: Condens. Matter 24, 424209 (2012).   %
     %                                                                      %
     %%%%%%%%%%%%%%%%%%%%%%%%%%%%%%%%%%%%%%%%%%%%%%%%%%%%%%%%%%%%%%%%%%%%%%%%

     %%%%%%%%%%%%%%%%%%%%%%%%%%%%%%%%%%%%%%%%%%%%%%%%%%%%%%%%%%%%%%%%%%%%%%%%
     %                                                                      %
     %  vdW-DF NEWS:                                                        %
     %                                                                      %
     %  * vdW-DF3 is now available. DOI: 10.1021/acs.jctc.0c00471           %
     %    use with input_dft = 'vdW-DF3-opt1' or 'vdW-DF3-opt2'             %
     %                                                                      %
     %  * Unscreened and range-separated hybrid vdW-DF-cx functionals       %
     %    DOI: 10.1063/1.4986522 and 10.1088/1361-648X/ac2ad2               %
     %    use with input_dft = 'vdW-DF-cx0'    and 'vdW-DF-ahcx'            %
     %  * Unscreened and range-separated hybrid vdW-DF2-b86r functionals    %
     %    DOI: 10.1063/1.4986522 and DOI: 10.1103/PhysRevX.12.041003        %
     %    use with input_dft = 'vdW-DF2-br0' and 'vdW-DF2-ahbr'             %
     %                                                                      %
     %%%%%%%%%%%%%%%%%%%%%%%%%%%%%%%%%%%%%%%%%%%%%%%%%%%%%%%%%%%%%%%%%%%%%%%%


     Carrying out vdW-DF run using the following parameters:
     Nqs    =  20  Npoints =  1024  r_max =  100.000
     q_mesh =  0.00001000  0.04494208  0.09755937  0.15916263
               0.23128650  0.31572767  0.41458969  0.53033537
               0.66584808  0.82450364  1.01025438  1.22772762
               1.48234092  1.78043706  2.12944203  2.53805004
               3.01644009  3.57652955  4.23227104  5.00000000


     -----------------------------------------------
     Non-local corr. energy    =       2.16538397 Ry
     -----------------------------------------------

     Starting wfcs from file
     Checking if some PAW data can be deallocated... 

     total cpu time spent up to now is        2.1 secs

     Self-consistent Calculation

     iteration #  1     ecut=    70.00 Ry     beta= 0.70
     Davidson diagonalization with overlap

---- Real-time Memory Report at c_bands before calling an iterative solver
           169 MiB given to the printing process from OS
             0 MiB allocation reported by mallinfo(arena+hblkhd)
       1995702 MiB available memory on the node where the printing process lives
------------------
     ethr =  1.00E-05,  avg # of iterations =  1.0

     Threshold (ethr) on eigenvalues was too large:
     Diagonalizing with lowered threshold

     Davidson diagonalization with overlap

---- Real-time Memory Report at c_bands before calling an iterative solver
           207 MiB given to the printing process from OS
             0 MiB allocation reported by mallinfo(arena+hblkhd)
       1991531 MiB available memory on the node where the printing process lives
------------------
     ethr =  3.06E-12,  avg # of iterations =  8.8


     -----------------------------------------------
     Non-local corr. energy    =       2.16538430 Ry
     -----------------------------------------------


     total cpu time spent up to now is        6.3 secs

     End of self-consistent calculation

          k = 0.0000 0.0000 0.0000 ( 24303 PWs)   bands (ev):

    -8.6650  -6.5166  -6.5166  -6.5162  -6.4402  -6.4402  -6.0771  -4.4628
    -4.4626  -4.4626  -4.3025  -4.3025  -4.2743  -4.2743  -4.2741  -4.2592
    -4.2592  -4.2580  -3.5104  -3.0937  -3.0933  -3.0933  -2.4897  -0.5397
    -0.4810  -0.4810  -0.4807  -0.1555  -0.1555   0.0047   0.0051   0.0051
     0.1717   0.5450   0.5452   0.5452   0.5872   0.5872   0.6658   0.6658
     0.6659   0.7389   0.7392   0.7392   2.8418   3.7973   3.7979   3.7979
     3.8477   3.8477   3.8479   3.9780   3.9780   4.1199   4.1206   4.1206
     4.4219   4.4219   4.4221   4.4764   4.4764   4.4773   4.5539   4.5539
     4.5839   4.7359   4.8595   4.8595   4.8600   5.0483   5.0483   5.1618
     5.1618   5.1622   5.1635   5.1635   5.1640   5.8421   5.8421   5.8428
     6.4348   6.4350   6.4350   6.6981   6.6983   6.6983   7.1563   8.0139
     8.0139   8.1476   8.1476   8.1478   8.4369   8.4373   8.4373   8.4891
     8.4894   8.4894   8.6431   8.6431   8.6436   9.0378   9.0381   9.0381
     9.4218   9.4221   9.4221   9.5178   9.5178   9.5820   9.7453   9.7453
     9.7455   9.8161   9.8166   9.8166   9.9584   9.9584   9.9836   9.9840
     9.9840  10.6060  11.9577  11.9577  11.9579  14.0211  14.0215  14.0216
    17.2817  17.3405  17.3405  17.4969  17.4969  17.4981  17.8336  17.8336
    17.8340  17.8676  17.8676  18.1338  18.7498  18.7498  18.7505  20.6821
    20.6826  20.6826  20.7080  20.7085  20.7085  20.9769

     occupation numbers 
     1.0000   1.0000   1.0000   1.0000   1.0000   1.0000   1.0000   1.0000
     1.0000   1.0000   1.0000   1.0000   1.0000   1.0000   1.0000   1.0000
     1.0000   1.0000   1.0000   1.0000   1.0000   1.0000   1.0000   1.0000
     1.0000   1.0000   1.0000   1.0000   1.0000   1.0000   1.0000   1.0000
     1.0000   1.0000   1.0000   1.0000   1.0000   1.0000   1.0000   1.0000
     1.0000   1.0000   1.0000   1.0000   1.0000   1.0000   1.0000   1.0000
     1.0000   1.0000   1.0000   1.0000   1.0000   1.0000   1.0000   1.0000
     1.0000   1.0000   1.0000   1.0000   1.0000   1.0000   1.0000   1.0000
     1.0000   1.0000   1.0000   1.0000   1.0000   1.0000   1.0000   1.0000
     1.0000   1.0000   1.0000   1.0000   1.0000   1.0000   1.0000   1.0000
     1.0000   1.0000   1.0000   1.0000   1.0000   1.0000   1.0000   1.0000
     1.0000   1.0000   1.0000   1.0000   1.0000   1.0000   1.0000   1.0000
     1.0000   1.0000   1.0000   1.0000   1.0000   1.0000   1.0000   1.0000
     1.0000   1.0000   1.0000   1.0000   1.0000   1.0000   1.0000   1.0000
     1.0000   1.0000   1.0000   1.0000   1.0000   1.0000   1.0000   1.0000
     1.0000   1.0000   1.0000   1.0000   1.0000   0.0000   0.0000   0.0000
     0.0000   0.0000   0.0000   0.0000   0.0000   0.0000   0.0000   0.0000
     0.0000   0.0000   0.0000   0.0000   0.0000   0.0000   0.0000   0.0000
     0.0000   0.0000   0.0000   0.0000   0.0000   0.0000

          k = 0.0000 0.0000-0.5000 ( 24268 PWs)   bands (ev):

    -8.1489  -8.0510  -6.0710  -6.0708  -5.8966  -5.8854  -5.8661  -5.8533
    -5.8529  -5.4337  -4.1164  -3.8678  -3.8603  -3.8602  -3.8025  -3.8024
    -3.7833  -3.7494  -3.6865  -3.0310  -1.9543  -1.9540  -1.8775  -1.8524
    -1.8521  -1.8139  -1.7620  -1.0860   0.1528   0.1635   0.2230   0.2235
     0.2634   0.2779   0.2781   0.7446   1.0858   1.1240   1.1712   1.1713
     1.4267   1.4269   1.4422   1.7277   2.1126   2.1761   2.1763   2.2841
     2.3931   2.3931   2.4162   3.6565   3.8266   3.8654   3.9117   3.9119
     3.9288   3.9351   4.2682   4.2686   4.3565   5.1121   5.4265   5.4584
     5.4586   5.5254   5.5255   5.5395   5.5566   5.6259   5.9846   5.9847
     6.0417   6.1576   6.3257   6.3258   6.4008   6.8581   6.8582   6.9648
     7.0575   7.0575   7.0611   7.1202   7.1779   7.1779   7.1829   7.2426
     7.2748   7.2753   7.2754   7.2956   7.3147   7.3149   7.6806   7.8003
     7.8007   7.8387   7.8952   8.0916   8.1657   8.1660   8.6165   8.6168
     9.1386   9.4832   9.4899   9.4997   9.6326   9.6329   9.7528   9.7603
     9.8005   9.8009   9.8304   9.8307   9.9399  10.0258  10.5510  10.6091
    10.6092  10.7088  10.8714  10.8714  11.8552  13.3411  13.7252  13.7254
    17.1530  17.1768  18.0011  18.3842  19.2824  19.3947  19.4092  19.4442
    19.4448  19.5151  19.5801  19.5805  19.6728  19.6963  19.6969  19.7186
    19.8518  20.0295  20.0298  20.0425  20.0498  20.0624

     occupation numbers 
     1.0000   1.0000   1.0000   1.0000   1.0000   1.0000   1.0000   1.0000
     1.0000   1.0000   1.0000   1.0000   1.0000   1.0000   1.0000   1.0000
     1.0000   1.0000   1.0000   1.0000   1.0000   1.0000   1.0000   1.0000
     1.0000   1.0000   1.0000   1.0000   1.0000   1.0000   1.0000   1.0000
     1.0000   1.0000   1.0000   1.0000   1.0000   1.0000   1.0000   1.0000
     1.0000   1.0000   1.0000   1.0000   1.0000   1.0000   1.0000   1.0000
     1.0000   1.0000   1.0000   1.0000   1.0000   1.0000   1.0000   1.0000
     1.0000   1.0000   1.0000   1.0000   1.0000   1.0000   1.0000   1.0000
     1.0000   1.0000   1.0000   1.0000   1.0000   1.0000   1.0000   1.0000
     1.0000   1.0000   1.0000   1.0000   1.0000   1.0000   1.0000   1.0000
     1.0000   1.0000   1.0000   1.0000   1.0000   1.0000   1.0000   1.0000
     1.0000   1.0000   1.0000   1.0000   1.0000   1.0000   1.0000   1.0000
     1.0000   1.0000   1.0000   1.0000   1.0000   1.0000   1.0000   1.0000
     1.0000   1.0000   1.0000   1.0000   1.0000   1.0000   1.0000   1.0000
     1.0000   1.0000   1.0000   1.0000   1.0000   1.0000   1.0000   1.0000
     1.0000   1.0000   1.0000   1.0000   1.0000   0.0000   0.0000   0.0000
     0.0000   0.0000   0.0000   0.0000   0.0000   0.0000   0.0000   0.0000
     0.0000   0.0000   0.0000   0.0000   0.0000   0.0000   0.0000   0.0000
     0.0000   0.0000   0.0000   0.0000   0.0000   0.0000

          k = 0.0000-0.5000-0.5000 ( 24324 PWs)   bands (ev):

    -7.6016  -7.6015  -7.5650  -7.3823  -5.4902  -5.4381  -5.4381  -5.3640
    -5.3461  -5.3458  -5.3218  -4.8762  -3.3107  -3.2675  -3.2638  -3.2637
    -3.1879  -3.1623  -3.1622  -2.7477  -2.1556  -2.1556  -2.1262  -2.0542
    -2.0540  -2.0307  -2.0138  -1.2768  -0.4207  -0.3973  -0.3972  -0.0787
     0.3559   0.3872   0.3876   0.4551   0.5171   0.6965   0.6969   0.7191
     0.9344   0.9345   1.1781   2.2465   3.3507   3.3510   3.4297   3.4394
     3.4850   3.4919   3.4920   3.5212   3.5791   3.5879   3.5882   3.6228
     3.6330   3.6331   3.6392   3.6399   4.1081   4.2231   4.2231   5.3735
     5.6200   5.6202   5.7497   5.7979   5.9030   5.9033   6.0030   6.1534
     6.1548   6.1777   6.3339   6.3340   6.4437   6.6162   6.6164   6.6618
     6.8211   6.8215   6.9077   6.9274   7.0679   7.1048   7.1049   7.2771
     7.3903   7.4873   7.4875   7.8578   8.0368   8.0838   8.0839   8.1421
     8.1618   8.2274   8.2277   8.3590   8.5637   8.7864   8.7866   8.9233
     9.0045   9.0993   9.1033   9.1037   9.1688   9.2305   9.3284   9.3285
     9.3511   9.4176   9.4721   9.4724   9.5220   9.5426   9.5428   9.5573
    11.1071  11.1072  11.3175  11.7857  11.8829  13.1547  13.8764  13.8767
    18.5450  18.5451  18.6009  18.9942  19.1074  19.1075  19.2354  19.2396
    19.2719  19.2724  19.3658  19.3740  19.5054  19.5873  19.6862  19.7044
    19.7046  19.8160  19.8163  19.8616  20.1759  20.1763

     occupation numbers 
     1.0000   1.0000   1.0000   1.0000   1.0000   1.0000   1.0000   1.0000
     1.0000   1.0000   1.0000   1.0000   1.0000   1.0000   1.0000   1.0000
     1.0000   1.0000   1.0000   1.0000   1.0000   1.0000   1.0000   1.0000
     1.0000   1.0000   1.0000   1.0000   1.0000   1.0000   1.0000   1.0000
     1.0000   1.0000   1.0000   1.0000   1.0000   1.0000   1.0000   1.0000
     1.0000   1.0000   1.0000   1.0000   1.0000   1.0000   1.0000   1.0000
     1.0000   1.0000   1.0000   1.0000   1.0000   1.0000   1.0000   1.0000
     1.0000   1.0000   1.0000   1.0000   1.0000   1.0000   1.0000   1.0000
     1.0000   1.0000   1.0000   1.0000   1.0000   1.0000   1.0000   1.0000
     1.0000   1.0000   1.0000   1.0000   1.0000   1.0000   1.0000   1.0000
     1.0000   1.0000   1.0000   1.0000   1.0000   1.0000   1.0000   1.0000
     1.0000   1.0000   1.0000   1.0000   1.0000   1.0000   1.0000   1.0000
     1.0000   1.0000   1.0000   1.0000   1.0000   1.0000   1.0000   1.0000
     1.0000   1.0000   1.0000   1.0000   1.0000   1.0000   1.0000   1.0000
     1.0000   1.0000   1.0000   1.0000   1.0000   1.0000   1.0000   1.0000
     1.0000   1.0000   1.0000   1.0000   1.0000   0.0000   0.0000   0.0000
     0.0000   0.0000   0.0000   0.0000   0.0000   0.0000   0.0000   0.0000
     0.0000   0.0000   0.0000   0.0000   0.0000   0.0000   0.0000   0.0000
     0.0000   0.0000   0.0000   0.0000   0.0000   0.0000

          k =-0.5000-0.5000-0.5000 ( 24464 PWs)   bands (ev):

    -7.0953  -7.0953  -7.0953  -6.9847  -6.9847  -6.9843  -6.9823  -6.5507
    -3.0636  -3.0636  -3.0636  -2.8779  -2.8779  -2.7916  -2.7916  -2.7911
    -2.7848  -2.7848  -2.7841  -2.7533  -2.7533  -2.7243  -2.7206  -2.7205
    -2.7205  -2.7156  -2.7155  -2.7155  -2.6444  -2.6444  -2.6443  -0.3932
     1.7558   1.7769   1.7769   1.7769   1.7969   1.7969   1.7975   1.8634
     1.8634   1.8636   1.8712   1.8712   1.9506   1.9513   1.9513   1.9995
     1.9995   2.0097   2.0099   2.0099   2.5651   2.5653   2.5653   4.4540
     5.6989   5.6989   5.6991   5.7541   5.7541   5.8376   5.8376   5.8378
     5.9015   5.9020   5.9020   5.9116   5.9971   6.0349   6.0349   6.0350
     6.0634   6.0634   6.0635   6.1081   6.1082   6.1082   6.1225   6.1274
     6.1274   6.1395   6.1398   6.1398   6.8302   6.8302   6.8309   7.5066
     7.5066   7.5068   7.6239   7.6239   7.8024   7.8414   7.8416   7.8416
     7.8516   7.8516   7.8518   7.8634   7.8854   7.8854   7.8858   7.9443
     7.9443   8.0182   8.0184   8.0184   9.3947   9.3947   9.3950  10.3262
    10.6838  10.6838  10.8137  10.8137  10.8139  10.8923  10.8923  10.8924
    10.9737  10.9737  10.9902  10.9905  10.9905  13.8467  13.8471  13.8471
    18.7434  18.7434  18.7438  18.8611  18.8616  18.8616  18.8720  18.8720
    18.9937  18.9937  18.9942  19.0430  19.0430  19.0437  19.0443  19.1470
    19.1478  19.1478  19.3421  19.3421  19.3429  19.6515

     occupation numbers 
     1.0000   1.0000   1.0000   1.0000   1.0000   1.0000   1.0000   1.0000
     1.0000   1.0000   1.0000   1.0000   1.0000   1.0000   1.0000   1.0000
     1.0000   1.0000   1.0000   1.0000   1.0000   1.0000   1.0000   1.0000
     1.0000   1.0000   1.0000   1.0000   1.0000   1.0000   1.0000   1.0000
     1.0000   1.0000   1.0000   1.0000   1.0000   1.0000   1.0000   1.0000
     1.0000   1.0000   1.0000   1.0000   1.0000   1.0000   1.0000   1.0000
     1.0000   1.0000   1.0000   1.0000   1.0000   1.0000   1.0000   1.0000
     1.0000   1.0000   1.0000   1.0000   1.0000   1.0000   1.0000   1.0000
     1.0000   1.0000   1.0000   1.0000   1.0000   1.0000   1.0000   1.0000
     1.0000   1.0000   1.0000   1.0000   1.0000   1.0000   1.0000   1.0000
     1.0000   1.0000   1.0000   1.0000   1.0000   1.0000   1.0000   1.0000
     1.0000   1.0000   1.0000   1.0000   1.0000   1.0000   1.0000   1.0000
     1.0000   1.0000   1.0000   1.0000   1.0000   1.0000   1.0000   1.0000
     1.0000   1.0000   1.0000   1.0000   1.0000   1.0000   1.0000   1.0000
     1.0000   1.0000   1.0000   1.0000   1.0000   1.0000   1.0000   1.0000
     1.0000   1.0000   1.0000   1.0000   1.0000   0.0000   0.0000   0.0000
     0.0000   0.0000   0.0000   0.0000   0.0000   0.0000   0.0000   0.0000
     0.0000   0.0000   0.0000   0.0000   0.0000   0.0000   0.0000   0.0000
     0.0000   0.0000   0.0000   0.0000   0.0000   0.0000

     the Fermi energy is    12.5558 ev

!    total energy              =   -1198.06036557 Ry
     total all-electron energy =     -4837.198484 Ry
     estimated scf accuracy    <       0.00000001 Ry
     smearing contrib. (-TS)   =      -0.00000000 Ry
     internal energy E=F+TS    =   -1198.06036557 Ry

     The total energy is F=E-TS. E is the sum of the following terms:
     one-electron contribution =     239.54089653 Ry
     hartree contribution      =      70.00098040 Ry
     xc contribution           =    -304.50908341 Ry
     ewald contribution        =    -790.97712177 Ry
     one-center paw contrib.   =    -412.11603732 Ry
      -> PAW hartree energy AE =       8.97371562 Ry
      -> PAW hartree energy PS =      -8.96545502 Ry
      -> PAW xc energy AE      =     -11.10877249 Ry
      -> PAW xc energy PS      =       4.55982975 Ry
      -> total E_H with PAW    =      70.00924100 Ry
      -> total E_XC with PAW   =    -311.05802615 Ry

     convergence has been achieved in   1 iterations


     -----------------------------------------------
     Non-local corr. energy    =       2.16538430 Ry
     -----------------------------------------------


     Forces acting on atoms (cartesian axes, Ry/au):

     atom    1 type  1   force =    -0.00000126    0.00000126    0.00000318
     atom    2 type  1   force =    -0.00000126   -0.00000318   -0.00000126
     atom    3 type  1   force =    -0.00000271    0.00000382   -0.00000382
     atom    4 type  1   force =     0.00000318    0.00000126   -0.00000126
     atom    5 type  1   force =    -0.00000382    0.00000271   -0.00000382
     atom    6 type  1   force =    -0.00000382    0.00000382   -0.00000271
     atom    7 type  1   force =     0.00000131   -0.00000131    0.00000131
     atom    8 type  1   force =    -0.00007648    0.00006777    0.00009686
     atom    9 type  1   force =    -0.00032698   -0.00009395   -0.00011765
     atom   10 type  1   force =     0.00007393   -0.00007393   -0.00021460
     atom   11 type  1   force =    -0.00008816    0.00008816    0.00006281
     atom   12 type  1   force =     0.00013396   -0.00013396    0.00027848
     atom   13 type  1   force =     0.00017706   -0.00017706   -0.00013508
     atom   14 type  1   force =    -0.00006777    0.00007648    0.00009686
     atom   15 type  1   force =     0.00009395    0.00032698   -0.00011765
     atom   16 type  1   force =    -0.00013203   -0.00002896    0.00002896
     atom   17 type  1   force =     0.00020199    0.00000738    0.00002684
     atom   18 type  1   force =     0.00020199   -0.00002684   -0.00000738
     atom   19 type  1   force =    -0.00018423    0.00002492   -0.00002492
     atom   20 type  1   force =    -0.00018346   -0.00041826    0.00041826
     atom   21 type  1   force =     0.00017057   -0.00037124   -0.00042282
     atom   22 type  1   force =     0.00017057    0.00042282    0.00037124
     atom   23 type  1   force =    -0.00019308    0.00034896   -0.00034896
     atom   24 type  1   force =     0.00007393    0.00021460    0.00007393
     atom   25 type  1   force =    -0.00007648   -0.00009686   -0.00006777
     atom   26 type  1   force =    -0.00008816   -0.00006281   -0.00008816
     atom   27 type  1   force =    -0.00032698    0.00011765    0.00009395
     atom   28 type  1   force =    -0.00006777   -0.00009686   -0.00007648
     atom   29 type  1   force =     0.00013396   -0.00027848    0.00013396
     atom   30 type  1   force =     0.00009395    0.00011765   -0.00032698
     atom   31 type  1   force =     0.00017706    0.00013508    0.00017706
     atom   32 type  1   force =     0.00002896    0.00013203    0.00002896
     atom   33 type  1   force =    -0.00000738   -0.00020199    0.00002684
     atom   34 type  1   force =     0.00041826    0.00018346    0.00041826
     atom   35 type  1   force =     0.00037124   -0.00017057   -0.00042282
     atom   36 type  1   force =     0.00002684   -0.00020199   -0.00000738
     atom   37 type  1   force =    -0.00002492    0.00018423   -0.00002492
     atom   38 type  1   force =    -0.00042282   -0.00017057    0.00037124
     atom   39 type  1   force =    -0.00034896    0.00019308   -0.00034896
     atom   40 type  1   force =     0.00009686    0.00006777   -0.00007648
     atom   41 type  1   force =     0.00027848   -0.00013396    0.00013396
     atom   42 type  1   force =    -0.00021460   -0.00007393    0.00007393
     atom   43 type  1   force =     0.00009686    0.00007648   -0.00006777
     atom   44 type  1   force =    -0.00011765   -0.00009395   -0.00032698
     atom   45 type  1   force =    -0.00013508   -0.00017706    0.00017706
     atom   46 type  1   force =     0.00006281    0.00008816   -0.00008816
     atom   47 type  1   force =    -0.00011765    0.00032698    0.00009395
     atom   48 type  1   force =     0.00002896   -0.00002896   -0.00013203
     atom   49 type  1   force =     0.00041826   -0.00041826   -0.00018346
     atom   50 type  1   force =    -0.00000738   -0.00002684    0.00020199
     atom   51 type  1   force =     0.00037124    0.00042282    0.00017057
     atom   52 type  1   force =     0.00002684    0.00000738    0.00020199
     atom   53 type  1   force =    -0.00042282   -0.00037124    0.00017057
     atom   54 type  1   force =    -0.00002492    0.00002492   -0.00018423
     atom   55 type  1   force =    -0.00034896    0.00034896   -0.00019308
     atom   56 type  1   force =     0.00000479   -0.00000479    0.00000479
     atom   57 type  1   force =     0.00006890   -0.00006890    0.00006456
     atom   58 type  1   force =     0.00006890   -0.00006456    0.00006890
     atom   59 type  1   force =     0.00030317    0.00013367   -0.00013367
     atom   60 type  1   force =     0.00006456   -0.00006890    0.00006890
     atom   61 type  1   force =    -0.00013367   -0.00030317   -0.00013367
     atom   62 type  1   force =    -0.00013367    0.00013367    0.00030317
     atom   63 type  1   force =    -0.00015840    0.00015840   -0.00015840
     The non-local contrib.  to forces
     atom    1 type  1   force =     0.00010147   -0.00010147    0.00000166
     atom    2 type  1   force =     0.00010147   -0.00000166    0.00010147
     atom    3 type  1   force =     0.00008831   -0.00005531    0.00005531
     atom    4 type  1   force =     0.00000166   -0.00010147    0.00010147
     atom    5 type  1   force =     0.00005531   -0.00008831    0.00005531
     atom    6 type  1   force =     0.00005531   -0.00005531    0.00008831
     atom    7 type  1   force =     0.00009706   -0.00009706    0.00009706
     atom    8 type  1   force =    -0.00415309    0.02692165    0.00425205
     atom    9 type  1   force =     0.05356258    0.03779021    0.03765238
     atom   10 type  1   force =     0.02376231   -0.02376231   -0.02370770
     atom   11 type  1   force =    -0.00416534    0.00416534    0.02689175
     atom   12 type  1   force =    -0.03772615    0.03772615   -0.05355573
     atom   13 type  1   force =    -0.01103768    0.01103768    0.01109244
     atom   14 type  1   force =    -0.02692165    0.00415309    0.00425205
     atom   15 type  1   force =    -0.03779021   -0.05356258    0.03765238
     atom   16 type  1   force =     0.05822281    0.01178097   -0.01178097
     atom   17 type  1   force =    -0.05780171    0.01169676    0.01162946
     atom   18 type  1   force =    -0.05780171   -0.01162946   -0.01169676
     atom   19 type  1   force =     0.05784024   -0.01171826    0.01171826
     atom   20 type  1   force =    -0.00513693    0.00595844   -0.00595844
     atom   21 type  1   force =     0.00523811    0.00604700    0.00591497
     atom   22 type  1   force =     0.00523811   -0.00591497   -0.00604700
     atom   23 type  1   force =    -0.00516117   -0.00591580    0.00591580
     atom   24 type  1   force =     0.02376231    0.02370770    0.02376231
     atom   25 type  1   force =    -0.00415309   -0.00425205   -0.02692165
     atom   26 type  1   force =    -0.00416534   -0.02689175   -0.00416534
     atom   27 type  1   force =     0.05356258   -0.03765238   -0.03779021
     atom   28 type  1   force =    -0.02692165   -0.00425205   -0.00415309
     atom   29 type  1   force =    -0.03772615    0.05355573   -0.03772615
     atom   30 type  1   force =    -0.03779021   -0.03765238    0.05356258
     atom   31 type  1   force =    -0.01103768   -0.01109244   -0.01103768
     atom   32 type  1   force =    -0.01178097   -0.05822281   -0.01178097
     atom   33 type  1   force =    -0.01169676    0.05780171    0.01162946
     atom   34 type  1   force =    -0.00595844    0.00513693   -0.00595844
     atom   35 type  1   force =    -0.00604700   -0.00523811    0.00591497
     atom   36 type  1   force =     0.01162946    0.05780171   -0.01169676
     atom   37 type  1   force =     0.01171826   -0.05784024    0.01171826
     atom   38 type  1   force =     0.00591497   -0.00523811   -0.00604700
     atom   39 type  1   force =     0.00591580    0.00516117    0.00591580
     atom   40 type  1   force =     0.00425205    0.02692165   -0.00415309
     atom   41 type  1   force =    -0.05355573    0.03772615   -0.03772615
     atom   42 type  1   force =    -0.02370770   -0.02376231    0.02376231
     atom   43 type  1   force =     0.00425205    0.00415309   -0.02692165
     atom   44 type  1   force =     0.03765238    0.03779021    0.05356258
     atom   45 type  1   force =     0.01109244    0.01103768   -0.01103768
     atom   46 type  1   force =     0.02689175    0.00416534   -0.00416534
     atom   47 type  1   force =     0.03765238   -0.05356258   -0.03779021
     atom   48 type  1   force =    -0.01178097    0.01178097    0.05822281
     atom   49 type  1   force =    -0.00595844    0.00595844   -0.00513693
     atom   50 type  1   force =    -0.01169676   -0.01162946   -0.05780171
     atom   51 type  1   force =    -0.00604700   -0.00591497    0.00523811
     atom   52 type  1   force =     0.01162946    0.01169676   -0.05780171
     atom   53 type  1   force =     0.00591497    0.00604700    0.00523811
     atom   54 type  1   force =     0.01171826   -0.01171826    0.05784024
     atom   55 type  1   force =     0.00591580   -0.00591580   -0.00516117
     atom   56 type  1   force =    -0.02377858    0.02377858   -0.02377858
     atom   57 type  1   force =     0.00432817   -0.00432817    0.02694605
     atom   58 type  1   force =     0.00432817   -0.02694605    0.00432817
     atom   59 type  1   force =    -0.05386888   -0.03793805    0.03793805
     atom   60 type  1   force =     0.02694605   -0.00432817    0.00432817
     atom   61 type  1   force =     0.03793805    0.05386888    0.03793805
     atom   62 type  1   force =     0.03793805   -0.03793805   -0.05386888
     atom   63 type  1   force =     0.01106018   -0.01106018    0.01106018
     The ionic contribution  to forces
     atom    1 type  1   force =    -0.00037198    0.00037175   -0.00085660
     atom    2 type  1   force =    -0.00037198    0.00085685   -0.00037198
     atom    3 type  1   force =    -0.00095343    0.00032997   -0.00032970
     atom    4 type  1   force =    -0.00085660    0.00037175   -0.00037198
     atom    5 type  1   force =    -0.00032970    0.00095320   -0.00032970
     atom    6 type  1   force =    -0.00032970    0.00032997   -0.00095343
     atom    7 type  1   force =    -0.00038036    0.00038065   -0.00038036
     atom    8 type  1   force =     0.27135724    0.63674104   -0.27173232
     atom    9 type  1   force =     0.30960552    0.23586048    0.23491841
     atom   10 type  1   force =     2.24890394   -2.24890403   -2.24918671
     atom   11 type  1   force =     0.27125677   -0.27125689    0.63844687
     atom   12 type  1   force =    -0.23550350    0.23550338   -0.30767996
     atom   13 type  1   force =    -0.14770204    0.14770193    0.14655295
     atom   14 type  1   force =    -0.63674115   -0.27135735   -0.27173232
     atom   15 type  1   force =    -0.23586059   -0.30960563    0.23491841
     atom   16 type  1   force =    -0.32423448    0.83117757   -0.83117779
     atom   17 type  1   force =     0.32492373    0.83021106    0.83044264
     atom   18 type  1   force =     0.32492374   -0.83044239   -0.83021133
     atom   19 type  1   force =    -0.32542488   -0.82994241    0.82994270
     atom   20 type  1   force =     0.10075266    0.26608733   -0.26608755
     atom   21 type  1   force =    -0.10218044    0.26577225    0.26773304
     atom   22 type  1   force =    -0.10218044   -0.26773276   -0.26577248
     atom   23 type  1   force =     0.10236741   -0.26688652    0.26688681
     atom   24 type  1   force =     2.24890395    2.24918647    2.24890395
     atom   25 type  1   force =     0.27135724    0.27173206   -0.63674115
     atom   26 type  1   force =     0.27125678   -0.63844653    0.27125678
     atom   27 type  1   force =     0.30960552   -0.23491804   -0.23586059
     atom   28 type  1   force =    -0.63674115    0.27173206    0.27135724
     atom   29 type  1   force =    -0.23550349    0.30767971   -0.23550349
     atom   30 type  1   force =    -0.23586059   -0.23491804    0.30960552
     atom   31 type  1   force =    -0.14770205   -0.14655259   -0.14770205
     atom   32 type  1   force =    -0.83117779    0.32423425   -0.83117779
     atom   33 type  1   force =    -0.83021129   -0.32492396    0.83044264
     atom   34 type  1   force =    -0.26608755   -0.10075239   -0.26608755
     atom   35 type  1   force =    -0.26577248    0.10218071    0.26773304
     atom   36 type  1   force =     0.83044264   -0.32492396   -0.83021129
     atom   37 type  1   force =     0.82994266    0.32542463    0.82994266
     atom   38 type  1   force =     0.26773304    0.10218071   -0.26577248
     atom   39 type  1   force =     0.26688680   -0.10236713    0.26688680
     atom   40 type  1   force =    -0.27173232    0.63674104    0.27135724
     atom   41 type  1   force =    -0.30767996    0.23550338   -0.23550350
     atom   42 type  1   force =    -2.24918671   -2.24890403    2.24890394
     atom   43 type  1   force =    -0.27173232   -0.27135735   -0.63674115
     atom   44 type  1   force =     0.23491841    0.23586048    0.30960552
     atom   45 type  1   force =     0.14655295    0.14770193   -0.14770204
     atom   46 type  1   force =     0.63844687   -0.27125689    0.27125677
     atom   47 type  1   force =     0.23491841   -0.30960563   -0.23586059
     atom   48 type  1   force =    -0.83117779    0.83117757   -0.32423448
     atom   49 type  1   force =    -0.26608755    0.26608733    0.10075266
     atom   50 type  1   force =    -0.83021133   -0.83044239    0.32492374
     atom   51 type  1   force =    -0.26577248   -0.26773276   -0.10218044
     atom   52 type  1   force =     0.83044264    0.83021106    0.32492373
     atom   53 type  1   force =     0.26773304    0.26577225   -0.10218044
     atom   54 type  1   force =     0.82994270   -0.82994241   -0.32542488
     atom   55 type  1   force =     0.26688681   -0.26688652    0.10236741
     atom   56 type  1   force =    -2.24790539    2.24790514   -2.24790539
     atom   57 type  1   force =    -0.27096028    0.27096002    0.63755799
     atom   58 type  1   force =    -0.27096029   -0.63755765   -0.27096029
     atom   59 type  1   force =    -0.30997703   -0.23568732    0.23568768
     atom   60 type  1   force =     0.63755799    0.27096002   -0.27096028
     atom   61 type  1   force =     0.23568768    0.30997677    0.23568768
     atom   62 type  1   force =     0.23568768   -0.23568732   -0.30997703
     atom   63 type  1   force =     0.14686626   -0.14686589    0.14686626
     The local contribution  to forces
     atom    1 type  1   force =     0.00019629   -0.00019635    0.00071425
     atom    2 type  1   force =     0.00019626   -0.00071408    0.00019620
     atom    3 type  1   force =     0.00076877   -0.00014511    0.00014532
     atom    4 type  1   force =     0.00071434   -0.00019632    0.00019620
     atom    5 type  1   force =     0.00014533   -0.00076884    0.00014531
     atom    6 type  1   force =     0.00014537   -0.00014513    0.00076869
     atom    7 type  1   force =     0.00016209   -0.00016185    0.00016205
     atom    8 type  1   force =    -0.26728673   -0.66323538    0.26746704
     atom    9 type  1   force =    -0.36265515   -0.27320958   -0.27241575
     atom   10 type  1   force =    -2.27237189    2.27237182    2.27272503
     atom   11 type  1   force =    -0.26720081    0.26720074   -0.66494948
     atom   12 type  1   force =     0.27277617   -0.27277624    0.36107568
     atom   13 type  1   force =     0.15873524   -0.15873531   -0.15760555
     atom   14 type  1   force =     0.66323531    0.26728666    0.26746704
     atom   15 type  1   force =     0.27320950    0.36265508   -0.27241575
     atom   16 type  1   force =     0.26678079   -0.84294463    0.84294453
     atom   17 type  1   force =    -0.26764815   -0.84194556   -0.84211859
     atom   18 type  1   force =    -0.26764816    0.84211877    0.84194549
     atom   19 type  1   force =     0.26780592    0.84152948   -0.84152931
     atom   20 type  1   force =    -0.09595369   -0.27240548    0.27240537
     atom   21 type  1   force =     0.09702957   -0.27223081   -0.27380482
     atom   22 type  1   force =     0.09702957    0.27380500    0.27223069
     atom   23 type  1   force =    -0.09758047    0.27294472   -0.27294453
     atom   24 type  1   force =    -2.27237200   -2.27272518   -2.27237200
     atom   25 type  1   force =    -0.26728669   -0.26746716    0.66323526
     atom   26 type  1   force =    -0.26720080    0.66494970   -0.26720085
     atom   27 type  1   force =    -0.36265515    0.27241591    0.27320945
     atom   28 type  1   force =     0.66323531   -0.26746716   -0.26728674
     atom   29 type  1   force =     0.27277617   -0.36107575    0.27277615
     atom   30 type  1   force =     0.27320953    0.27241594   -0.36265520
     atom   31 type  1   force =     0.15873524    0.15760573    0.15873518
     atom   32 type  1   force =     0.84294456   -0.26678085    0.84294453
     atom   33 type  1   force =     0.84194549    0.26764809   -0.84211860
     atom   34 type  1   force =     0.27240542    0.09595393    0.27240537
     atom   35 type  1   force =     0.27223075   -0.09702933   -0.27380481
     atom   36 type  1   force =    -0.84211852    0.26764807    0.84194542
     atom   37 type  1   force =    -0.84152923   -0.26780597   -0.84152926
     atom   38 type  1   force =    -0.27380477   -0.09702934    0.27223070
     atom   39 type  1   force =    -0.27294448    0.09758070   -0.27294453
     atom   40 type  1   force =     0.26746710   -0.66323538   -0.26728674
     atom   41 type  1   force =     0.36107569   -0.27277624    0.27277615
     atom   42 type  1   force =     2.27272510    2.27237194   -2.27237200
     atom   43 type  1   force =     0.26746709    0.26728663    0.66323525
     atom   44 type  1   force =    -0.27241570   -0.27320959   -0.36265518
     atom   45 type  1   force =    -0.15760549   -0.15873531    0.15873519
     atom   46 type  1   force =    -0.66494945    0.26720072   -0.26720084
     atom   47 type  1   force =    -0.27241568    0.36265507    0.27320942
     atom   48 type  1   force =     0.84294456   -0.84294463    0.26678072
     atom   49 type  1   force =     0.27240542   -0.27240548   -0.09595373
     atom   50 type  1   force =     0.84194554    0.84211880   -0.26764818
     atom   51 type  1   force =     0.27223074    0.27380499    0.09702953
     atom   52 type  1   force =    -0.84211853   -0.84194555   -0.26764816
     atom   53 type  1   force =    -0.27380477   -0.27223081    0.09702953
     atom   54 type  1   force =    -0.84152926    0.84152946    0.26780585
     atom   55 type  1   force =    -0.27294449    0.27294472   -0.09758050
     atom   56 type  1   force =     2.27131057   -2.27131064    2.27131057
     atom   57 type  1   force =     0.26690899   -0.26690905   -0.66411339
     atom   58 type  1   force =     0.26690900    0.66411355    0.26690895
     atom   59 type  1   force =     0.36308175    0.27300654   -0.27300636
     atom   60 type  1   force =    -0.66411329   -0.26690906    0.26690895
     atom   61 type  1   force =    -0.27300631   -0.36308181   -0.27300634
     atom   62 type  1   force =    -0.27300631    0.27300652    0.36308170
     atom   63 type  1   force =    -0.15792421    0.15792444   -0.15792425
     The core correction contribution to forces
     atom    1 type  1   force =     0.00010586   -0.00010586    0.00011504
     atom    2 type  1   force =     0.00010586   -0.00011506    0.00010587
     atom    3 type  1   force =     0.00011931   -0.00010592    0.00010591
     atom    4 type  1   force =     0.00011504   -0.00010586    0.00010587
     atom    5 type  1   force =     0.00010590   -0.00011931    0.00010591
     atom    6 type  1   force =     0.00010590   -0.00010592    0.00011932
     atom    7 type  1   force =     0.00011010   -0.00011012    0.00011011
     atom    8 type  1   force =     0.00005251   -0.00035558    0.00012797
     atom    9 type  1   force =    -0.00080313   -0.00052716   -0.00027971
     atom   10 type  1   force =    -0.00020168    0.00020168   -0.00000845
     atom   11 type  1   force =     0.00004425   -0.00004425   -0.00035713
     atom   12 type  1   force =     0.00055354   -0.00055354    0.00044262
     atom   13 type  1   force =     0.00015962   -0.00015962   -0.00016937
     atom   14 type  1   force =     0.00035558   -0.00005251    0.00012797
     atom   15 type  1   force =     0.00052716    0.00080313   -0.00027971
     atom   16 type  1   force =    -0.00084005   -0.00003866    0.00003867
     atom   17 type  1   force =     0.00077023    0.00002241    0.00007308
     atom   18 type  1   force =     0.00077023   -0.00007309   -0.00002240
     atom   19 type  1   force =    -0.00039292    0.00016740   -0.00016741
     atom   20 type  1   force =     0.00012316   -0.00003789    0.00003790
     atom   21 type  1   force =     0.00006214    0.00005215   -0.00023493
     atom   22 type  1   force =     0.00006214    0.00023492   -0.00005214
     atom   23 type  1   force =     0.00017388    0.00018146   -0.00018147
     atom   24 type  1   force =    -0.00020169    0.00000845   -0.00020168
     atom   25 type  1   force =     0.00005251   -0.00012796    0.00035559
     atom   26 type  1   force =     0.00004425    0.00035712    0.00004426
     atom   27 type  1   force =    -0.00080313    0.00027970    0.00052717
     atom   28 type  1   force =     0.00035558   -0.00012796    0.00005252
     atom   29 type  1   force =     0.00055354   -0.00044261    0.00055355
     atom   30 type  1   force =     0.00052717    0.00027970   -0.00080312
     atom   31 type  1   force =     0.00015962    0.00016936    0.00015962
     atom   32 type  1   force =     0.00003866    0.00084005    0.00003867
     atom   33 type  1   force =    -0.00002241   -0.00077023    0.00007308
     atom   34 type  1   force =     0.00003789   -0.00012318    0.00003790
     atom   35 type  1   force =    -0.00005215   -0.00006216   -0.00023493
     atom   36 type  1   force =     0.00007307   -0.00077023   -0.00002240
     atom   37 type  1   force =    -0.00016741    0.00039292   -0.00016741
     atom   38 type  1   force =    -0.00023494   -0.00006216   -0.00005214
     atom   39 type  1   force =    -0.00018147   -0.00017390   -0.00018147
     atom   40 type  1   force =     0.00012796   -0.00035558    0.00005252
     atom   41 type  1   force =     0.00044261   -0.00055354    0.00055355
     atom   42 type  1   force =    -0.00000846    0.00020168   -0.00020168
     atom   43 type  1   force =     0.00012796   -0.00005251    0.00035559
     atom   44 type  1   force =    -0.00027972   -0.00052716   -0.00080312
     atom   45 type  1   force =    -0.00016937   -0.00015962    0.00015962
     atom   46 type  1   force =    -0.00035714   -0.00004425    0.00004426
     atom   47 type  1   force =    -0.00027972    0.00080313    0.00052717
     atom   48 type  1   force =     0.00003866   -0.00003866   -0.00084004
     atom   49 type  1   force =     0.00003789   -0.00003789    0.00012317
     atom   50 type  1   force =    -0.00002241   -0.00007309    0.00077024
     atom   51 type  1   force =    -0.00005215    0.00023492    0.00006215
     atom   52 type  1   force =     0.00007307    0.00002241    0.00077024
     atom   53 type  1   force =    -0.00023494    0.00005215    0.00006215
     atom   54 type  1   force =    -0.00016742    0.00016740   -0.00039291
     atom   55 type  1   force =    -0.00018148    0.00018146    0.00017389
     atom   56 type  1   force =     0.00041206   -0.00041206    0.00041207
     atom   57 type  1   force =    -0.00019076    0.00019076   -0.00036003
     atom   58 type  1   force =    -0.00019076    0.00036002   -0.00019076
     atom   59 type  1   force =     0.00107062    0.00076007   -0.00076008
     atom   60 type  1   force =    -0.00036004    0.00019076   -0.00019076
     atom   61 type  1   force =    -0.00076009   -0.00107062   -0.00076008
     atom   62 type  1   force =    -0.00076009    0.00076007    0.00107063
     atom   63 type  1   force =    -0.00015314    0.00015312   -0.00015313
     The Hubbard contrib.    to forces
     atom    1 type  1   force =     0.00000000    0.00000000    0.00000000
     atom    2 type  1   force =     0.00000000    0.00000000    0.00000000
     atom    3 type  1   force =     0.00000000    0.00000000    0.00000000
     atom    4 type  1   force =     0.00000000    0.00000000    0.00000000
     atom    5 type  1   force =     0.00000000    0.00000000    0.00000000
     atom    6 type  1   force =     0.00000000    0.00000000    0.00000000
     atom    7 type  1   force =     0.00000000    0.00000000    0.00000000
     atom    8 type  1   force =     0.00000000    0.00000000    0.00000000
     atom    9 type  1   force =     0.00000000    0.00000000    0.00000000
     atom   10 type  1   force =     0.00000000    0.00000000    0.00000000
     atom   11 type  1   force =     0.00000000    0.00000000    0.00000000
     atom   12 type  1   force =     0.00000000    0.00000000    0.00000000
     atom   13 type  1   force =     0.00000000    0.00000000    0.00000000
     atom   14 type  1   force =     0.00000000    0.00000000    0.00000000
     atom   15 type  1   force =     0.00000000    0.00000000    0.00000000
     atom   16 type  1   force =     0.00000000    0.00000000    0.00000000
     atom   17 type  1   force =     0.00000000    0.00000000    0.00000000
     atom   18 type  1   force =     0.00000000    0.00000000    0.00000000
     atom   19 type  1   force =     0.00000000    0.00000000    0.00000000
     atom   20 type  1   force =     0.00000000    0.00000000    0.00000000
     atom   21 type  1   force =     0.00000000    0.00000000    0.00000000
     atom   22 type  1   force =     0.00000000    0.00000000    0.00000000
     atom   23 type  1   force =     0.00000000    0.00000000    0.00000000
     atom   24 type  1   force =     0.00000000    0.00000000    0.00000000
     atom   25 type  1   force =     0.00000000    0.00000000    0.00000000
     atom   26 type  1   force =     0.00000000    0.00000000    0.00000000
     atom   27 type  1   force =     0.00000000    0.00000000    0.00000000
     atom   28 type  1   force =     0.00000000    0.00000000    0.00000000
     atom   29 type  1   force =     0.00000000    0.00000000    0.00000000
     atom   30 type  1   force =     0.00000000    0.00000000    0.00000000
     atom   31 type  1   force =     0.00000000    0.00000000    0.00000000
     atom   32 type  1   force =     0.00000000    0.00000000    0.00000000
     atom   33 type  1   force =     0.00000000    0.00000000    0.00000000
     atom   34 type  1   force =     0.00000000    0.00000000    0.00000000
     atom   35 type  1   force =     0.00000000    0.00000000    0.00000000
     atom   36 type  1   force =     0.00000000    0.00000000    0.00000000
     atom   37 type  1   force =     0.00000000    0.00000000    0.00000000
     atom   38 type  1   force =     0.00000000    0.00000000    0.00000000
     atom   39 type  1   force =     0.00000000    0.00000000    0.00000000
     atom   40 type  1   force =     0.00000000    0.00000000    0.00000000
     atom   41 type  1   force =     0.00000000    0.00000000    0.00000000
     atom   42 type  1   force =     0.00000000    0.00000000    0.00000000
     atom   43 type  1   force =     0.00000000    0.00000000    0.00000000
     atom   44 type  1   force =     0.00000000    0.00000000    0.00000000
     atom   45 type  1   force =     0.00000000    0.00000000    0.00000000
     atom   46 type  1   force =     0.00000000    0.00000000    0.00000000
     atom   47 type  1   force =     0.00000000    0.00000000    0.00000000
     atom   48 type  1   force =     0.00000000    0.00000000    0.00000000
     atom   49 type  1   force =     0.00000000    0.00000000    0.00000000
     atom   50 type  1   force =     0.00000000    0.00000000    0.00000000
     atom   51 type  1   force =     0.00000000    0.00000000    0.00000000
     atom   52 type  1   force =     0.00000000    0.00000000    0.00000000
     atom   53 type  1   force =     0.00000000    0.00000000    0.00000000
     atom   54 type  1   force =     0.00000000    0.00000000    0.00000000
     atom   55 type  1   force =     0.00000000    0.00000000    0.00000000
     atom   56 type  1   force =     0.00000000    0.00000000    0.00000000
     atom   57 type  1   force =     0.00000000    0.00000000    0.00000000
     atom   58 type  1   force =     0.00000000    0.00000000    0.00000000
     atom   59 type  1   force =     0.00000000    0.00000000    0.00000000
     atom   60 type  1   force =     0.00000000    0.00000000    0.00000000
     atom   61 type  1   force =     0.00000000    0.00000000    0.00000000
     atom   62 type  1   force =     0.00000000    0.00000000    0.00000000
     atom   63 type  1   force =     0.00000000    0.00000000    0.00000000
     The SCF correction term to forces
     atom    1 type  1   force =    -0.00002662    0.00002662    0.00003527
     atom    2 type  1   force =    -0.00002662   -0.00003527   -0.00002662
     atom    3 type  1   force =    -0.00001941   -0.00002582    0.00002582
     atom    4 type  1   force =     0.00003527    0.00002662   -0.00002662
     atom    5 type  1   force =     0.00002582    0.00001941    0.00002582
     atom    6 type  1   force =     0.00002582   -0.00002582   -0.00001941
     atom    7 type  1   force =     0.00001894   -0.00001894    0.00001894
     atom    8 type  1   force =    -0.00004014   -0.00001043   -0.00001168
     atom    9 type  1   force =    -0.00003052   -0.00001437    0.00001352
     atom   10 type  1   force =    -0.00001239    0.00001239   -0.00003059
     atom   11 type  1   force =    -0.00001675    0.00001675    0.00003731
     atom   12 type  1   force =     0.00004017   -0.00004017    0.00000210
     atom   13 type  1   force =     0.00002821   -0.00002821    0.00000094
     atom   14 type  1   force =     0.00001043    0.00004014   -0.00001168
     atom   15 type  1   force =     0.00001437    0.00003052    0.00001352
     atom   16 type  1   force =    -0.00005485   -0.00001075    0.00001075
     atom   17 type  1   force =    -0.00003587    0.00001616    0.00000671
     atom   18 type  1   force =    -0.00003587   -0.00000671   -0.00001616
     atom   19 type  1   force =    -0.00000633   -0.00001730    0.00001730
     atom   20 type  1   force =     0.00003785   -0.00002719    0.00002719
     atom   21 type  1   force =     0.00002769   -0.00001838   -0.00002460
     atom   22 type  1   force =     0.00002769    0.00002460    0.00001838
     atom   23 type  1   force =     0.00001378    0.00001909   -0.00001909
     atom   24 type  1   force =    -0.00001239    0.00003059   -0.00001239
     atom   25 type  1   force =    -0.00004014    0.00001168    0.00001043
     atom   26 type  1   force =    -0.00001675   -0.00003731   -0.00001675
     atom   27 type  1   force =    -0.00003052   -0.00001352    0.00001437
     atom   28 type  1   force =     0.00001043    0.00001168   -0.00004014
     atom   29 type  1   force =     0.00004017   -0.00000210    0.00004017
     atom   30 type  1   force =     0.00001437   -0.00001352   -0.00003052
     atom   31 type  1   force =     0.00002821   -0.00000094    0.00002821
     atom   32 type  1   force =     0.00001075    0.00005485    0.00001075
     atom   33 type  1   force =    -0.00001616    0.00003587    0.00000671
     atom   34 type  1   force =     0.00002719   -0.00003785    0.00002719
     atom   35 type  1   force =     0.00001838   -0.00002769   -0.00002460
     atom   36 type  1   force =     0.00000671    0.00003587   -0.00001616
     atom   37 type  1   force =     0.00001730    0.00000633    0.00001730
     atom   38 type  1   force =    -0.00002460   -0.00002769    0.00001838
     atom   39 type  1   force =    -0.00001909   -0.00001378   -0.00001909
     atom   40 type  1   force =    -0.00001168   -0.00001043   -0.00004014
     atom   41 type  1   force =     0.00000210   -0.00004017    0.00004017
     atom   42 type  1   force =    -0.00003059    0.00001239   -0.00001239
     atom   43 type  1   force =    -0.00001168    0.00004014    0.00001043
     atom   44 type  1   force =     0.00001352   -0.00001437   -0.00003052
     atom   45 type  1   force =     0.00000094   -0.00002821    0.00002821
     atom   46 type  1   force =     0.00003731    0.00001675   -0.00001675
     atom   47 type  1   force =     0.00001352    0.00003052    0.00001437
     atom   48 type  1   force =     0.00001075   -0.00001075   -0.00005485
     atom   49 type  1   force =     0.00002719   -0.00002719    0.00003785
     atom   50 type  1   force =    -0.00001616   -0.00000671   -0.00003587
     atom   51 type  1   force =     0.00001838    0.00002460    0.00002769
     atom   52 type  1   force =     0.00000671    0.00001616   -0.00003587
     atom   53 type  1   force =    -0.00002460   -0.00001838    0.00002769
     atom   54 type  1   force =     0.00001730   -0.00001730   -0.00000633
     atom   55 type  1   force =    -0.00001909    0.00001909    0.00001378
     atom   56 type  1   force =    -0.00002765    0.00002765   -0.00002765
     atom   57 type  1   force =    -0.00001097    0.00001097    0.00004041
     atom   58 type  1   force =    -0.00001097   -0.00004041   -0.00001097
     atom   59 type  1   force =     0.00000295   -0.00001353    0.00001353
     atom   60 type  1   force =     0.00004041    0.00001097   -0.00001097
     atom   61 type  1   force =     0.00001353   -0.00000295    0.00001353
     atom   62 type  1   force =     0.00001353   -0.00001353    0.00000295
     atom   63 type  1   force =    -0.00000096    0.00000096   -0.00000096

     Total force =     0.002586     Total SCF correction =     0.000331
     SCF correction compared to forces is large: reduce conv_thr to get better values


     Computing stress (Cartesian axis) and pressure



     -----------------------------------------------
     Non-local corr. energy    =       2.16538430 Ry
     -----------------------------------------------

          total   stress  (Ry/bohr**3)                   (kbar)     P=     -145.70
  -0.00099047  -0.00000010   0.00000010         -145.70       -0.01        0.01
  -0.00000010  -0.00099047  -0.00000010           -0.01     -145.70       -0.01
   0.00000010  -0.00000010  -0.00099047            0.01       -0.01     -145.70

     kinetic stress (kbar)  18469.97     -0.00      0.00
                               -0.00  18469.97     -0.00
                                0.00     -0.00  18469.97

     local   stress (kbar)  -3830.21      0.24     -0.24
                                0.24  -3830.21      0.24
                               -0.24      0.24  -3830.21

     nonloc. stress (kbar)   4277.56     -0.00      0.00
                               -0.00   4277.56     -0.00
                                0.00     -0.00   4277.56

     hartree stress (kbar)   1394.69     -0.07      0.07
                               -0.07   1394.69     -0.07
                                0.07     -0.07   1394.69

     exc-cor stress (kbar)   -361.74      0.00     -0.00
                                0.00   -361.74      0.00
                               -0.00      0.00   -361.74

     corecor stress (kbar)  -4361.12      0.00     -0.00
                                0.00  -4361.12      0.00
                               -0.00      0.00  -4361.12

     ewald   stress (kbar) -15759.37     -0.19      0.19
                               -0.19 -15759.37     -0.19
                                0.19     -0.19 -15759.37

     hubbard stress (kbar)      0.00      0.00      0.00
                                0.00      0.00      0.00
                                0.00      0.00      0.00

     DFT-D   stress (kbar)      0.00      0.00      0.00
                                0.00      0.00      0.00
                                0.00      0.00      0.00

     XDM     stress (kbar)      0.00      0.00      0.00
                                0.00      0.00      0.00
                                0.00      0.00      0.00

     dft-nl  stress (kbar)     24.53      0.00     -0.00
                                0.00     24.53      0.00
                               -0.00      0.00     24.53

     TS-vdW  stress (kbar)      0.00      0.00      0.00
                                0.00      0.00      0.00
                                0.00      0.00      0.00

     MDB     stress (kbar)      0.00      0.00      0.00
                                0.00      0.00      0.00
                                0.00      0.00      0.00

     3D-RISM stress (kbar)      0.00      0.00      0.00
                                0.00      0.00      0.00
                                0.00      0.00      0.00



     -----------------------------------------------
     Non-local corr. energy    =       2.16538430 Ry
     -----------------------------------------------



     -----------------------------------------------
     Non-local corr. energy    =       2.16538430 Ry
     -----------------------------------------------



     -----------------------------------------------
     Non-local corr. energy    =       2.16538430 Ry
     -----------------------------------------------



     -----------------------------------------------
     Non-local corr. energy    =       2.16538430 Ry
     -----------------------------------------------



     -----------------------------------------------
     Non-local corr. energy    =       2.16538430 Ry
     -----------------------------------------------



     -----------------------------------------------
     Non-local corr. energy    =       2.16538430 Ry
     -----------------------------------------------



     -----------------------------------------------
     Non-local corr. energy    =       2.16538430 Ry
     -----------------------------------------------



     -----------------------------------------------
     Non-local corr. energy    =       2.16538430 Ry
     -----------------------------------------------



     -----------------------------------------------
     Non-local corr. energy    =       2.16538430 Ry
     -----------------------------------------------



     -----------------------------------------------
     Non-local corr. energy    =       2.16538430 Ry
     -----------------------------------------------



     -----------------------------------------------
     Non-local corr. energy    =       2.16538430 Ry
     -----------------------------------------------



     -----------------------------------------------
     Non-local corr. energy    =       2.16538430 Ry
     -----------------------------------------------



     -----------------------------------------------
     Non-local corr. energy    =       2.16538430 Ry
     -----------------------------------------------



     -----------------------------------------------
     Non-local corr. energy    =       2.16538430 Ry
     -----------------------------------------------



     -----------------------------------------------
     Non-local corr. energy    =       2.16538430 Ry
     -----------------------------------------------



     -----------------------------------------------
     Non-local corr. energy    =       2.16538430 Ry
     -----------------------------------------------



     -----------------------------------------------
     Non-local corr. energy    =       2.16538430 Ry
     -----------------------------------------------



     -----------------------------------------------
     Non-local corr. energy    =       2.16538430 Ry
     -----------------------------------------------



     -----------------------------------------------
     Non-local corr. energy    =       2.16538430 Ry
     -----------------------------------------------



     -----------------------------------------------
     Non-local corr. energy    =       2.16538430 Ry
     -----------------------------------------------



     -----------------------------------------------
     Non-local corr. energy    =       2.16538430 Ry
     -----------------------------------------------



     -----------------------------------------------
     Non-local corr. energy    =       2.16538430 Ry
     -----------------------------------------------



     -----------------------------------------------
     Non-local corr. energy    =       2.16538430 Ry
     -----------------------------------------------



     -----------------------------------------------
     Non-local corr. energy    =       2.16538430 Ry
     -----------------------------------------------



     -----------------------------------------------
     Non-local corr. energy    =       2.16538430 Ry
     -----------------------------------------------



     -----------------------------------------------
     Non-local corr. energy    =       2.16538430 Ry
     -----------------------------------------------



     -----------------------------------------------
     Non-local corr. energy    =       2.16538430 Ry
     -----------------------------------------------



     -----------------------------------------------
     Non-local corr. energy    =       2.16538430 Ry
     -----------------------------------------------



     -----------------------------------------------
     Non-local corr. energy    =       2.16538430 Ry
     -----------------------------------------------



     -----------------------------------------------
     Non-local corr. energy    =       2.16538430 Ry
     -----------------------------------------------



     -----------------------------------------------
     Non-local corr. energy    =       2.16538430 Ry
     -----------------------------------------------



     -----------------------------------------------
     Non-local corr. energy    =       2.16538430 Ry
     -----------------------------------------------



     -----------------------------------------------
     Non-local corr. energy    =       2.16538430 Ry
     -----------------------------------------------



     -----------------------------------------------
     Non-local corr. energy    =       2.16538430 Ry
     -----------------------------------------------

 BEEFens 2000 ensemble energies
             -0.222191021816720E+02
[...]
             -0.826170941002869E+01
              0.181308609707897E+02
              0.471446226038474E+01
             -0.282472044537327E+02
              0.109867092073778E+02
              0.205722150372465E+01
              0.319579704975500E+01
             -0.167013305754263E+02
              0.265514016085132E+01
              0.120605024744725E+02
              0.159624491754448E+02
              0.225305863461123E+02
              0.112306714341746E+02
              0.317276517339310E+01
             -0.187220466938160E+02
             -0.147172407498555E+02
             -0.230462655434819E+02
             -0.435235608850681E+01
              0.110679386097615E+02
              0.719937370726669E+00
              0.180758646160567E+02
             -0.110424169112943E+02
              0.675329326977132E+01
             -0.675447715685624E+01
             -0.911930765486126E+01
              0.201430923568883E+02
              0.189634216845124E+01
              0.215179955593174E+02
              0.156645405479094E+01
              0.689576699492727E+01
             -0.627366779387856E+01
              0.212701019062946E+02
             -0.493134016652508E+01
             -0.517613334223781E+00
             -0.270965267335135E+02
             -0.247448351201764E+01
              0.241954155576382E+02
              0.222176350823032E+02
              0.917640194075236E+01
             -0.643844639111170E+01
              0.160154765882132E+01
             -0.792705873354440E+01
             -0.629185950420970E+01
              0.312893773072179E+02
              0.239934754873974E+01
             -0.100269222472505E+02
             -0.372656451897354E+02
             -0.155490091834307E+02
             -0.128974808492003E+02
             -0.220840145040555E+02
             -0.198124302034966E+02
             -0.242471323904441E+02
             -0.153140736565269E+02
             -0.100947806024656E+02
             -0.171693576300913E+02
              0.151424652061374E+02
             -0.650260679225838E+01
             -0.300724095168428E+02
              0.137108303718301E+02
             -0.107174608788060E+02
             -0.281127540668587E+02
              0.345845190951362E+02
             -0.864833969220847E+01
              0.561159936019567E+01
              0.130001159781290E+02
              0.327081607723252E+01
              0.920245003366421E+01
              0.602191888373895E+00
              0.573414346488432E+00
             -0.382661049009587E+01
             -0.247552274235874E+02
              0.364386495684299E+01
             -0.417942236073438E+02
              0.242514262504221E+02
             -0.140241917263562E+02
             -0.704372876735376E+01
             -0.786321356800244E+01
              0.650516829009374E+01
             -0.544311982886823E+01
              0.101780331554206E+02
             -0.206458394315751E+02
              0.120244606401199E+02
              0.137797845482777E+02
              0.362385677700262E+01
              0.243961501183399E+01
              0.738774347162341E+01
              0.363578883811117E+01
              0.102231204390658E+02
             -0.119629401813010E+01
             -0.251390827412519E+02
              0.307172394588866E+01
             -0.108278122292078E+02
             -0.103919215002608E+01
              0.186851003814097E+02
             -0.271022356361600E+02
             -0.272005266088541E+00
              0.125275156413988E+01
              0.322460158604937E+01
              0.108657815501984E+02
             -0.396113405476543E+01
              0.295744915635711E+02
              0.134440923482256E+02
             -0.562191768564876E+01
             -0.349165498175216E+01
              0.202870852814154E+01
              0.272920418703054E+02
             -0.179845449111277E+02
             -0.351027162158748E+02
              0.949595538355138E+01
             -0.309289513701449E+01
             -0.438021928371185E+01
              0.680168765660937E+01
              0.264347090033367E+02
              0.146811385889145E+02
             -0.571451852889092E+01
             -0.184753013194769E+02
             -0.408944309096636E+01
              0.968026090006467E+01
             -0.588292070029445E+01
             -0.264261193475426E+02
             -0.275444608446902E+01
             -0.337118222938210E+02
             -0.184668936904385E+02
              0.295166610580100E+02
             -0.177969719776179E+02
             -0.244427286835961E+02
             -0.175131262141288E+02
             -0.135603827109569E+02
              0.109344947657002E+02
              0.295063056300338E+02
             -0.268343528707490E+01
              0.931137111731488E+01
             -0.706729798800963E+01
             -0.240924286667405E+02
              0.166802690479796E+02
             -0.164983977273794E+02
              0.871405616894117E+01
              0.107914248937161E+02
             -0.515300149125788E+01
              0.131451264519335E+02
              0.138350890939917E+02
              0.409442109367128E+02
             -0.353826189901127E+01
             -0.191372943402806E+02
             -0.229971233100152E+02
             -0.718935384079790E+01
             -0.133555046855658E+02
              0.320467385933960E+02
             -0.144686533736260E+02
              0.419978825078075E+01
              0.127304706158397E+01
             -0.704033328809746E+01
             -0.293383649585450E+02
             -0.190056933529995E+01
              0.345318893568382E+02
              0.735040768607558E+01
              0.273551175438055E+01
             -0.205144613307638E+02
             -0.200139870671327E+02
             -0.618390035613985E+01
              0.160314301034339E+02
             -0.871401633127124E+01
              0.354157513607428E+02
             -0.155097202313354E+02
              0.701950127529510E+01
             -0.518711920735103E+01
             -0.218774872196513E+02
              0.231891579270575E+01
             -0.192497200256848E+02
             -0.260240094013063E+02
              0.386572701831093E+01
              0.100085493567379E+01
              0.173325273258382E+02
              0.926846681040754E+01
             -0.115761176237427E+02
              0.750229803848453E+01
             -0.302962038125547E+02
             -0.169994301760424E+02
              0.318746831005781E+02
              0.262343541805234E+01
             -0.212582332023970E+01
             -0.926243883220609E+01
             -0.288292610650529E+00
             -0.425436672839461E+01
              0.303746286496623E+02
              0.136429030004648E+02
             -0.356720918954440E+01
             -0.266465013198513E+00
             -0.133707096651091E+02
             -0.512221249045282E+01
             -0.221377790849799E+02
              0.168621533222591E+02
              0.185401378095523E+01
              0.274118346141879E+01
              0.662985413249113E+01
             -0.416819039583153E+01
             -0.757805431737130E+01
              0.275595941044021E+01
             -0.387314413246936E+02
             -0.369982912926480E+01
             -0.283007358821629E+01
             -0.226766522291823E+01
              0.178388876418618E+02
              0.221522631730703E+02
              0.636662366577386E+01
             -0.326430265196439E+02
              0.225593103817912E+02
             -0.812502493973332E+01
             -0.132064830687190E+02
             -0.306308334434203E+02
             -0.934352869730473E+01
              0.216822819380388E+02
              0.102416244283610E+02
              0.421975232739749E+01
              0.121236271198206E+02
             -0.195393705796889E+02
             -0.172370145683164E+02
              0.206675779347843E+02
              0.145206232710553E+02
              0.168396856767573E+02
              0.209868993023343E+01
              0.294278611239031E+01
              0.186690378141250E+02
              0.343179150133777E+02
             -0.656431448525998E+01
              0.136084469868116E+02
             -0.937233748275472E+01
             -0.149674561571633E+02
             -0.116403454096722E+02
             -0.113647112786407E+02
             -0.505863572715495E+01
             -0.174622407836887E+02
             -0.678618154550617E+01
             -0.453727278482846E+02
              0.101241438293337E+02
              0.979428228522770E+01
             -0.127092518951646E+01
             -0.132948591202264E+02
             -0.694186556954749E+01
             -0.196367381450139E+02
              0.157403681612402E+01
              0.275647012582102E+02
             -0.679366696148688E+01
             -0.624610006952432E+01
              0.732237213996962E+01
             -0.168094015694833E+02
              0.295900450749157E+02
              0.526954314426676E+01
              0.314521131623570E+01
              0.183858294040023E+02
             -0.118009613986450E+01
              0.206509991928291E+02
              0.682597437820723E+01
             -0.653972573852037E+00
              0.480332862718750E+01
             -0.200640377424072E+01
              0.234244455343650E+02
              0.199497834145478E+01
              0.677986900392662E+01
             -0.273069906697549E+01
              0.356910280082329E+01
             -0.328075701349201E+02
             -0.121245955547339E+02
             -0.173234746196932E+02
              0.176247332374477E+02
             -0.119799450340132E+02
             -0.197834319549460E+02
              0.209743330222941E+02
             -0.472693181682813E+01
              0.141747165166539E+02
             -0.313383203702408E+02
              0.590176187979687E+01
              0.213492586058710E+01
              0.251542234625606E+01
             -0.468039505338689E+01
             -0.245583299639748E+01
              0.170362913060850E+02
              0.941656234911292E+00
             -0.186842696254744E+02
             -0.673762313999695E+01
              0.729564780681010E+01
             -0.393164020813047E+02
             -0.302737059165948E+02
              0.328598111886080E+00
              0.576049021603355E+01
             -0.166188320809626E+02
              0.445480945037900E+00
              0.360360750070931E+02
              0.108863083961699E+02
             -0.185230105195515E+02
              0.316470343038780E+01
             -0.427044921907467E+01
              0.363627221382029E+01
             -0.121307135766487E+02
              0.766170793427834E+01
              0.850439741140647E+01
             -0.359222468839793E+01
              0.394605654368620E+02
             -0.111882420248308E+01
             -0.109636894138558E+02
              0.107206113041965E+02
              0.147271221402309E+02
             -0.107702026340933E+02
             -0.770564668583056E+00
              0.334706465939048E+02
             -0.667917243268477E+00
              0.189359156200830E+02
              0.541260402314755E+01
             -0.293372192006741E+01
             -0.619362218435953E+01
              0.175741952840973E+02
             -0.209969053416829E+02
             -0.344577190529719E+00
             -0.694496998668835E+01
             -0.137303695473837E+02
              0.401586188604587E+01
              0.807286967724686E+01
             -0.100891057202688E+00
             -0.280716239562793E+00
             -0.148514253224355E+02
              0.630910841164280E+01
             -0.313277746716189E+00
             -0.833765875013059E+01
             -0.712156366566055E+01
              0.622059940427602E+01
              0.633077739893594E+00
             -0.132832982599935E+02
             -0.369758062817120E+02
              0.280869418005609E+01
              0.515612579706427E+01
             -0.170016365478412E+02
             -0.841943750880947E+01
              0.283619011121117E+02
              0.426061893704122E+01
              0.153693957471276E+02
              0.389854216197061E+01
              0.142817243881893E+02
              0.662776891783722E+00
             -0.139439339376419E+02
             -0.360583742840561E+01
              0.197299808330614E+01
              0.111005007828555E+02
              0.265490074750261E+02
              0.174780054624161E+02
              0.113238719670836E+01
              0.351304435179011E+01
              0.208467493572088E+02
              0.998808485689464E+01
             -0.241801504086275E+02
             -0.955458314149021E+01
              0.321261944745356E+01
              0.362548178012958E+01
              0.933796446690629E+01
             -0.178980421979940E+02
              0.246373924912636E+01
              0.140630599822376E+02
              0.174052174534717E+02
             -0.153795400493336E+02
              0.947344087633553E+00
             -0.113323063673880E+01
             -0.734937048669845E+01
             -0.998462255459571E+01
             -0.454942222755579E+01
             -0.386199653892671E+01
              0.372161605042055E+01
              0.145865511831239E+02
             -0.122519031450436E+02
              0.278485514228180E+02
              0.123546565526538E+02
              0.874156139214300E+01
              0.118959509523847E+02
              0.886501307213480E+01
              0.118140943805122E+02
              0.194195299430400E+02
             -0.162096721940997E+02
              0.215526411926850E+02
             -0.391349133192947E+02
              0.111373850125731E+02
             -0.369678293467683E+02
              0.288584324078100E+02
              0.268529650941911E+02
             -0.326235328800817E+01
             -0.165380444512236E+02
             -0.145453645145555E+02
             -0.189153122709858E+02
             -0.226326158675271E+02
              0.189690453465174E+02
              0.149999576267623E+02
              0.892985899757451E+01
              0.915609867601171E+01
              0.160665822202544E+02
             -0.142345034157686E+02
             -0.554410017893082E+01
              0.178785575882779E+02
             -0.354926146034107E+01
              0.169687970098445E+02
              0.268650653010687E+02
             -0.103783971079765E+01
             -0.260448171802605E+02
              0.814936203641537E+00
              0.316064427325861E+00
             -0.389909732834528E+01
              0.169210858856830E+01
             -0.223319066320321E+02
             -0.367533712067522E+01
              0.396732583022319E+01
              0.431094124244619E+01
              0.174724833353921E+02
             -0.151585174532165E+02
              0.181026305929273E+02
             -0.135066774880485E+02
              0.909139841895269E+01
              0.149968085877364E+02
 
 BEEF-vdW xc energy contributions
            1 :    -255.5969439167663     
            2 :     225.1404185368134     
            3 :    -172.7306053659760     
            4 :     112.1208649380810     
            5 :    -57.26247323087227     
            6 :     17.65006416942606     
            7 :     4.049209246577789     
            8 :    -11.36445703651549     
            9 :     11.07825022878217     
           10 :    -9.612340316371615     
           11 :     10.45211907647911     
           12 :    -13.56692316176043     
           13 :     16.67311748987800     
           14 :    -17.31817175444502     
           15 :     14.54332433529885     
           16 :    -9.331944763033789     
           17 :     3.839108842082396     
           18 :   -5.8321305255333300E-002
           19 :    -1.221479617413536     
           20 :    0.6197005824614052     
           21 :    0.4568720447439318     
           22 :   -0.7755054195342836     
           23 :   -2.8740438882891794E-002
           24 :     1.390651041596641     
           25 :    -2.325859784594115     
           26 :     2.126879676718204     
           27 :   -0.7983652025696415     
           28 :   -0.9994717304679170     
           29 :     2.404398303023299     
           30 :    -2.878471920395327     
           31 :    -33.47201623129070     
           32 :    -24.20518460082167     

     Writing all to output data dir ./diamond.save/
 
     init_run     :      0.97s CPU      1.06s WALL (       1 calls)
     electrons    :      3.23s CPU      4.26s WALL (       1 calls)
     forces       :      0.31s CPU      0.32s WALL (       1 calls)
     stress       :      2.29s CPU      2.31s WALL (       1 calls)

     Called by init_run:
     wfcinit      :      0.12s CPU      0.14s WALL (       1 calls)
     potinit      :      0.43s CPU      0.47s WALL (       1 calls)
     hinit0       :      0.13s CPU      0.14s WALL (       1 calls)

     Called by electrons:
     c_bands      :      2.74s CPU      3.68s WALL (       2 calls)
     sum_band     :      0.19s CPU      0.19s WALL (       2 calls)
     v_of_rho     :      0.50s CPU      0.53s WALL (       2 calls)
     v_h          :      0.00s CPU      0.00s WALL (       2 calls)
     v_xc         :      4.58s CPU      4.70s WALL (      38 calls)
     newd         :      0.01s CPU      0.01s WALL (       2 calls)
     PAW_pot      :      0.09s CPU      0.09s WALL (       2 calls)
     mix_rho      :      0.00s CPU      0.00s WALL (       2 calls)
     vdW_kernel   :      0.25s CPU      0.26s WALL (       1 calls)

     Called by c_bands:
     init_us_2    :      0.01s CPU      0.01s WALL (       4 calls)
     init_us_2:cp :      0.01s CPU      0.01s WALL (       4 calls)
     cegterg      :      2.61s CPU      2.65s WALL (       2 calls)

     Called by sum_band:
     sum_band:wei :      0.00s CPU      0.00s WALL (       2 calls)
     sum_band:loo :      0.15s CPU      0.16s WALL (       2 calls)
     sum_band:buf :      0.00s CPU      0.00s WALL (       2 calls)
     sum_band:ini :      0.01s CPU      0.01s WALL (       2 calls)
     sum_band:cal :      0.05s CPU      0.05s WALL (       2 calls)
     sum_band:bec :      0.00s CPU      0.00s WALL (       2 calls)
     addusdens    :      0.01s CPU      0.01s WALL (       2 calls)
                                        0.00s GPU  (       2 calls)
     addusd:skk   :      0.00s CPU      0.00s WALL (       2 calls)
                                        0.00s GPU  (       2 calls)

     Called by *egterg:
     cdiaghg      :      1.35s CPU      1.36s WALL (      14 calls)
     cegterg:over :      0.16s CPU      0.16s WALL (      14 calls)
     cegterg:upda :      0.12s CPU      0.13s WALL (      14 calls)
     cegterg:last :      0.03s CPU      0.03s WALL (       2 calls)
     h_psi        :      0.75s CPU      0.77s WALL (      16 calls)
     s_psi        :      0.12s CPU      0.12s WALL (      16 calls)
     g_psi        :      0.00s CPU      0.00s WALL (      14 calls)

     Called by h_psi:
     h_psi:calbec :      0.18s CPU      0.18s WALL (      16 calls)
     vloc_psi     :      0.42s CPU      0.43s WALL (      16 calls)
     add_vuspsi   :      0.15s CPU      0.15s WALL (      16 calls)

     General routines
     calbec       :      0.35s CPU      0.36s WALL (      23 calls)
     fft          :      1.87s CPU      1.91s WALL (    2232 calls)
     ffts         :      0.00s CPU      0.00s WALL (       4 calls)
     fftw         :      0.45s CPU      0.46s WALL (    1786 calls)
     interpolate  :      0.00s CPU      0.00s WALL (       2 calls)
 
     Parallel routines

     PAW routines
     PAW_pot      :      0.09s CPU      0.09s WALL (       2 calls)
     PAW_symme    :      0.00s CPU      0.00s WALL (       3 calls)
 
     PWSCF        :     10.93s CPU     13.78s WALL

 
   This run was terminated on:  21:17:54  17Mar2024            

=------------------------------------------------------------------------------=
   JOB DONE.
=------------------------------------------------------------------------------=
