
     Program PWSCF v.7.1 starts on 28Mar2024 at  6:40:43 

     This program is part of the open-source Quantum ESPRESSO suite
     for quantum simulation of materials; please cite
         "P. Giannozzi et al., J. Phys.:Condens. Matter 21 395502 (2009);
         "P. Giannozzi et al., J. Phys.:Condens. Matter 29 465901 (2017);
         "P. Giannozzi et al., J. Chem. Phys. 152 154105 (2020);
          URL http://www.quantum-espresso.org", 
     in publications or presentations arising from this work. More details at
     http://www.quantum-espresso.org/quote

     Parallel version (MPI & OpenMP), running on      20 processor cores
     Number of MPI processes:                20
     Threads/MPI process:                     1

     MPI processes distributed on     1 nodes
     1968162 MiB available memory on the printing compute node when the environment starts
 
     Reading input from espresso.pwi
Warning: card &CELL ignored
Warning: card    CELL_DYNAMICS    = 'BFGS' ignored
Warning: card / ignored

     Current dimensions of program PWSCF are:
     Max number of different atomic species (ntypx) = 10
     Max number of k-points (npk) =  40000
     Max angular momentum in pseudopotentials (lmaxx) =  4
     file Pb.pbe-dn-kjpaw_psl.1.0.0.UPF: wavefunction(s)  6S 6P 5D renormalized
     file I.pbe-dn-kjpaw_psl.1.0.0.UPF: wavefunction(s)  5S 5P renormalized

     **************************************************************************
     Initializing libbeef V0.1.2 with the BEEF-vdW functional.
     Citation: Wellendorff et al., PRB 85, 235149 (2012).
     **************************************************************************


     IMPORTANT: XC functional enforced from input :
     Exchange-correlation= BEEF-VDW
                           (   1   4  43  14   2   0   0)
     Any further DFT definition will be discarded
     Please, verify this is what you really want

 
     R & G space division:  proc/nbgrp/npool/nimage =      20
     Subspace diagonalization in iterative solution of the eigenvalue problem:
     a serial algorithm will be used

 
     Parallelization info
     --------------------
     sticks:   dense  smooth     PW     G-vecs:    dense   smooth      PW
     Min         381     306     80                42326    30292    4074
     Max         383     307     81                42331    30298    4079
     Sum        7639    6121   1615               846533   605897   81527
 
     Using Slab Decomposition
 


     bravais-lattice index     =            4
     lattice parameter (alat)  =      17.8060  a.u.
     unit-cell volume          =    7656.2263 (a.u.)^3
     number of atoms/cell      =           24
     number of atomic types    =            2
     number of electrons       =       388.00
     number of Kohn-Sham states=          233
     kinetic-energy cutoff     =      70.0000  Ry
     charge density cutoff     =     350.0000  Ry
     scf convergence threshold =      1.0E-07
     mixing beta               =       0.7000
     number of iterations used =            8  plain     mixing
     Exchange-correlation= BEEF-VDW
                           (   1   4  43  14   2   0   0)

     celldm(1)=  17.806016  celldm(2)=   0.000000  celldm(3)=   1.565971
     celldm(4)=   0.000000  celldm(5)=   0.000000  celldm(6)=   0.000000

     crystal axes: (cart. coord. in units of alat)
               a(1) = (   1.000000   0.000000   0.000000 )  
               a(2) = (  -0.500000   0.866025   0.000000 )  
               a(3) = (   0.000000   0.000000   1.565971 )  

     reciprocal axes: (cart. coord. in units 2 pi/alat)
               b(1) = (  1.000000  0.577350 -0.000000 )  
               b(2) = (  0.000000  1.154701  0.000000 )  
               b(3) = (  0.000000 -0.000000  0.638581 )  


     PseudoPot. # 1 for Pb read from file:
     /trace/group/acmegroup/atimmins/packages/espresso/pseudo/psl_1.0.0/pslibrary.1.0.0/pbe/PSEUDOPOTENTIALS/Pb.pbe-dn-kjpaw_psl.1.0.0.UPF
     MD5 check sum: 39ab5b8a6bbd56b7735ad9f188aac93a
     Pseudo is Projector augmented-wave + core cor, Zval = 14.0
     Generated using 'atomic' code by A. Dal Corso  v.7.1
     Shape of augmentation charge: PSQ
     Using radial grid of 1281 points,  6 beta functions with: 
                l(1) =   0
                l(2) =   0
                l(3) =   1
                l(4) =   1
                l(5) =   2
                l(6) =   2
     Q(r) pseudized with 0 coefficients 


     PseudoPot. # 2 for I  read from file:
     /trace/group/acmegroup/atimmins/packages/espresso/pseudo/psl_1.0.0/pslibrary.1.0.0/pbe/PSEUDOPOTENTIALS/I.pbe-dn-kjpaw_psl.1.0.0.UPF
     MD5 check sum: bfa8781bc1224d19af3f3980e3fab11e
     Pseudo is Projector augmented-wave + core cor, Zval = 17.0
     Generated using 'atomic' code by A. Dal Corso  v.7.1
     Shape of augmentation charge: PSQ
     Using radial grid of 1247 points,  6 beta functions with: 
                l(1) =   0
                l(2) =   0
                l(3) =   1
                l(4) =   1
                l(5) =   2
                l(6) =   2
     Q(r) pseudized with 0 coefficients 


     atomic species   valence    mass     pseudopotential
        Pb            14.00   207.20000     Pb( 1.00)
        I             17.00   126.90447     I ( 1.00)

     No symmetry found


                                    s                        frac. trans.

      isym =  1     identity                                     

 cryst.   s( 1) = (     1          0          0      )
                  (     0          1          0      )
                  (     0          0          1      )

 cart.    s( 1) = (  1.0000000  0.0000000  0.0000000 )
                  (  0.0000000  1.0000000  0.0000000 )
                  (  0.0000000  0.0000000  1.0000000 )


     point group C_1 (1)    
     there are  1 classes
     the character table:

       E    
A      1.00

     the symmetry operations in each class and the name of the first element:

     E        1
          identity                                               

   Cartesian axes

     site n.     atom                  positions (alat units)
         1           Pb  tau(   1) = (   0.2500068   0.4329836   0.7829793  )
         2           Pb  tau(   2) = (   0.0000153   0.8659852   1.5659567  )
         3           Pb  tau(   3) = (   0.0000051   0.8659943   0.7829710  )
         4           Pb  tau(   4) = (   0.7500170   0.4329726   1.5659715  )
         5           Pb  tau(   5) = (   0.7500068   0.4329816   0.7829858  )
         6           Pb  tau(   6) = (   0.5000153   0.8659833   1.5659633  )
         7           Pb  tau(   7) = (   0.5000051   0.8659923   0.7829776  )
         8           I   tau(   8) = (   0.2500107   0.1443099   0.5818649  )
         9           I   tau(   9) = (   0.2500209   0.1443009   1.3648506  )
        10           I   tau(  10) = (   0.0000091   0.5773207   0.5818567  )
        11           I   tau(  11) = (   0.0000193   0.5773116   1.3648424  )
        12           I   tau(  12) = (   0.7500107   0.1443080   0.5818714  )
        13           I   tau(  13) = (   0.7500209   0.1442990   1.3648571  )
        14           I   tau(  14) = (   0.5000091   0.5773187   0.5818632  )
        15           I   tau(  15) = (   0.5000193   0.5773097   1.3648489  )
        16           I   tau(  16) = (  -0.0000034   0.2886595   0.2011110  )
        17           I   tau(  17) = (   0.0000068   0.2886504   0.9840967  )
        18           I   tau(  18) = (  -0.2500051   0.7216702   0.2011027  )
        19           I   tau(  19) = (  -0.2499949   0.7216611   0.9840884  )
        20           I   tau(  20) = (   0.4999966   0.2886575   0.2011175  )
        21           I   tau(  21) = (   0.5000068   0.2886485   0.9841032  )
        22           I   tau(  22) = (   0.2499949   0.7216682   0.2011092  )
        23           I   tau(  23) = (   0.2500051   0.7216592   0.9840949  )
        24           I   tau(  24) = (   0.2500170   0.4329745   1.5659650  )

   Crystallographic axes

     site n.     atom                  positions (cryst. coord.)
         1           Pb  tau(   1) = (  0.4999900  0.4999663  0.4999959  )
         2           Pb  tau(   2) = (  0.4999921  0.9999536  0.9999906  )
         3           Pb  tau(   3) = (  0.4999871  0.9999640  0.4999906  )
         4           Pb  tau(   4) = (  0.9999938  0.4999537  1.0000001  )
         5           Pb  tau(   5) = (  0.9999888  0.4999641  0.5000001  )
         6           Pb  tau(   6) = (  0.9999910  0.9999514  0.9999948  )
         7           Pb  tau(   7) = (  0.9999860  0.9999618  0.4999948  )
         8           I   tau(   8) = (  0.3333281  0.1666348  0.3715680  )
         9           I   tau(   9) = (  0.3333331  0.1666243  0.8715680  )
        10           I   tau(  10) = (  0.3333253  0.6666325  0.3715628  )
        11           I   tau(  11) = (  0.3333303  0.6666220  0.8715628  )
        12           I   tau(  12) = (  0.8333270  0.1666326  0.3715722  )
        13           I   tau(  13) = (  0.8333320  0.1666221  0.8715722  )
        14           I   tau(  14) = (  0.8333242  0.6666303  0.3715669  )
        15           I   tau(  15) = (  0.8333292  0.6666198  0.8715669  )
        16           I   tau(  16) = (  0.1666542  0.3333152  0.1284257  )
        17           I   tau(  17) = (  0.1666592  0.3333048  0.6284257  )
        18           I   tau(  18) = (  0.1666514  0.8333129  0.1284204  )
        19           I   tau(  19) = (  0.1666564  0.8333025  0.6284204  )
        20           I   tau(  20) = (  0.6666531  0.3333130  0.1284299  )
        21           I   tau(  21) = (  0.6666581  0.3333026  0.6284299  )
        22           I   tau(  22) = (  0.6666503  0.8333107  0.1284246  )
        23           I   tau(  23) = (  0.6666553  0.8333003  0.6284246  )
        24           I   tau(  24) = (  0.4999949  0.4999559  0.9999959  )

     number of k points=     4  Gaussian smearing, width (Ry)=  0.0100
                       cart. coord. in units 2pi/alat
        k(    1) = (   0.0000000   0.0000000   0.0000000), wk =   0.5000000
        k(    2) = (   0.0000000  -0.5773503   0.0000000), wk =   0.5000000
        k(    3) = (   0.5000000  -0.2886751   0.0000000), wk =   0.5000000
        k(    4) = (  -0.5000000  -0.2886751   0.0000000), wk =   0.5000000

                       cryst. coord.
        k(    1) = (   0.0000000   0.0000000   0.0000000), wk =   0.5000000
        k(    2) = (   0.0000000  -0.5000000   0.0000000), wk =   0.5000000
        k(    3) = (   0.5000000  -0.5000000   0.0000000), wk =   0.5000000
        k(    4) = (  -0.5000000  -0.0000000   0.0000000), wk =   0.5000000

     Dense  grid:   846533 G-vectors     FFT dimensions: ( 108, 108, 180)

     Smooth grid:   605897 G-vectors     FFT dimensions: (  96,  96, 150)

     Dynamical RAM for                 wfc:      13.46 MB

     Dynamical RAM for     wfc (w. buffer):      67.30 MB

     Dynamical RAM for           str. fact:       1.29 MB

     Dynamical RAM for           local pot:       0.00 MB

     Dynamical RAM for          nlocal pot:      24.96 MB

     Dynamical RAM for                qrad:       3.00 MB

     Dynamical RAM for          rho,v,vnew:       4.34 MB

     Dynamical RAM for               rhoin:       1.45 MB

     Dynamical RAM for            rho*nmix:      10.33 MB

     Dynamical RAM for           G-vectors:       2.65 MB

     Dynamical RAM for          h,s,v(r/c):      39.76 MB

     Dynamical RAM for          <psi|beta>:       1.54 MB

     Dynamical RAM for                 psi:      53.84 MB

     Dynamical RAM for                hpsi:      53.84 MB

     Dynamical RAM for                spsi:      53.84 MB

     Dynamical RAM for      wfcinit/wfcrot:      28.17 MB

     Dynamical RAM for           addusdens:     131.12 MB

     Dynamical RAM for          addusforce:     152.18 MB

     Dynamical RAM for         addusstress:     129.83 MB

     Estimated static dynamical RAM per process >     110.94 MB

     Estimated max dynamical RAM per process >     324.09 MB

     Estimated total dynamical RAM >       6.33 GB

     Atomic positions and unit cell read from directory:
     ./PbI2.save/
     Atomic positions from file used, from input discarded
 

     Check: negative core charge=   -0.000002

     The initial density is read from file :
     ./PbI2.save/charge-density



     %%%%%%%%%%%%%%%%%%%%%%%%%%%%%%%%%%%%%%%%%%%%%%%%%%%%%%%%%%%%%%%%%%%%%%%%
     %                                                                      %
     % You are using vdW-DF, which was implemented by the Thonhauser group. %
     % Please cite the following two papers that made this development      %
     % possible and the two reviews that describe the various versions:     %
     %                                                                      %
     %   T. Thonhauser et al., PRL 115, 136402 (2015).                      %
     %   T. Thonhauser et al., PRB 76, 125112 (2007).                       %
     %   K. Berland et al., Rep. Prog. Phys. 78, 066501 (2015).             %
     %   D.C. Langreth et al., J. Phys.: Condens. Matter 21, 084203 (2009). %
     %                                                                      %
     % If you are calculating stress with vdW-DF, please also cite:         %
     %                                                                      %
     %   R. Sabatini et al., J. Phys.: Condens. Matter 24, 424209 (2012).   %
     %                                                                      %
     %%%%%%%%%%%%%%%%%%%%%%%%%%%%%%%%%%%%%%%%%%%%%%%%%%%%%%%%%%%%%%%%%%%%%%%%

     %%%%%%%%%%%%%%%%%%%%%%%%%%%%%%%%%%%%%%%%%%%%%%%%%%%%%%%%%%%%%%%%%%%%%%%%
     %                                                                      %
     %  vdW-DF NEWS:                                                        %
     %                                                                      %
     %  * vdW-DF3 is now available. DOI: 10.1021/acs.jctc.0c00471           %
     %    use with input_dft = 'vdW-DF3-opt1' or 'vdW-DF3-opt2'             %
     %                                                                      %
     %  * Unscreened and range-separated vdW-DF hybrid functionals          %
     %    DOI: 10.1063/1.4986522 and 10.1088/1361-648X/ac2ad2               %
     %    use with input_dft = 'vdW-DF-cx0' (etc) and 'vdW-DF-ahcx'         %
     %                                                                      %
     %%%%%%%%%%%%%%%%%%%%%%%%%%%%%%%%%%%%%%%%%%%%%%%%%%%%%%%%%%%%%%%%%%%%%%%%


     Carrying out vdW-DF run using the following parameters:
     Nqs    =  20  Npoints =  1024  r_max =  100.000
     q_mesh =  0.00001000  0.04494208  0.09755937  0.15916263
               0.23128650  0.31572767  0.41458969  0.53033537
               0.66584808  0.82450364  1.01025438  1.22772762
               1.48234092  1.78043706  2.12944203  2.53805004
               3.01644009  3.57652955  4.23227104  5.00000000


     -----------------------------------------------
     Non-local corr. energy    =      11.80613270 Ry
     -----------------------------------------------

     Starting wfcs from file
     Checking if some PAW data can be deallocated... 
       PAW data deallocated on   16 nodes for type:  1
       PAW data deallocated on    3 nodes for type:  2

     total cpu time spent up to now is        7.8 secs

     Self-consistent Calculation

     iteration #  1     ecut=    70.00 Ry     beta= 0.70
     Davidson diagonalization with overlap

---- Real-time Memory Report at c_bands before calling an iterative solver
           356 MiB given to the printing process from OS
             0 MiB allocation reported by mallinfo(arena+hblkhd)
       1964511 MiB available memory on the node where the printing process lives
------------------
     ethr =  1.00E-05,  avg # of iterations =  1.0

     Threshold (ethr) on eigenvalues was too large:
     Diagonalizing with lowered threshold

     Davidson diagonalization with overlap

---- Real-time Memory Report at c_bands before calling an iterative solver
           459 MiB given to the printing process from OS
             0 MiB allocation reported by mallinfo(arena+hblkhd)
       1963840 MiB available memory on the node where the printing process lives
------------------
     c_bands:  1 eigenvalues not converged
     c_bands:  1 eigenvalues not converged
     c_bands:  1 eigenvalues not converged
     ethr =  1.82E-13,  avg # of iterations = 16.8


     -----------------------------------------------
     Non-local corr. energy    =      11.80613278 Ry
     -----------------------------------------------


     total cpu time spent up to now is       52.7 secs

     End of self-consistent calculation

          k = 0.0000 0.0000 0.0000 ( 75645 PWs)   bands (ev):

   -41.2049 -41.2049 -41.2048 -41.2048 -41.2048 -41.2048 -41.2045 -41.2045
   -41.2045 -41.2045 -41.2044 -41.2044 -41.2029 -41.2028 -41.2028 -41.2028
   -41.2028 -41.2027 -41.2024 -41.2024 -41.2023 -41.2023 -41.2023 -41.2023
   -41.2018 -41.2018 -41.2017 -41.2017 -41.2017 -41.2017 -41.1870 -41.1870
   -41.1870 -41.1870 -41.1820 -41.1820 -41.1820 -41.1820 -41.1797 -41.1796
   -40.6360 -40.6360 -40.6360 -40.6360 -40.6357 -40.6357 -40.6345 -40.6345
   -40.6345 -40.6345 -40.5286 -40.5221 -40.5220 -40.5067 -40.5067 -40.3901
   -40.3901 -40.3898 -40.3897 -40.3897 -40.3896 -40.3895 -40.3895 -40.3893
   -40.3893 -40.3891 -40.3891 -40.3828 -40.3828 -40.3824 -40.3823 -40.3821
   -40.3820 -40.3801 -40.3801 -40.3797 -40.3796 -40.3794 -40.3794 -40.3781
   -40.3780 -40.3776 -40.3776 -40.3773 -40.3773 -13.3817 -13.3817 -13.3651
   -13.3616 -13.3616 -13.3565 -13.3488 -13.3487 -13.3387 -13.3351 -13.3341
   -13.3341 -13.3320 -13.3319 -13.3315 -13.3288 -13.3288 -13.3209 -13.3209
   -13.3184 -12.7018 -12.6819 -12.6819 -12.6775 -12.6775 -12.6701 -12.6643
   -12.6643 -12.6596 -12.6503 -12.6503 -12.6472 -12.6429 -12.6382 -12.6382
    -8.5139  -8.0718  -8.0394  -8.0393  -8.0393  -7.9377  -7.9377  -7.9332
    -7.7946  -7.4826  -7.3692  -7.2697  -7.1397  -7.1393  -7.1034  -7.1030
    -6.8477  -4.0882  -4.0812  -4.0812  -3.5651  -3.3759  -3.3759  -2.9936
     0.5123   0.5123   0.5227   1.2887   1.2888   1.3278   1.4509   1.4714
     1.4714   1.5011   1.5011   1.5177   1.9808   2.1020   2.1532   2.1535
     2.1561   2.2096   2.2096   2.2484   2.2485   2.2807   2.2808   2.3232
     2.3922   2.3922   2.4096   2.4096   2.4097   2.4461   2.4888   2.4888
     2.5051   2.8232   2.9140   2.9979   2.9979   3.0604   3.0607   3.0933
     3.1101   3.1101   3.2640   3.4204   3.4207   3.5799   3.6022   3.6024
     4.1009   4.5630   4.5631   5.5739   6.2815   6.2815   6.3210   6.4084
     6.4084   6.5764   6.9124   6.9125   6.9925   7.0236   7.0236   7.1714
     7.2804   7.2804   7.6161   7.6394   7.6395   7.9570   8.0389   8.0391
     8.9550   8.9550   8.9635   9.6744   9.8215   9.8215   9.9124  10.2291
    10.8383  10.9421  10.9421  11.0497  11.1494  11.1494  11.3287  11.3288
    11.3302

     occupation numbers 
     1.0000   1.0000   1.0000   1.0000   1.0000   1.0000   1.0000   1.0000
     1.0000   1.0000   1.0000   1.0000   1.0000   1.0000   1.0000   1.0000
     1.0000   1.0000   1.0000   1.0000   1.0000   1.0000   1.0000   1.0000
     1.0000   1.0000   1.0000   1.0000   1.0000   1.0000   1.0000   1.0000
     1.0000   1.0000   1.0000   1.0000   1.0000   1.0000   1.0000   1.0000
     1.0000   1.0000   1.0000   1.0000   1.0000   1.0000   1.0000   1.0000
     1.0000   1.0000   1.0000   1.0000   1.0000   1.0000   1.0000   1.0000
     1.0000   1.0000   1.0000   1.0000   1.0000   1.0000   1.0000   1.0000
     1.0000   1.0000   1.0000   1.0000   1.0000   1.0000   1.0000   1.0000
     1.0000   1.0000   1.0000   1.0000   1.0000   1.0000   1.0000   1.0000
     1.0000   1.0000   1.0000   1.0000   1.0000   1.0000   1.0000   1.0000
     1.0000   1.0000   1.0000   1.0000   1.0000   1.0000   1.0000   1.0000
     1.0000   1.0000   1.0000   1.0000   1.0000   1.0000   1.0000   1.0000
     1.0000   1.0000   1.0000   1.0000   1.0000   1.0000   1.0000   1.0000
     1.0000   1.0000   1.0000   1.0000   1.0000   1.0000   1.0000   1.0000
     1.0000   1.0000   1.0000   1.0000   1.0000   1.0000   1.0000   1.0000
     1.0000   1.0000   1.0000   1.0000   1.0000   1.0000   1.0000   1.0000
     1.0000   1.0000   1.0000   1.0000   1.0000   1.0000   1.0000   1.0000
     1.0000   1.0000   1.0000   1.0000   1.0000   1.0000   1.0000   1.0000
     1.0000   1.0000   1.0000   1.0000   1.0000   1.0000   1.0000   1.0000
     1.0000   1.0000   1.0000   1.0000   1.0000   1.0000   1.0000   1.0000
     1.0000   1.0000   1.0000   1.0000   1.0000   1.0000   1.0000   1.0000
     1.0000   1.0000   1.0000   1.0000   1.0000   1.0000   1.0000   1.0000
     1.0000   1.0000   1.0000   1.0000   1.0000   1.0000   1.0000   1.0000
     1.0000   0.7688   0.7683   0.0000   0.0000   0.0000   0.0000   0.0000
     0.0000   0.0000   0.0000   0.0000   0.0000   0.0000   0.0000   0.0000
     0.0000   0.0000   0.0000   0.0000   0.0000   0.0000   0.0000   0.0000
     0.0000   0.0000   0.0000   0.0000   0.0000   0.0000   0.0000   0.0000
     0.0000   0.0000   0.0000   0.0000   0.0000   0.0000   0.0000   0.0000
     0.0000

          k = 0.0000-0.5774 0.0000 ( 75730 PWs)   bands (ev):

   -41.2049 -41.2048 -41.2048 -41.2048 -41.2048 -41.2048 -41.2045 -41.2045
   -41.2045 -41.2044 -41.2044 -41.2044 -41.2028 -41.2028 -41.2028 -41.2028
   -41.2028 -41.2027 -41.2024 -41.2024 -41.2023 -41.2023 -41.2023 -41.2023
   -41.2018 -41.2018 -41.2017 -41.2017 -41.2017 -41.2017 -41.1870 -41.1870
   -41.1870 -41.1870 -41.1820 -41.1820 -41.1820 -41.1820 -41.1797 -41.1796
   -40.6360 -40.6360 -40.6360 -40.6360 -40.6357 -40.6357 -40.6345 -40.6345
   -40.6345 -40.6345 -40.5286 -40.5221 -40.5220 -40.5067 -40.5067 -40.3901
   -40.3901 -40.3898 -40.3897 -40.3897 -40.3896 -40.3895 -40.3895 -40.3893
   -40.3893 -40.3891 -40.3891 -40.3828 -40.3828 -40.3824 -40.3823 -40.3821
   -40.3821 -40.3801 -40.3801 -40.3797 -40.3796 -40.3794 -40.3794 -40.3781
   -40.3780 -40.3776 -40.3776 -40.3773 -40.3773 -13.3791 -13.3774 -13.3635
   -13.3611 -13.3605 -13.3535 -13.3487 -13.3448 -13.3435 -13.3411 -13.3348
   -13.3337 -13.3328 -13.3328 -13.3301 -13.3274 -13.3260 -13.3257 -13.3244
   -13.3205 -12.6949 -12.6878 -12.6812 -12.6773 -12.6744 -12.6722 -12.6647
   -12.6590 -12.6563 -12.6544 -12.6542 -12.6500 -12.6415 -12.6401 -12.6383
    -8.3149  -8.3139  -8.0585  -8.0574  -7.9840  -7.9811  -7.9199  -7.9155
    -7.6275  -7.5922  -7.4364  -7.2557  -7.2523  -7.1629  -7.0804  -7.0752
    -6.7812  -4.0748  -4.0696  -3.8041  -3.7859  -3.3677  -3.2296  -3.1055
     0.8177   0.8256   0.9837   0.9910   1.1328   1.1455   1.4341   1.4712
     1.5484   1.5555   1.5788   1.6599   1.6953   1.7314   1.8082   1.8190
     1.8673   1.9199   2.0789   2.1012   2.1096   2.1579   2.1842   2.2863
     2.3609   2.4205   2.4705   2.4944   2.4962   2.5415   2.6159   2.6867
     2.7894   2.8638   2.8772   2.8913   2.9193   2.9661   2.9796   3.0404
     3.1245   3.1270   3.2243   3.4433   3.4476   3.5630   3.5678   3.6267
     4.2835   4.6515   4.6594   6.1736   6.1749   6.7201   6.7707   6.7856
     6.7959   6.8132   6.9457   6.9588   6.9734   7.0181   7.2235   7.2395
     7.4073   7.4174   7.4226   7.4866   7.5663   7.7821   7.7924   8.0455
     9.5319   9.5387   9.8890   9.9792  10.0059  10.0248  10.2088  10.2259
    10.5730  10.6560  10.7027  10.7276  10.7637  10.7716  10.9913  11.0388
    11.1679

     occupation numbers 
     1.0000   1.0000   1.0000   1.0000   1.0000   1.0000   1.0000   1.0000
     1.0000   1.0000   1.0000   1.0000   1.0000   1.0000   1.0000   1.0000
     1.0000   1.0000   1.0000   1.0000   1.0000   1.0000   1.0000   1.0000
     1.0000   1.0000   1.0000   1.0000   1.0000   1.0000   1.0000   1.0000
     1.0000   1.0000   1.0000   1.0000   1.0000   1.0000   1.0000   1.0000
     1.0000   1.0000   1.0000   1.0000   1.0000   1.0000   1.0000   1.0000
     1.0000   1.0000   1.0000   1.0000   1.0000   1.0000   1.0000   1.0000
     1.0000   1.0000   1.0000   1.0000   1.0000   1.0000   1.0000   1.0000
     1.0000   1.0000   1.0000   1.0000   1.0000   1.0000   1.0000   1.0000
     1.0000   1.0000   1.0000   1.0000   1.0000   1.0000   1.0000   1.0000
     1.0000   1.0000   1.0000   1.0000   1.0000   1.0000   1.0000   1.0000
     1.0000   1.0000   1.0000   1.0000   1.0000   1.0000   1.0000   1.0000
     1.0000   1.0000   1.0000   1.0000   1.0000   1.0000   1.0000   1.0000
     1.0000   1.0000   1.0000   1.0000   1.0000   1.0000   1.0000   1.0000
     1.0000   1.0000   1.0000   1.0000   1.0000   1.0000   1.0000   1.0000
     1.0000   1.0000   1.0000   1.0000   1.0000   1.0000   1.0000   1.0000
     1.0000   1.0000   1.0000   1.0000   1.0000   1.0000   1.0000   1.0000
     1.0000   1.0000   1.0000   1.0000   1.0000   1.0000   1.0000   1.0000
     1.0000   1.0000   1.0000   1.0000   1.0000   1.0000   1.0000   1.0000
     1.0000   1.0000   1.0000   1.0000   1.0000   1.0000   1.0000   1.0000
     1.0000   1.0000   1.0000   1.0000   1.0000   1.0000   1.0000   1.0000
     1.0000   1.0000   1.0000   1.0000   1.0000   1.0000   1.0000   1.0000
     1.0000   1.0000   1.0000   1.0000   1.0000   1.0000   1.0000   1.0000
     1.0000   1.0000   1.0000   1.0000   1.0000   1.0000   1.0000   1.0000
     0.9999   0.4266   0.3946   0.0000   0.0000   0.0000   0.0000   0.0000
     0.0000   0.0000   0.0000   0.0000   0.0000   0.0000   0.0000   0.0000
     0.0000   0.0000   0.0000   0.0000   0.0000   0.0000   0.0000   0.0000
     0.0000   0.0000   0.0000   0.0000   0.0000   0.0000   0.0000   0.0000
     0.0000   0.0000   0.0000   0.0000   0.0000   0.0000   0.0000   0.0000
     0.0000

          k = 0.5000-0.2887 0.0000 ( 75730 PWs)   bands (ev):

   -41.2049 -41.2048 -41.2048 -41.2048 -41.2048 -41.2048 -41.2045 -41.2045
   -41.2045 -41.2044 -41.2044 -41.2044 -41.2028 -41.2028 -41.2028 -41.2028
   -41.2028 -41.2027 -41.2024 -41.2024 -41.2023 -41.2023 -41.2023 -41.2023
   -41.2018 -41.2017 -41.2017 -41.2017 -41.2017 -41.2017 -41.1870 -41.1870
   -41.1870 -41.1870 -41.1820 -41.1820 -41.1820 -41.1820 -41.1797 -41.1796
   -40.6360 -40.6360 -40.6360 -40.6360 -40.6357 -40.6357 -40.6345 -40.6345
   -40.6345 -40.6345 -40.5286 -40.5221 -40.5220 -40.5067 -40.5067 -40.3901
   -40.3901 -40.3898 -40.3897 -40.3897 -40.3896 -40.3895 -40.3895 -40.3893
   -40.3893 -40.3891 -40.3891 -40.3828 -40.3828 -40.3824 -40.3823 -40.3821
   -40.3820 -40.3801 -40.3801 -40.3797 -40.3796 -40.3794 -40.3794 -40.3781
   -40.3780 -40.3776 -40.3776 -40.3773 -40.3773 -13.3791 -13.3774 -13.3635
   -13.3611 -13.3605 -13.3535 -13.3487 -13.3448 -13.3435 -13.3410 -13.3348
   -13.3337 -13.3329 -13.3327 -13.3301 -13.3274 -13.3259 -13.3257 -13.3245
   -13.3206 -12.6949 -12.6878 -12.6812 -12.6773 -12.6744 -12.6722 -12.6647
   -12.6590 -12.6563 -12.6544 -12.6542 -12.6500 -12.6415 -12.6401 -12.6384
    -8.3149  -8.3139  -8.0585  -8.0574  -7.9841  -7.9810  -7.9199  -7.9155
    -7.6275  -7.5921  -7.4365  -7.2557  -7.2527  -7.1626  -7.0801  -7.0755
    -6.7812  -4.0748  -4.0696  -3.8041  -3.7859  -3.3677  -3.2295  -3.1056
     0.8177   0.8255   0.9837   0.9909   1.1328   1.1456   1.4341   1.4712
     1.5483   1.5553   1.5790   1.6599   1.6952   1.7318   1.8082   1.8189
     1.8673   1.9199   2.0789   2.1011   2.1096   2.1581   2.1842   2.2858
     2.3609   2.4205   2.4706   2.4944   2.4962   2.5414   2.6157   2.6871
     2.7895   2.8638   2.8772   2.8914   2.9193   2.9662   2.9796   3.0404
     3.1244   3.1272   3.2241   3.4429   3.4476   3.5632   3.5682   3.6268
     4.2835   4.6514   4.6595   6.1736   6.1749   6.7200   6.7707   6.7857
     6.7958   6.8132   6.9456   6.9589   6.9735   7.0181   7.2236   7.2394
     7.4074   7.4174   7.4225   7.4867   7.5664   7.7822   7.7924   8.0454
     9.5319   9.5387   9.8890   9.9792  10.0059  10.0248  10.2089  10.2257
    10.5729  10.6559  10.7026  10.7277  10.7637  10.7716  10.9913  11.0388
    11.1679

     occupation numbers 
     1.0000   1.0000   1.0000   1.0000   1.0000   1.0000   1.0000   1.0000
     1.0000   1.0000   1.0000   1.0000   1.0000   1.0000   1.0000   1.0000
     1.0000   1.0000   1.0000   1.0000   1.0000   1.0000   1.0000   1.0000
     1.0000   1.0000   1.0000   1.0000   1.0000   1.0000   1.0000   1.0000
     1.0000   1.0000   1.0000   1.0000   1.0000   1.0000   1.0000   1.0000
     1.0000   1.0000   1.0000   1.0000   1.0000   1.0000   1.0000   1.0000
     1.0000   1.0000   1.0000   1.0000   1.0000   1.0000   1.0000   1.0000
     1.0000   1.0000   1.0000   1.0000   1.0000   1.0000   1.0000   1.0000
     1.0000   1.0000   1.0000   1.0000   1.0000   1.0000   1.0000   1.0000
     1.0000   1.0000   1.0000   1.0000   1.0000   1.0000   1.0000   1.0000
     1.0000   1.0000   1.0000   1.0000   1.0000   1.0000   1.0000   1.0000
     1.0000   1.0000   1.0000   1.0000   1.0000   1.0000   1.0000   1.0000
     1.0000   1.0000   1.0000   1.0000   1.0000   1.0000   1.0000   1.0000
     1.0000   1.0000   1.0000   1.0000   1.0000   1.0000   1.0000   1.0000
     1.0000   1.0000   1.0000   1.0000   1.0000   1.0000   1.0000   1.0000
     1.0000   1.0000   1.0000   1.0000   1.0000   1.0000   1.0000   1.0000
     1.0000   1.0000   1.0000   1.0000   1.0000   1.0000   1.0000   1.0000
     1.0000   1.0000   1.0000   1.0000   1.0000   1.0000   1.0000   1.0000
     1.0000   1.0000   1.0000   1.0000   1.0000   1.0000   1.0000   1.0000
     1.0000   1.0000   1.0000   1.0000   1.0000   1.0000   1.0000   1.0000
     1.0000   1.0000   1.0000   1.0000   1.0000   1.0000   1.0000   1.0000
     1.0000   1.0000   1.0000   1.0000   1.0000   1.0000   1.0000   1.0000
     1.0000   1.0000   1.0000   1.0000   1.0000   1.0000   1.0000   1.0000
     1.0000   1.0000   1.0000   1.0000   1.0000   1.0000   1.0000   1.0000
     0.9999   0.4270   0.3941   0.0000   0.0000   0.0000   0.0000   0.0000
     0.0000   0.0000   0.0000   0.0000   0.0000   0.0000   0.0000   0.0000
     0.0000   0.0000   0.0000   0.0000   0.0000   0.0000   0.0000   0.0000
     0.0000   0.0000   0.0000   0.0000   0.0000   0.0000   0.0000   0.0000
     0.0000   0.0000   0.0000   0.0000   0.0000   0.0000   0.0000   0.0000
     0.0000

          k =-0.5000-0.2887 0.0000 ( 75730 PWs)   bands (ev):

   -41.2049 -41.2048 -41.2048 -41.2048 -41.2048 -41.2048 -41.2045 -41.2045
   -41.2045 -41.2044 -41.2044 -41.2044 -41.2029 -41.2028 -41.2028 -41.2028
   -41.2028 -41.2027 -41.2024 -41.2024 -41.2023 -41.2023 -41.2023 -41.2023
   -41.2018 -41.2018 -41.2017 -41.2017 -41.2017 -41.2017 -41.1870 -41.1870
   -41.1870 -41.1870 -41.1820 -41.1820 -41.1820 -41.1820 -41.1797 -41.1796
   -40.6360 -40.6360 -40.6360 -40.6360 -40.6357 -40.6357 -40.6345 -40.6345
   -40.6345 -40.6345 -40.5286 -40.5221 -40.5220 -40.5067 -40.5067 -40.3901
   -40.3901 -40.3898 -40.3897 -40.3897 -40.3896 -40.3895 -40.3895 -40.3893
   -40.3893 -40.3891 -40.3891 -40.3828 -40.3828 -40.3824 -40.3823 -40.3821
   -40.3821 -40.3801 -40.3801 -40.3797 -40.3796 -40.3794 -40.3794 -40.3781
   -40.3780 -40.3776 -40.3776 -40.3773 -40.3773 -13.3791 -13.3774 -13.3635
   -13.3611 -13.3605 -13.3535 -13.3487 -13.3448 -13.3435 -13.3411 -13.3347
   -13.3337 -13.3328 -13.3328 -13.3301 -13.3274 -13.3260 -13.3258 -13.3244
   -13.3205 -12.6949 -12.6878 -12.6812 -12.6773 -12.6744 -12.6722 -12.6647
   -12.6590 -12.6563 -12.6544 -12.6542 -12.6500 -12.6415 -12.6401 -12.6384
    -8.3149  -8.3139  -8.0585  -8.0574  -7.9840  -7.9811  -7.9199  -7.9155
    -7.6275  -7.5922  -7.4364  -7.2557  -7.2525  -7.1628  -7.0803  -7.0753
    -6.7812  -4.0748  -4.0696  -3.8042  -3.7859  -3.3677  -3.2295  -3.1056
     0.8177   0.8256   0.9837   0.9909   1.1328   1.1455   1.4341   1.4712
     1.5483   1.5554   1.5789   1.6599   1.6953   1.7315   1.8082   1.8190
     1.8673   1.9199   2.0789   2.1012   2.1096   2.1580   2.1842   2.2861
     2.3609   2.4205   2.4706   2.4944   2.4962   2.5415   2.6159   2.6869
     2.7894   2.8638   2.8772   2.8913   2.9193   2.9661   2.9796   3.0404
     3.1244   3.1271   3.2242   3.4431   3.4476   3.5631   3.5679   3.6267
     4.2835   4.6514   4.6594   6.1736   6.1749   6.7201   6.7707   6.7856
     6.7959   6.8132   6.9456   6.9588   6.9734   7.0181   7.2235   7.2395
     7.4074   7.4174   7.4226   7.4867   7.5663   7.7822   7.7924   8.0454
     9.5319   9.5387   9.8890   9.9792  10.0059  10.0248  10.2088  10.2258
    10.5729  10.6559  10.7027  10.7277  10.7637  10.7716  10.9913  11.0388
    11.1679

     occupation numbers 
     1.0000   1.0000   1.0000   1.0000   1.0000   1.0000   1.0000   1.0000
     1.0000   1.0000   1.0000   1.0000   1.0000   1.0000   1.0000   1.0000
     1.0000   1.0000   1.0000   1.0000   1.0000   1.0000   1.0000   1.0000
     1.0000   1.0000   1.0000   1.0000   1.0000   1.0000   1.0000   1.0000
     1.0000   1.0000   1.0000   1.0000   1.0000   1.0000   1.0000   1.0000
     1.0000   1.0000   1.0000   1.0000   1.0000   1.0000   1.0000   1.0000
     1.0000   1.0000   1.0000   1.0000   1.0000   1.0000   1.0000   1.0000
     1.0000   1.0000   1.0000   1.0000   1.0000   1.0000   1.0000   1.0000
     1.0000   1.0000   1.0000   1.0000   1.0000   1.0000   1.0000   1.0000
     1.0000   1.0000   1.0000   1.0000   1.0000   1.0000   1.0000   1.0000
     1.0000   1.0000   1.0000   1.0000   1.0000   1.0000   1.0000   1.0000
     1.0000   1.0000   1.0000   1.0000   1.0000   1.0000   1.0000   1.0000
     1.0000   1.0000   1.0000   1.0000   1.0000   1.0000   1.0000   1.0000
     1.0000   1.0000   1.0000   1.0000   1.0000   1.0000   1.0000   1.0000
     1.0000   1.0000   1.0000   1.0000   1.0000   1.0000   1.0000   1.0000
     1.0000   1.0000   1.0000   1.0000   1.0000   1.0000   1.0000   1.0000
     1.0000   1.0000   1.0000   1.0000   1.0000   1.0000   1.0000   1.0000
     1.0000   1.0000   1.0000   1.0000   1.0000   1.0000   1.0000   1.0000
     1.0000   1.0000   1.0000   1.0000   1.0000   1.0000   1.0000   1.0000
     1.0000   1.0000   1.0000   1.0000   1.0000   1.0000   1.0000   1.0000
     1.0000   1.0000   1.0000   1.0000   1.0000   1.0000   1.0000   1.0000
     1.0000   1.0000   1.0000   1.0000   1.0000   1.0000   1.0000   1.0000
     1.0000   1.0000   1.0000   1.0000   1.0000   1.0000   1.0000   1.0000
     1.0000   1.0000   1.0000   1.0000   1.0000   1.0000   1.0000   1.0000
     0.9999   0.4267   0.3944   0.0000   0.0000   0.0000   0.0000   0.0000
     0.0000   0.0000   0.0000   0.0000   0.0000   0.0000   0.0000   0.0000
     0.0000   0.0000   0.0000   0.0000   0.0000   0.0000   0.0000   0.0000
     0.0000   0.0000   0.0000   0.0000   0.0000   0.0000   0.0000   0.0000
     0.0000   0.0000   0.0000   0.0000   0.0000   0.0000   0.0000   0.0000
     0.0000

     the Fermi energy is     4.6337 ev

!    total energy              =  -15855.75520708 Ry
     total all-electron energy =   -534697.331239 Ry
     estimated scf accuracy    <          7.9E-10 Ry
     smearing contrib. (-TS)   =      -0.01040240 Ry
     internal energy E=F+TS    =  -15855.74480469 Ry

     The total energy is F=E-TS. E is the sum of the following terms:
     one-electron contribution =   -3064.17574898 Ry
     hartree contribution      =    1703.71494766 Ry
     xc contribution           =   -1154.92220802 Ry
     ewald contribution        =   -2516.45796620 Ry
     one-center paw contrib.   =  -10823.90382915 Ry
      -> PAW hartree energy AE =     192.15371184 Ry
      -> PAW hartree energy PS =    -192.63038458 Ry
      -> PAW xc energy AE      =   -1596.89045003 Ry
      -> PAW xc energy PS      =      66.64788595 Ry
      -> total E_H with PAW    =    1703.23827493 Ry
      -> total E_XC with PAW   =   -2685.16477210 Ry

     convergence has been achieved in   1 iterations


     -----------------------------------------------
     Non-local corr. energy    =      11.80613278 Ry
     -----------------------------------------------


     Forces acting on atoms (cartesian axes, Ry/au):

     atom    1 type  1   force =     0.00000216   -0.00000024    0.00000090
     atom    2 type  1   force =    -0.00000162   -0.00000142   -0.00000565
     atom    3 type  1   force =     0.00000041    0.00000043   -0.00000301
     atom    4 type  1   force =     0.00000042    0.00000061   -0.00000074
     atom    5 type  1   force =    -0.00000095    0.00000013    0.00000030
     atom    6 type  1   force =    -0.00000039   -0.00000085    0.00000592
     atom    7 type  1   force =     0.00000034   -0.00000128    0.00000347
     atom    8 type  2   force =     0.00001091    0.00014559   -0.00035842
     atom    9 type  2   force =     0.00000796    0.00028474   -0.00003834
     atom   10 type  2   force =     0.00012254   -0.00007051   -0.00035583
     atom   11 type  2   force =     0.00024785   -0.00013901   -0.00004293
     atom   12 type  2   force =    -0.00001006    0.00000454    0.00088037
     atom   13 type  2   force =    -0.00001132   -0.00000088   -0.00025045
     atom   14 type  2   force =    -0.00012375   -0.00008231   -0.00035486
     atom   15 type  2   force =    -0.00025427   -0.00015140   -0.00003740
     atom   16 type  2   force =     0.00024612    0.00014025    0.00004531
     atom   17 type  2   force =     0.00012321    0.00007584    0.00035242
     atom   18 type  2   force =    -0.00001304   -0.00000275    0.00025430
     atom   19 type  2   force =    -0.00000507   -0.00000718   -0.00088203
     atom   20 type  2   force =    -0.00025200    0.00015652    0.00004353
     atom   21 type  2   force =    -0.00012431    0.00007926    0.00034894
     atom   22 type  2   force =     0.00001248   -0.00028236    0.00004173
     atom   23 type  2   force =     0.00000281   -0.00014948    0.00035275
     atom   24 type  2   force =     0.00001956    0.00000175   -0.00000030
     The non-local contrib.  to forces
     atom    1 type  1   force =    -0.00004303   -0.00003075   -0.00001354
     atom    2 type  1   force =    -0.00000020   -0.00004070    0.00011989
     atom    3 type  1   force =     0.00000726   -0.00004123    0.00008474
     atom    4 type  1   force =     0.00005001   -0.00004232    0.00000016
     atom    5 type  1   force =     0.00004354   -0.00003259   -0.00000626
     atom    6 type  1   force =     0.00003221    0.00001071   -0.00012505
     atom    7 type  1   force =     0.00000684    0.00000700   -0.00006433
     atom    8 type  2   force =    -0.00000192   -0.00069802    0.26423750
     atom    9 type  2   force =    -0.00003229   -0.06745667    0.14705995
     atom   10 type  2   force =    -0.00061650    0.00036085    0.26425557
     atom   11 type  2   force =    -0.05838361    0.03370809    0.14705687
     atom   12 type  2   force =    -0.00000177    0.00001659    0.29057321
     atom   13 type  2   force =    -0.00000232    0.00000194    0.21990204
     atom   14 type  2   force =     0.00061448    0.00036256    0.26422514
     atom   15 type  2   force =     0.05838554    0.03374103    0.14706675
     atom   16 type  2   force =    -0.05842475   -0.03367880   -0.14705489
     atom   17 type  2   force =    -0.00062030   -0.00033115   -0.26425840
     atom   18 type  2   force =    -0.00000601    0.00000171   -0.21989550
     atom   19 type  2   force =     0.00001058   -0.00000321   -0.29057673
     atom   20 type  2   force =     0.05838958   -0.03369935   -0.14706675
     atom   21 type  2   force =     0.00061849   -0.00034419   -0.26423600
     atom   22 type  2   force =    -0.00004017    0.06744971   -0.14705324
     atom   23 type  2   force =    -0.00001219    0.00071565   -0.26423929
     atom   24 type  2   force =    -0.00000612    0.00000463    0.00000486
     The ionic contribution  to forces
     atom    1 type  1   force =     0.00322776    0.00103184    0.00028229
     atom    2 type  1   force =     0.00011389    0.00216805   -0.00474792
     atom    3 type  1   force =    -0.00018091    0.00171913   -0.00396322
     atom    4 type  1   force =    -0.00413822    0.00135096    0.00106268
     atom    5 type  1   force =    -0.00316072    0.00108073    0.00010405
     atom    6 type  1   force =    -0.00116895   -0.00227850    0.00487581
     atom    7 type  1   force =    -0.00017642   -0.00193428    0.00203076
     atom    8 type  2   force =     0.00358163    0.54116069  -14.91908604
     atom    9 type  2   force =     0.00420425    5.51140429  -11.99559301
     atom   10 type  2   force =     0.46873920   -0.26919807  -14.91861696
     atom   11 type  2   force =     4.77091195   -2.75204112  -11.99830707
     atom   12 type  2   force =    -0.00327523    0.00020315  -12.36026543
     atom   13 type  2   force =    -0.00361026   -0.00103713  -14.02278079
     atom   14 type  2   force =    -0.46860288   -0.27308446  -14.91904962
     atom   15 type  2   force =    -4.77307109   -2.75796512  -11.99601746
     atom   16 type  2   force =     4.77170277    2.75214174   11.99779817
     atom   17 type  2   force =     0.46912282    0.27048450   14.91819450
     atom   18 type  2   force =    -0.00409262   -0.00040663   14.02390586
     atom   19 type  2   force =    -0.00150702   -0.00144344   12.35893357
     atom   20 type  2   force =    -4.77207618    2.75755414   11.99814547
     atom   21 type  2   force =    -0.46905656    0.27255463   14.91780685
     atom   22 type  2   force =     0.00472056   -5.51103950   11.99665195
     atom   23 type  2   force =     0.00191444   -0.54270701   14.91824931
     atom   24 type  2   force =     0.00587780    0.00028145    0.00038626
     The local contribution  to forces
     atom    1 type  1   force =    -0.00318321   -0.00099860   -0.00026674
     atom    2 type  1   force =    -0.00011695   -0.00212709    0.00462280
     atom    3 type  1   force =     0.00017340   -0.00167513    0.00387812
     atom    4 type  1   force =     0.00408849   -0.00130536   -0.00106533
     atom    5 type  1   force =     0.00311533   -0.00104519   -0.00009595
     atom    6 type  1   force =     0.00113628    0.00226968   -0.00474785
     atom    7 type  1   force =     0.00016929    0.00192811   -0.00196256
     atom    8 type  2   force =    -0.00356889   -0.54029568   14.66005582
     atom    9 type  2   force =    -0.00416481   -5.44498838   11.85167601
     atom   10 type  2   force =    -0.46797486    0.26876174   14.65956688
     atom   11 type  2   force =    -4.71342977    2.71886491   11.85439236
     atom   12 type  2   force =     0.00326684   -0.00022508   12.07680412
     atom   13 type  2   force =     0.00360243    0.00102782   13.80755575
     atom   14 type  2   force =     0.46783935    0.27263443   14.66003044
     atom   15 type  2   force =     4.71558256    2.72474536   11.85209825
     atom   16 type  2   force =    -4.71418411   -2.71899331  -11.85388716
     atom   17 type  2   force =    -0.46835419   -0.27006946  -14.65913690
     atom   18 type  2   force =     0.00408843    0.00040934  -13.80868875
     atom   19 type  2   force =     0.00149416    0.00144938  -12.07546784
     atom   20 type  2   force =     4.71458209   -2.72436990  -11.85422525
     atom   21 type  2   force =     0.46828888   -0.27212570  -14.65877683
     atom   22 type  2   force =    -0.00467156    5.44463453  -11.85274149
     atom   23 type  2   force =    -0.00190155    0.54182193  -14.65921666
     atom   24 type  2   force =    -0.00585364   -0.00028446   -0.00039471
     The core correction contribution to forces
     atom    1 type  1   force =     0.00000076    0.00000035    0.00000014
     atom    2 type  1   force =     0.00000050    0.00000096   -0.00000180
     atom    3 type  1   force =    -0.00000013    0.00000047   -0.00000155
     atom    4 type  1   force =    -0.00000117    0.00000047    0.00000016
     atom    5 type  1   force =    -0.00000076    0.00000034    0.00000011
     atom    6 type  1   force =    -0.00000019   -0.00000069    0.00000143
     atom    7 type  1   force =    -0.00000011   -0.00000038    0.00000094
     atom    8 type  2   force =     0.00000056   -0.00002626   -0.00557978
     atom    9 type  2   force =     0.00000103    0.00130479   -0.00318754
     atom   10 type  2   force =    -0.00002496    0.00001681   -0.00558030
     atom   11 type  2   force =     0.00112522   -0.00064629   -0.00318970
     atom   12 type  2   force =    -0.00000236    0.00000190   -0.00624381
     atom   13 type  2   force =    -0.00000299    0.00000234   -0.00492337
     atom   14 type  2   force =     0.00002329    0.00001537   -0.00557969
     atom   15 type  2   force =    -0.00112710   -0.00064831   -0.00318874
     atom   16 type  2   force =     0.00112686    0.00065171    0.00318964
     atom   17 type  2   force =    -0.00002503   -0.00001253    0.00557911
     atom   18 type  2   force =    -0.00000293    0.00000246    0.00492472
     atom   19 type  2   force =    -0.00000262    0.00000230    0.00624503
     atom   20 type  2   force =    -0.00112477    0.00065233    0.00319108
     atom   21 type  2   force =     0.00002329   -0.00001110    0.00557896
     atom   22 type  2   force =     0.00000181   -0.00130055    0.00318882
     atom   23 type  2   force =     0.00000049    0.00002961    0.00557894
     atom   24 type  2   force =     0.00000083    0.00000257   -0.00000061
     The Hubbard contrib.    to forces
     atom    1 type  1   force =     0.00000000    0.00000000    0.00000000
     atom    2 type  1   force =     0.00000000    0.00000000    0.00000000
     atom    3 type  1   force =     0.00000000    0.00000000    0.00000000
     atom    4 type  1   force =     0.00000000    0.00000000    0.00000000
     atom    5 type  1   force =     0.00000000    0.00000000    0.00000000
     atom    6 type  1   force =     0.00000000    0.00000000    0.00000000
     atom    7 type  1   force =     0.00000000    0.00000000    0.00000000
     atom    8 type  2   force =     0.00000000    0.00000000    0.00000000
     atom    9 type  2   force =     0.00000000    0.00000000    0.00000000
     atom   10 type  2   force =     0.00000000    0.00000000    0.00000000
     atom   11 type  2   force =     0.00000000    0.00000000    0.00000000
     atom   12 type  2   force =     0.00000000    0.00000000    0.00000000
     atom   13 type  2   force =     0.00000000    0.00000000    0.00000000
     atom   14 type  2   force =     0.00000000    0.00000000    0.00000000
     atom   15 type  2   force =     0.00000000    0.00000000    0.00000000
     atom   16 type  2   force =     0.00000000    0.00000000    0.00000000
     atom   17 type  2   force =     0.00000000    0.00000000    0.00000000
     atom   18 type  2   force =     0.00000000    0.00000000    0.00000000
     atom   19 type  2   force =     0.00000000    0.00000000    0.00000000
     atom   20 type  2   force =     0.00000000    0.00000000    0.00000000
     atom   21 type  2   force =     0.00000000    0.00000000    0.00000000
     atom   22 type  2   force =     0.00000000    0.00000000    0.00000000
     atom   23 type  2   force =     0.00000000    0.00000000    0.00000000
     atom   24 type  2   force =     0.00000000    0.00000000    0.00000000
     The SCF correction term to forces
     atom    1 type  1   force =    -0.00000090   -0.00000039   -0.00000116
     atom    2 type  1   force =     0.00000036    0.00000006    0.00000147
     atom    3 type  1   force =     0.00000001   -0.00000012   -0.00000100
     atom    4 type  1   force =     0.00000052   -0.00000044    0.00000168
     atom    5 type  1   force =     0.00000088   -0.00000046   -0.00000155
     atom    6 type  1   force =    -0.00000052    0.00000064    0.00000168
     atom    7 type  1   force =    -0.00000005    0.00000095   -0.00000124
     atom    8 type  2   force =    -0.00000125    0.00000755    0.00001418
     atom    9 type  2   force =    -0.00000101    0.00002341    0.00000634
     atom   10 type  2   force =    -0.00000112   -0.00000914    0.00001908
     atom   11 type  2   force =     0.00002328   -0.00002192    0.00000471
     atom   12 type  2   force =     0.00000167    0.00001067    0.00001238
     atom   13 type  2   force =     0.00000104    0.00000685   -0.00000398
     atom   14 type  2   force =     0.00000123   -0.00000752    0.00001897
     atom   15 type  2   force =    -0.00002496   -0.00002167    0.00000390
     atom   16 type  2   force =     0.00002457    0.00002159   -0.00000037
     atom   17 type  2   force =    -0.00000087    0.00000717   -0.00002580
     atom   18 type  2   force =    -0.00000069   -0.00000693    0.00000806
     atom   19 type  2   force =    -0.00000096   -0.00000951   -0.00001596
     atom   20 type  2   force =    -0.00002350    0.00002200   -0.00000092
     atom   21 type  2   force =     0.00000080    0.00000832   -0.00002395
     atom   22 type  2   force =     0.00000105   -0.00002386   -0.00000421
     atom   23 type  2   force =     0.00000083   -0.00000696   -0.00001945
     atom   24 type  2   force =    -0.00000009    0.00000025    0.00000398

     Total force =     0.001752     Total SCF correction =     0.000096


     Computing stress (Cartesian axis) and pressure



     -----------------------------------------------
     Non-local corr. energy    =      11.80613278 Ry
     -----------------------------------------------

          total   stress  (Ry/bohr**3)                   (kbar)     P=       18.01
   0.00012353   0.00000001  -0.00000001           18.17        0.00       -0.00
   0.00000001   0.00012355   0.00000001            0.00       18.18        0.00
  -0.00000001   0.00000001   0.00012013           -0.00        0.00       17.67

     kinetic stress (kbar)  14706.89      0.01     -0.01
                                0.01  14706.91      0.01
                               -0.01      0.01  14713.32

     local   stress (kbar)  -6925.52      0.12     -0.18
                                0.12  -6925.25      0.19
                               -0.18      0.19    329.66

     nonloc. stress (kbar)   -636.08      0.00     -0.00
                                0.00   -636.06      0.01
                               -0.00      0.01   -640.12

     hartree stress (kbar)  12012.45     -0.04      0.08
                               -0.04  12012.36     -0.08
                                0.08     -0.08   8710.00

     exc-cor stress (kbar)   7089.72     -0.00     -0.00
                               -0.00   7089.72      0.00
                               -0.00      0.00   7089.39

     corecor stress (kbar) -11516.90     -0.00      0.00
                               -0.00 -11516.90     -0.00
                                0.00     -0.00 -11516.90

     ewald   stress (kbar) -14798.11     -0.08      0.11
                               -0.08 -14798.30     -0.12
                                0.11     -0.12 -18754.27

     hubbard stress (kbar)      0.00      0.00      0.00
                                0.00      0.00      0.00
                                0.00      0.00      0.00

     DFT-D   stress (kbar)      0.00      0.00      0.00
                                0.00      0.00      0.00
                                0.00      0.00      0.00

     XDM     stress (kbar)      0.00      0.00      0.00
                                0.00      0.00      0.00
                                0.00      0.00      0.00

     dft-nl  stress (kbar)     85.71      0.00     -0.00
                                0.00     85.71     -0.00
                               -0.00     -0.00     86.58

     TS-vdW  stress (kbar)      0.00      0.00      0.00
                                0.00      0.00      0.00
                                0.00      0.00      0.00

     MDB     stress (kbar)      0.00      0.00      0.00
                                0.00      0.00      0.00
                                0.00      0.00      0.00

     3D-RISM stress (kbar)      0.00      0.00      0.00
                                0.00      0.00      0.00
                                0.00      0.00      0.00



     -----------------------------------------------
     Non-local corr. energy    =      11.80613278 Ry
     -----------------------------------------------



     -----------------------------------------------
     Non-local corr. energy    =      11.80613278 Ry
     -----------------------------------------------



     -----------------------------------------------
     Non-local corr. energy    =      11.80613278 Ry
     -----------------------------------------------



     -----------------------------------------------
     Non-local corr. energy    =      11.80613278 Ry
     -----------------------------------------------



     -----------------------------------------------
     Non-local corr. energy    =      11.80613278 Ry
     -----------------------------------------------



     -----------------------------------------------
     Non-local corr. energy    =      11.80613278 Ry
     -----------------------------------------------



     -----------------------------------------------
     Non-local corr. energy    =      11.80613278 Ry
     -----------------------------------------------



     -----------------------------------------------
     Non-local corr. energy    =      11.80613278 Ry
     -----------------------------------------------



     -----------------------------------------------
     Non-local corr. energy    =      11.80613278 Ry
     -----------------------------------------------



     -----------------------------------------------
     Non-local corr. energy    =      11.80613278 Ry
     -----------------------------------------------



     -----------------------------------------------
     Non-local corr. energy    =      11.80613278 Ry
     -----------------------------------------------



     -----------------------------------------------
     Non-local corr. energy    =      11.80613278 Ry
     -----------------------------------------------



     -----------------------------------------------
     Non-local corr. energy    =      11.80613278 Ry
     -----------------------------------------------



     -----------------------------------------------
     Non-local corr. energy    =      11.80613278 Ry
     -----------------------------------------------



     -----------------------------------------------
     Non-local corr. energy    =      11.80613278 Ry
     -----------------------------------------------



     -----------------------------------------------
     Non-local corr. energy    =      11.80613278 Ry
     -----------------------------------------------



     -----------------------------------------------
     Non-local corr. energy    =      11.80613278 Ry
     -----------------------------------------------



     -----------------------------------------------
     Non-local corr. energy    =      11.80613278 Ry
     -----------------------------------------------



     -----------------------------------------------
     Non-local corr. energy    =      11.80613278 Ry
     -----------------------------------------------



     -----------------------------------------------
     Non-local corr. energy    =      11.80613278 Ry
     -----------------------------------------------



     -----------------------------------------------
     Non-local corr. energy    =      11.80613278 Ry
     -----------------------------------------------



     -----------------------------------------------
     Non-local corr. energy    =      11.80613278 Ry
     -----------------------------------------------



     -----------------------------------------------
     Non-local corr. energy    =      11.80613278 Ry
     -----------------------------------------------



     -----------------------------------------------
     Non-local corr. energy    =      11.80613278 Ry
     -----------------------------------------------



     -----------------------------------------------
     Non-local corr. energy    =      11.80613278 Ry
     -----------------------------------------------



     -----------------------------------------------
     Non-local corr. energy    =      11.80613278 Ry
     -----------------------------------------------



     -----------------------------------------------
     Non-local corr. energy    =      11.80613278 Ry
     -----------------------------------------------



     -----------------------------------------------
     Non-local corr. energy    =      11.80613278 Ry
     -----------------------------------------------



     -----------------------------------------------
     Non-local corr. energy    =      11.80613278 Ry
     -----------------------------------------------



     -----------------------------------------------
     Non-local corr. energy    =      11.80613278 Ry
     -----------------------------------------------



     -----------------------------------------------
     Non-local corr. energy    =      11.80613278 Ry
     -----------------------------------------------



     -----------------------------------------------
     Non-local corr. energy    =      11.80613278 Ry
     -----------------------------------------------



     -----------------------------------------------
     Non-local corr. energy    =      11.80613278 Ry
     -----------------------------------------------



     -----------------------------------------------
     Non-local corr. energy    =      11.80613278 Ry
     -----------------------------------------------

 BEEFens 2000 ensemble energies
             -0.983285013256028E+01
             -0.991494159705151E+02
             -0.450991572183566E+02
              0.346151777985325E+02
             -0.757685752788391E+02
             -0.928145661032900E+02
              0.476196642150728E+02
              0.225191950756653E+00
              0.803140605459934E+02
             -0.507866827378717E+01
              0.410315459849379E+02
              0.426697472286105E+01
             -0.315976303996698E+01
             -0.253731802308027E+01
              0.513245491068059E+02
             -0.384922732672634E+02
             -0.757632227291361E+02
             -0.244170141751957E+02
              0.219760232363534E+02
             -0.406645217460891E+00
              0.111653232431957E+03
              0.932112588062564E+02
             -0.574515895423608E+02
              0.198574907265173E+02
             -0.119619595010942E+03
              0.982119047831771E+02
              0.335531628130034E+02
              0.887258335614463E+02
              0.598199696243478E+02
             -0.277874981139329E+02
              0.218798889421647E+02
             -0.391684352248462E+02
              0.163006065343257E+02
              0.594218222218037E+02
              0.639082171251625E+02
             -0.277673733910203E+02
              0.141161546863668E+03
             -0.567349426846602E+02
             -0.378424863481923E+02
              0.564420048428133E+02
              0.248617995537037E+02
              0.428536526851847E+02
             -0.828173016160036E+02
             -0.534325731808224E+01
              0.794980434312785E+02
              0.103853845760435E+03
             -0.105374446883423E+03
              0.681089278442286E+01
              0.365831914526756E+02
              0.235978104347511E+02
              0.412753360931811E+02
              0.905568211521233E+02
             -0.587845898480376E+02
             -0.570753215085738E+02
             -0.795585816172663E+02
             -0.116256294428771E+02
             -0.678594662699896E+02
              0.879704526404595E+01
             -0.978657585405654E+01
             -0.538030895305582E+02
              0.878338317416088E+02
              0.890697994393345E+02
             -0.245311162956552E+02
             -0.671805907132999E+02
             -0.408336997864877E+02
             -0.265489258730712E+01
              0.647727651784152E+02
             -0.907336800252938E+01
             -0.647188633852766E+02
              0.597704709702893E+02
             -0.110938616444804E+03
              0.981421170903007E+02
             -0.113679340876147E+03
             -0.498572086992490E+02
             -0.163196632298316E+02
             -0.104032670730211E+02
              0.587519434706681E+01
              0.785291243192555E+02
              0.492909327330041E+02
             -0.826790963604052E+02
             -0.109676941334250E+03
             -0.572353260472791E+02
             -0.425008113699967E+02
              0.644392692953556E+01
             -0.135581728549478E+02
             -0.398205684631338E+02
              0.486907873055426E+02
             -0.416467027072846E+02
              0.162017357493130E+03
             -0.743156075922336E+02
              0.162293659145112E+02
              0.169387951376366E+02
              0.243518936618452E+02
              0.562765516755517E+02
              0.401322997169557E+02
              0.381134889128303E+02
             -0.625335897482770E+02
              0.370796499024927E+02
              0.907294428332773E+01
             -0.123372716100488E+01
              0.733847004037582E+02
             -0.867420807050848E+02
              0.146753503973954E+03
             -0.344901105867671E+02
             -0.156609927373487E+03
              0.872694107265028E+01
              0.143366132126291E+02
             -0.429235359726733E+02
             -0.824424184008130E+02
             -0.414720501474568E+02
             -0.305749487254617E+02
              0.100268163513044E+01
             -0.649729952676198E+02
              0.349321704019690E+01
              0.708054328040583E+01
              0.150020462412654E+02
              0.141243044480145E+03
              0.168143029220847E+02
             -0.856708178653053E+02
             -0.643341073699536E+02
             -0.202187331877283E+02
             -0.556631234902721E+02
              0.945334819290334E+02
             -0.600242489101020E+02
              0.280820909483845E+01
             -0.120138553364981E+02
              0.156038810052096E+02
              0.556372165994485E+02
             -0.606201111289210E+02
             -0.119372448145632E+03
             -0.217563211260810E+02
             -0.248795362351684E+02
             -0.177375512641456E+02
              0.604030639430857E+02
             -0.104761407071880E+03
             -0.118429524223688E+03
             -0.155033918155851E+02
             -0.258909538264358E+02
             -0.427451898640311E+01
              0.324290961161396E+02
              0.715815462767651E+02
              0.363518756247136E+02
             -0.353358805827249E+02
             -0.374872965930310E+02
             -0.108343174188032E+03
             -0.816084753576922E+01
             -0.514703840608619E+02
             -0.323043411926593E+02
              0.898860279558770E+02
             -0.693639628424218E+02
             -0.237668047426400E+02
              0.836954797612376E+02
             -0.113995586421892E+02
             -0.217657313713869E+02
              0.141837416543101E+02
              0.332674430187719E+02
             -0.536166147981235E+02
              0.313706120538961E+02
              0.209279098898568E+02
              0.492237497766745E+02
             -0.507219767552571E+02
             -0.412566805103175E+02
              0.627660953727418E+02
             -0.520095342929528E+01
             -0.246003068673622E+02
             -0.213712601915574E+02
             -0.296005358129234E+02
             -0.398928388226887E+02
             -0.936636143413178E+02
             -0.118305722272236E+03
             -0.372516461716196E+02
             -0.369456927035930E+02
             -0.432415763479615E+02
             -0.720602729572738E+02
             -0.373098032147435E+02
              0.641175878711167E+02
              0.277252676370019E+02
              0.908738069405836E+02
             -0.386689931323826E+02
              0.311006794852323E+02
              0.168618233479153E+02
             -0.956930722516931E+02
             -0.226696262957093E+02
              0.512637973920221E+02
             -0.153862507306441E+03
              0.334185828933289E+02
              0.257285205063469E+02
              0.980823043487675E+02
             -0.302631824014378E+02
              0.847912842306524E+02
              0.129766692974129E+03
              0.107532069607873E+03
             -0.605530926347536E+02
             -0.330582127678053E+02
             -0.185712595531901E+02
              0.430869356239746E+02
              0.220359032874732E+02
             -0.233229801249806E+02
              0.627547148599889E+02
              0.125198681192322E+03
             -0.437076068455724E+02
             -0.307918847686366E+02
              0.207563817765679E+02
             -0.710971508921110E+02
             -0.612552507968823E+02
              0.540518773053621E+01
              0.187911162931402E+01
             -0.114042373069242E+02
              0.107294797056827E+03
              0.339486138233206E+02
             -0.179133954090336E+02
             -0.696075113850941E+01
             -0.140984585575426E+03
             -0.151335498808263E+02
             -0.321842866486483E+02
             -0.393787358539385E+01
              0.701362518866889E+02
             -0.373386159386155E+01
              0.978423055458936E+02
             -0.632092123848766E+02
             -0.639702398210678E+02
              0.645929541072036E+02
              0.850540241092505E+02
              0.113066060342800E+03
             -0.644799220452112E+02
             -0.360759332599600E+02
              0.672763550169850E+02
              0.741133460185133E+02
             -0.831911739179062E+02
             -0.211152989239522E+02
              0.892655815157398E+02
              0.579149511598009E+02
              0.348273168593993E+02
              0.321828602869403E+02
             -0.231716019954848E+02
             -0.512578807173804E+01
              0.372189021071169E+02
             -0.390438090432691E+02
             -0.495157633802756E+02
              0.118867397081175E+02
             -0.227867650364788E+02
              0.337640809927327E+02
             -0.575879099993759E+02
              0.692323978816912E+02
             -0.101190744800929E+02
              0.678968064625847E+02
             -0.248347172326530E+02
             -0.836206262729000E+02
             -0.793021887503187E+00
              0.219724203981056E+02
              0.184267437170952E+02
              0.812924753398994E+01
              0.974267229954586E+01
              0.159649879909645E+02
              0.127523976840731E+03
             -0.940046432241789E+02
              0.209381151123821E+02
             -0.495389767051981E+01
              0.214097265494706E+01
              0.509518555203470E+02
              0.370879856654695E+02
             -0.385925398811969E+02
              0.111156811839140E+02
             -0.649718395675218E+02
             -0.212298193189756E+02
             -0.150268643102493E+01
             -0.140833144144225E+03
              0.338344535182648E+02
              0.690944513817883E+02
              0.350758037656788E+02
              0.510639592850972E+02
             -0.303339525106070E+02
              0.296137005100254E+02
              0.758663050583250E+02
             -0.580291443674161E+02
              0.341205039706400E+02
              0.946350771915915E+02
             -0.129764499172997E+02
              0.602082855247243E+02
             -0.184857392947782E+02
             -0.254924645103691E+02
             -0.580928382482415E+01
             -0.661528141934307E+02
              0.383456700786354E+02
              0.361147573345850E+02
              0.706262217524345E+02
             -0.387514663601266E+02
              0.628966375920570E+02
              0.125679560320053E+03
              0.675446610670136E+02
             -0.573635028160633E+02
             -0.222624912699538E+02
             -0.110046967550675E+03
              0.104251194080509E+02
              0.149196200122067E+02
             -0.344660386715481E+01
             -0.216680421337492E+02
              0.164763237938227E+02
              0.792952306241511E+02
             -0.898648551044062E+00
              0.365865565594000E+02
              0.356859753365812E+02
             -0.176845326437347E+02
             -0.113924490699210E+03
              0.419608556202577E+02
             -0.736265672626551E+00
              0.592817660599603E+02
             -0.157831605272257E+02
             -0.217283591819449E+02
             -0.257305820509048E+02
              0.165848259049224E+02
              0.516710814869953E+01
              0.297054139280884E+02
              0.305577053427190E+02
             -0.824352335495868E+02
              0.446460076737193E+02
              0.539631189108098E+02
              0.436202123581238E+02
              0.844262831635331E+02
              0.339300524998791E+02
              0.977731318425871E+02
             -0.292936283141877E+02
             -0.330327710981149E+02
              0.479140218242042E+02
              0.483046097059342E+02
              0.133694905650611E+01
              0.767145569088244E+01
              0.521762020975179E+02
              0.399479692903238E+02
             -0.253243533669840E+02
             -0.496208691611679E+01
             -0.871324193145858E+01
             -0.875546606676943E+01
             -0.920712213138594E+02
             -0.291311802506339E+02
              0.443071920597362E+02
              0.253639990615247E+02
              0.373650406210098E+02
             -0.702933653476339E+02
             -0.997805705727274E+02
              0.248147975451097E+02
              0.982149386732827E+02
              0.508695625992827E+02
             -0.502131391983377E+02
             -0.982492122577248E+02
             -0.545143922999705E+01
              0.323713604174279E+02
              0.325109776741405E+02
             -0.127677436658587E+02
              0.859910080784625E+02
              0.263124845737115E+02
             -0.601590868198565E+02
              0.655880581172376E+02
              0.352664403458048E+02
              0.496421243980069E+01
             -0.205492790474674E+02
             -0.436121831411792E+02
             -0.670685194683866E+02
              0.214290718171082E+02
             -0.134109730544311E+02
             -0.433372309987655E+02
              0.322035303959350E+01
             -0.400906516459354E+02
              0.245247404494622E+02
             -0.106715509012120E+03
              0.252608316548205E+02
             -0.115916102552959E+02
             -0.509808602389974E+01
              0.324034624854667E+02
              0.309848179955384E+02
              0.135988909737029E+03
              0.353186041432991E+01
             -0.442067517556393E+02
             -0.100651214359743E+03
              0.522246239113810E+02
             -0.538081895265145E+01
              0.364155941277802E+02
              0.219650282172283E+02
             -0.128368813939449E+02
              0.831676724751708E+02
              0.685531740350359E+02
             -0.171607417745325E+02
              0.721558021577624E+02
             -0.905780311906802E+02
              0.217259628390096E+02
              0.527688113953391E+02
             -0.644974014674591E+02
             -0.837711354864526E+02
             -0.917722146211288E+02
             -0.906122816307699E+02
              0.864541961093563E+02
             -0.701369221295168E+02
             -0.113146043658419E+02
              0.433352591602021E+02
             -0.351634733121180E+02
              0.139348093265913E+02
              0.218983504433329E+02
              0.484731162931618E+02
             -0.780913395693558E+02
              0.552414360389749E+02
             -0.270687123635612E+02
             -0.115533414415329E+03
              0.426401336579299E+02
             -0.276494768927701E+02
             -0.646150928262286E+02
             -0.301797254613330E+02
              0.542262919866683E+02
              0.420870458232758E+02
              0.145972096591355E+02
              0.253395094081230E+02
             -0.151207242656881E+01
              0.224684668762281E+02
             -0.710733282069949E+02
              0.130484835157817E+02
             -0.150063079786978E+02
             -0.581528732430441E+02
              0.163230256554273E+02
             -0.878530294368403E+01
              0.831947120337491E+02
              0.137459823579699E+02
              0.928277058971267E+02
              0.129989025448662E+02
              0.262219839974494E+02
             -0.250991011294193E+02
             -0.229291526998290E+02
              0.531534158809884E+02
              0.205862418097528E+02
             -0.461075223468093E+02
              0.104120667530350E+03
              0.769337324962498E+02
              0.777946774116317E+02
              0.521967317522682E+02
             -0.187491724350782E+02
             -0.129094499456931E+03
             -0.935185456520207E+01
             -0.360625892165697E+02
             -0.493457486616725E+02
              0.552168291744037E+02
             -0.120573991746450E+03
              0.513423076047882E+02
              0.414571490648335E+02
             -0.411450185591373E+02
             -0.686821881623030E+01
             -0.168512802127883E+02
             -0.368112115115905E+02
              0.391220077438479E+02
              0.482657637927272E+02
             -0.692514562296810E+01
             -0.285113021736933E+02
              0.108653247764457E+02
             -0.127165094518284E+01
             -0.757398053797505E+02
             -0.528058319317969E+02
             -0.398237266870012E+01
             -0.589617864947152E+02
             -0.316689542483046E+02
              0.189627960894830E+01
             -0.980487114680969E+02
             -0.513298282767383E+02
              0.326163001601579E+01
             -0.124591502944744E+03
              0.162048524824291E+02
             -0.119317065361409E+03
              0.649546861889089E+02
             -0.516044496843547E+02
              0.691980309670085E+02
             -0.245986615581652E+02
             -0.983481345191243E+02
             -0.535596909698384E+01
             -0.529627918523530E+02
             -0.292334018060978E+02
              0.190141006691481E+02
             -0.109866452822975E+03
              0.187893910143557E+02
              0.534266342033803E+02
             -0.105580222827309E+03
             -0.123351042598707E+02
             -0.975946143421001E+02
             -0.108708281483994E+03
             -0.695762035814015E+02
             -0.105819018831618E+02
             -0.536761225918541E+02
              0.529623032801404E+02
              0.589458759967131E+02
             -0.434644812402791E+02
              0.300782508837153E+02
             -0.422584185460618E+02
              0.376931196844431E+02
             -0.569481313419431E+02
             -0.569796604952146E+02
              0.532492458352296E+02
              0.406188997863239E+02
              0.154942691801427E+02
              0.593212036972948E+02
              0.131026689244167E+03
             -0.214292983200206E+02
              0.405147615013202E+02
             -0.115578681507694E+03
             -0.106455290018174E+03
             -0.509231990523716E+01
              0.114154235373563E+02
              0.333461152923278E+02
             -0.857270560612490E+02
              0.165837764997174E+02
              0.103367895744526E+03
             -0.817048399872317E+02
             -0.149544232837004E+02
             -0.113256638897683E+03
             -0.116269033790494E+02
              0.605550498705088E+01
             -0.786109768113740E+02
              0.240247829054559E+02
             -0.116680409586899E+03
             -0.508563600814637E+01
             -0.868353091417339E+01
              0.111739219115738E+02
             -0.712148310264464E+02
              0.530676978932302E+02
             -0.870048774140201E+01
             -0.980416631443455E+01
              0.923784387468277E+01
              0.363292422223486E+02
              0.747774634608791E+02
             -0.207498480972433E+02
              0.570269655838466E+02
              0.976464519798638E+02
              0.185181302621654E+02
             -0.395623308568861E+01
              0.300156151010270E+02
              0.894703157604243E+01
             -0.117354178294261E+02
              0.452800412117140E+02
             -0.129630672999191E+02
             -0.641673040688677E+02
              0.356863027847864E+02
             -0.456362253279667E+02
             -0.366752805634144E+02
             -0.697151081017807E+00
             -0.835498156170639E+02
             -0.212990252475047E+02
             -0.915157302919432E+02
             -0.504503923076528E+01
             -0.246171917820410E+02
              0.460162807141131E+02
             -0.972598662500119E+02
              0.884098329284973E+01
              0.291609724597043E+01
             -0.787106545589245E+02
              0.460945017182016E+02
              0.870342704842253E+02
              0.230986425626234E+02
             -0.752191552450170E+02
             -0.833067092773688E+02
              0.111956909168857E+03
              0.844503971164971E+02
              0.365078690770085E+02
             -0.279311242573145E+02
             -0.521631285047520E+02
              0.491599848715481E+02
              0.206577089164518E+02
              0.967172554864272E+02
              0.887022535789121E+02
              0.751744453955289E+02
              0.393686304926559E+02
             -0.156200321750604E+03
             -0.420276645277847E+02
              0.198850819001866E+02
             -0.330266948072842E+02
              0.904963664959954E+02
              0.388835117247144E+02
             -0.358956849120373E+02
             -0.108784824308344E+02
              0.104772313161400E+03
              0.101582700583782E+02
             -0.115658970628459E+02
             -0.177238762747100E+03
              0.434838385375072E+02
             -0.385477047085062E+02
              0.794042947432600E+02
             -0.685894021834632E+02
             -0.105789747090433E+02
              0.276540626422084E+02
             -0.602749402491723E+02
             -0.996861725986503E+02
              0.452281957688297E+01
              0.341376227761714E+02
             -0.398148675437562E+01
             -0.260584080966414E+02
             -0.145255490250655E+02
             -0.598853274423204E+02
             -0.113168132640539E+03
              0.141802718086339E+01
             -0.425818625276562E+02
             -0.105207054002431E+02
             -0.452324099016198E+02
              0.180876107416705E+03
              0.380086538009150E+02
             -0.608978502126441E+02
             -0.570027684516062E+02
              0.240276816809919E+02
              0.440364408500648E+02
              0.693521937150205E+02
             -0.497354267517561E+02
             -0.109448071715625E+03
             -0.318576669757058E+02
             -0.596480748497152E+02
              0.613163365514538E+02
              0.699945930696353E+02
              0.949705361133817E+01
              0.273619707563962E+02
              0.477533263427685E+02
              0.578415182439271E+02
             -0.109926633707196E+03
             -0.233295391179330E+02
              0.729599435491969E+01
             -0.165465548797445E+02
             -0.477111134221038E+02
              0.192613490348123E+01
             -0.183275830096650E+02
             -0.441913540497774E+02
             -0.445934973218854E+02
              0.184005468663562E+02
             -0.138026727640415E+03
             -0.704660066045882E+02
             -0.597321307884131E+02
              0.123969473427986E+03
             -0.217799085365795E+02
[...]
              0.564519928162661E+02
              0.256397047944654E+02
              0.417151210590527E+02
             -0.232483406556876E+01
              0.128246395081424E+03
              0.214897893158941E+02
             -0.198225214448516E+02
              0.239716791480055E+01
             -0.129312553023283E+02
              0.105253937049991E+03
             -0.597520547493465E+01
              0.225901610240980E+02
              0.759045142839406E+02
              0.166818563025669E+02
             -0.599109260004645E+02
             -0.873041064288452E+02
              0.913765415148191E+00
             -0.981786246170054E+02
              0.333001220325193E+02
             -0.198897221012754E+02
             -0.460576933151340E+02
              0.414709163007028E+02
              0.160051351372156E+02
              0.374196297419564E+02
              0.333977451263740E+01
              0.595655426350636E+02
             -0.973947817345598E+02
             -0.887026766294082E+01
             -0.849166895755176E+02
              0.153622437327306E+02
              0.459625066151326E+02
             -0.841252351179668E+01
             -0.319431292335769E+02
              0.684530663601316E+02
             -0.318037414252319E+02
              0.222838116310591E+02
             -0.199308551054316E+02
              0.488822517465721E+02
              0.589660217172506E+02
             -0.254482738627498E+02
              0.508151521039934E+02
              0.194856377187225E+02
             -0.523302247458913E+02
             -0.312953026379868E+02
              0.844161815214770E+02
              0.399655801451174E+02
             -0.384312437475489E+01
             -0.113394945701788E+02
              0.124084298817489E+03
              0.743971195452215E+02
              0.272622632613367E+02
             -0.794597601130739E+02
              0.124525503724338E+03
             -0.563625193916222E+02
             -0.698055017915232E+02
             -0.108057249081694E+03
              0.521362356715929E+02
             -0.988947806649133E+02
              0.429261935580763E+02
              0.704845525329141E+02
              0.522667480061883E+02
              0.111241890192501E+02
              0.310913609891537E+02
             -0.779666538397324E+02
             -0.277466561498482E+02
             -0.250606323545285E+02
              0.376618082647192E+02
              0.840171169950931E+02
              0.829127365916636E+02
              0.634323252196074E+02
             -0.155989348998472E+02
              0.225419253721202E+02
              0.312628798215428E+01
             -0.248935132385120E+02
              0.371717260832565E+02
              0.354926132850077E+02
             -0.507604698698000E+02
             -0.514581387205727E+02
             -0.235300362321593E+02
              0.546745274699480E+02
              0.278832791708336E+02
             -0.372493545310883E+02
             -0.648211476791412E+02
             -0.889781036829255E+02
              0.186145047455136E+01
              0.253227987452842E+02
             -0.344585592557049E+02
              0.126462521853022E+03
              0.116222584756918E+01
             -0.146876673227643E+03
              0.368431315153942E+02
              0.606588781423706E+02
             -0.220001784944507E+02
              0.236262538433118E+01
             -0.332504767427415E+02
              0.563697356441558E+02
              0.278524138989987E+02
             -0.742350197075504E+02
              0.881744833845480E+02
              0.592293856529443E+01
             -0.352355189021304E+02
             -0.434176802247004E+02
              0.176699517944264E+03
              0.789675200907649E+02
             -0.198491790927138E+02
              0.436710903302628E+02
             -0.861055385225458E+02
             -0.186421650974247E+02
             -0.765240688973846E+02
              0.295961642220567E+02
              0.549282044344967E+02
              0.603895502190499E+02
             -0.264979042764994E+02
              0.449571982494342E+01
              0.752391444708708E+02
              0.240990193407465E+02
              0.448172286992481E+02
              0.182168822202954E+02
             -0.101310435171060E+02
              0.196067311437702E+00
             -0.140416468847242E+02
              0.156153054116820E+02
              0.523809256013271E+01
             -0.683695999359107E+02
              0.104694117052073E+03
              0.403110139009956E+02
             -0.742361338270472E+02
             -0.545151393846484E+02
             -0.769766201759635E+02
             -0.334261915308733E+02
             -0.242643134577618E+02
             -0.609306123309058E+02
             -0.601218909341893E+02
              0.724779354098262E+02
              0.576510377244568E+02
             -0.795108982577995E+01
              0.865689004551676E+02
              0.124819137675966E+02
             -0.139039759562243E+03
              0.745967576633187E+02
              0.127660136259964E+02
              0.586480080090278E+02
              0.793961717418986E+01
              0.658228506138866E+01
              0.119672754488283E+02
              0.317262005238492E+02
             -0.580386892088883E+02
             -0.273949092663672E+02
             -0.547818358678948E+02
             -0.454228111281670E+02
              0.188670035860692E+02
             -0.503749869812737E+02
              0.243093708604716E+02
              0.334017039262433E+02
             -0.308476263796233E+02
             -0.196828166116172E+02
              0.124204835554954E+01
              0.863765932005903E+02
              0.130833001632325E+02
              0.829520995664437E+02
              0.297080356136064E+02
             -0.109734718246323E+03
             -0.363896792283895E+02
              0.374364139025079E+02
              0.862794949681177E+02
              0.143223250969357E+02
              0.354576813165945E+02
              0.794103292779835E+02
             -0.460060863588137E+02
             -0.706083653884741E+02
              0.978929712359950E+02
              0.563472761683556E+01
             -0.103505024515814E+03
              0.378073400926851E+02
              0.654918876796073E+02
             -0.168066172870483E+02
             -0.681648351580739E+02
              0.141740128173442E+02
              0.290474001449684E+01
             -0.331369425610202E+02
              0.127372583249467E+02
             -0.110513883454464E+02
              0.153929855297290E+03
              0.447550789996509E+02
             -0.651822987415650E+02
              0.192696264528627E+02
              0.937580784635454E+02
             -0.632969360083251E+02
             -0.165091146171943E+02
             -0.599116954035831E+02
              0.479458180033702E+02
              0.151962997009661E+02
              0.317087857502843E+02
              0.572185249508880E+01
              0.108956992834560E+03
             -0.619363779809207E+02
             -0.489737746104862E+02
             -0.472261266330271E+02
              0.414818472997056E+02
              0.108238395458502E+03
             -0.180546291273524E+02
              0.442911414077705E+02
             -0.628774014422967E+02
              0.120298660437690E+02
             -0.201516372771159E+02
              0.428939175481145E+01
             -0.243347448185315E+02
             -0.198916021348071E+02
             -0.194983940144257E+02
              0.161300269681198E+02
              0.314880260514537E+02
             -0.685873069027019E+02
              0.507386490576557E+02
             -0.817620748247628E+02
              0.617081658900501E+02
             -0.652484364864503E+02
              0.105642244002564E+03
              0.579864761393952E+02
              0.667734327279179E+02
              0.165497140936649E+02
              0.194772763967475E+02
             -0.145936254359849E+03
              0.237800946462751E+02
              0.540369133744002E+01
              0.138746364138774E+02
             -0.237944977935312E+02
              0.112847341683350E+03
             -0.262891793986665E+02
             -0.466483462667370E+02
             -0.109247848684589E+03
             -0.379074652657469E+02
             -0.523852342489151E+02
             -0.455388480767689E+02
             -0.103006374726414E+02
             -0.249915683889124E+02
             -0.316253862468489E+02
             -0.486194553695884E+02
              0.372548521551264E+02
              0.117243133699352E+03
              0.990313370443201E+02
             -0.175828396486384E+02
             -0.119109785318749E+03
             -0.507371633059963E+02
              0.244062404024431E+02
              0.243172671589747E+02
              0.389078668019486E+02
              0.273646847137170E+02
              0.479709410821727E+01
              0.116332776221312E+03
             -0.282978824508098E+02
              0.572003775612625E+02
              0.292961164135279E+02
             -0.396329463612151E+02
             -0.190066660252501E+02
              0.526993904050184E+02
             -0.280755329102182E+02
             -0.173017308930870E+02
             -0.128098889489297E+02
              0.678740557496767E+02
             -0.892475666225041E+02
             -0.717395675954231E+01
             -0.688878475723916E+02
             -0.146361462136592E+03
             -0.349248879590732E+00
             -0.215339181435880E+02
              0.568980216826851E+02
              0.632569922048399E+02
              0.865979736282479E+02
             -0.563143290545404E+02
              0.874598102717661E+02
              0.218565360279335E+02
             -0.324564764060430E+02
              0.117156033844917E+02
             -0.277084015061660E+02
             -0.164022821511655E+02
              0.505402908449673E+02
             -0.418489047790669E+02
              0.112208858830660E+03
             -0.299396252726892E+02
             -0.619845080757206E+02
              0.117299921708601E+03
             -0.635438318318311E+02
             -0.511370308211247E+01
              0.618795707289121E+01
              0.339479153491885E+02
             -0.496224417263594E+02
             -0.377943541317818E+02
              0.602674206704119E+02
             -0.906263057392940E+02
              0.747858038113467E+02
              0.110720010019664E+02
              0.536095289910273E+02
              0.776468137601520E+02
              0.198297647251187E+02
             -0.107811204815586E+03
             -0.466641241071440E+02
             -0.778665422427157E+02
             -0.463694354524478E+02
             -0.123979211701987E+02
              0.166825624910895E+02
             -0.363857899611735E+02
             -0.637515673994812E+00
             -0.108440853423081E+03
              0.601238047947834E+01
             -0.698591627052388E+02
              0.677482407393582E+02
             -0.397651519424494E+02
             -0.953480548796645E+01
              0.511007863245831E+02
              0.100576080313425E+02
              0.475551921050988E+02
             -0.905109019874267E+02
              0.151228329289963E+02
              0.619578099755947E+01
              0.389414466565406E+02
              0.625076576764936E+02
             -0.115742494226976E+02
             -0.712333096338109E+02
             -0.410755135905791E+02
             -0.290991340919517E+02
             -0.863054394658911E+01
              0.663257561096756E+02
              0.430286847251640E+02
             -0.436409624887343E+02
             -0.410002401225958E+02
              0.300502800698733E+02
              0.327555403656601E+02
             -0.884396783692446E+02
              0.206555164821490E+02
              0.635086408210693E+02
             -0.280260069751088E+01
              0.797782382991003E+02
              0.369824773888130E+02
              0.628644197008688E+02
              0.955504815794351E+02
              0.144186447137803E+02
             -0.130276317215362E+03
              0.179749720984748E+02
              0.140881370481793E+03
              0.102329619650378E+03
             -0.705631208984156E+02
              0.637338586443937E+01
              0.915965456162897E+02
              0.794203956800660E+02
              0.348999430952871E+02
             -0.211140756666377E+02
              0.350775803909065E+02
              0.726031668299685E+02
             -0.335347202603130E+02
             -0.215798888936826E+02
              0.491920468667290E+02
             -0.303048461428517E+01
              0.440438220910631E+02
             -0.136517237107154E+02
              0.920619393516371E+02
             -0.351375886169012E+02
              0.211048416564211E+02
             -0.390551585781352E+02
              0.455650392796767E+02
             -0.619199930208015E+01
              0.678774502420742E+02
              0.488637336758984E+01
              0.303210231217984E+02
             -0.431580576571907E+02
             -0.301541733783577E+02
             -0.153587065539606E+02
             -0.139795972209073E+02
              0.738691183583970E+02
              0.362834165089340E+02
              0.896929196305373E+02
              0.826968800109688E+02
              0.232130952174851E+02
              0.420896733990601E+01
              0.882374894520960E+02
              0.495802070412581E+02
              0.236752709807888E-01
              0.859305963865789E+02
             -0.705022505065990E+02
              0.247250689923457E+02
             -0.458293649886605E+02
             -0.125217082804256E+02
              0.118790586284824E+03
             -0.166569919238111E+02
             -0.491625493023992E+01
             -0.129581054671590E+02
              0.975757496432902E+02
             -0.210020677721193E+02
             -0.179586840767365E+01
              0.196907410875580E+03
             -0.583346900970163E+02
             -0.727339401522369E+02
             -0.727941166426756E+02
             -0.465500909776415E+02
              0.423452136195205E+02
             -0.189907309039551E+02
              0.107761298298257E+02
             -0.492881349056415E+01
              0.249020883527083E+02
              0.400632465380265E+02
              0.467000474644084E+02
              0.671748953446846E+02
              0.430501150523147E+02
              0.439461892348368E+02
             -0.812112183049396E+02
             -0.838955002894014E+02
             -0.189173577861086E+02
             -0.749610417521770E+02
              0.119074021908184E+03
              0.100320803440020E+03
              0.472559433779270E+02
              0.130388639147711E+03
             -0.652296516201035E+02
             -0.280618676635630E+02
             -0.403824793493926E+02
              0.112755068122892E+03
 
 BEEF-vdW xc energy contributions
            1 :    -1019.486160367095     
            2 :     934.4398712983931     
            3 :    -789.1757754624784     
            4 :     622.1447502776095     
            5 :    -469.8412363917903     
            6 :     355.0123738976306     
            7 :    -282.7558995885963     
            8 :     243.7202356833566     
            9 :    -221.3026198372247     
           10 :     199.6376881716986     
           11 :    -169.6176743278545     
           12 :     130.9446048258077     
           13 :    -89.87938409567755     
           14 :     54.45013789876225     
           15 :    -29.94285818349704     
           16 :     16.78591464497663     
           17 :    -11.23788258608943     
           18 :     7.887429710214064     
           19 :    -2.463252801113640     
           20 :    -6.350380823012529     
           21 :     16.80283334775686     
           22 :    -25.56015974892512     
           23 :     29.88098503662945     
           24 :    -29.25234571486294     
           25 :     25.62983071088570     
           26 :    -22.27587687600249     
           27 :     21.95450095710225     
           28 :    -25.49555766992080     
           29 :     31.44599667881698     
           30 :    -36.92055714090452     
           31 :    -87.20499761804831     
           32 :    -62.68724947744363     

     Writing all to output data dir ./PbI2.save/
 
     init_run     :      4.12s CPU      7.12s WALL (       1 calls)
     electrons    :     43.39s CPU     44.99s WALL (       1 calls)
     forces       :      3.33s CPU      3.55s WALL (       1 calls)
     stress       :     34.86s CPU     35.37s WALL (       1 calls)

     Called by init_run:
     wfcinit      :      0.93s CPU      3.63s WALL (       1 calls)
     potinit      :      2.18s CPU      2.30s WALL (       1 calls)
     hinit0       :      0.49s CPU      0.51s WALL (       1 calls)

     Called by electrons:
     c_bands      :     37.55s CPU     38.51s WALL (       2 calls)
     sum_band     :      4.53s CPU      4.88s WALL (       2 calls)
     v_of_rho     :      2.22s CPU      2.34s WALL (       2 calls)
     v_h          :      0.01s CPU      0.01s WALL (       2 calls)
     v_xc         :     19.28s CPU     21.21s WALL (      38 calls)
     newd         :      0.61s CPU      0.86s WALL (       2 calls)
     PAW_pot      :      0.87s CPU      0.88s WALL (       2 calls)
     mix_rho      :      0.00s CPU      0.00s WALL (       2 calls)
     vdW_kernel   :      1.21s CPU      1.22s WALL (       1 calls)

     Called by c_bands:
     init_us_2    :      0.37s CPU      0.38s WALL (      24 calls)
     init_us_2:cp :      0.37s CPU      0.38s WALL (      24 calls)
     cegterg      :     36.87s CPU     37.65s WALL (       8 calls)

     Called by sum_band:
     sum_band:wei :      0.00s CPU      0.00s WALL (       2 calls)
     sum_band:loo :      3.78s CPU      3.82s WALL (       2 calls)
     sum_band:buf :      0.14s CPU      0.15s WALL (       8 calls)
     sum_band:ini :      0.11s CPU      0.12s WALL (       8 calls)
     sum_band:cal :      0.61s CPU      0.62s WALL (       8 calls)
     sum_band:bec :      0.01s CPU      0.01s WALL (       8 calls)
     addusdens    :      0.70s CPU      1.02s WALL (       2 calls)
     addusd:skk   :      0.01s CPU      0.01s WALL (       4 calls)
     addusd:dgemm :      0.32s CPU      0.62s WALL (       4 calls)
     addusd:qvan2 :      0.36s CPU      0.36s WALL (       4 calls)

     Called by *egterg:
     cdiaghg      :     10.78s CPU     10.84s WALL (      71 calls)
     cegterg:over :      2.98s CPU      3.02s WALL (      71 calls)
     cegterg:upda :      2.54s CPU      2.64s WALL (      71 calls)
     cegterg:last :      0.78s CPU      0.78s WALL (       8 calls)
     h_psi        :     16.79s CPU     17.04s WALL (      79 calls)
     s_psi        :      1.88s CPU      1.89s WALL (      79 calls)
     g_psi        :      0.04s CPU      0.04s WALL (      71 calls)

     Called by h_psi:
     h_psi:calbec :      1.96s CPU      1.98s WALL (      79 calls)
     vloc_psi     :     12.67s CPU     12.78s WALL (      79 calls)
     add_vuspsi   :      2.02s CPU      2.04s WALL (      79 calls)

     General routines
     calbec       :      4.33s CPU      4.36s WALL (     107 calls)
     fft          :      9.18s CPU      9.26s WALL (    2232 calls)
     ffts         :      0.01s CPU      0.01s WALL (       4 calls)
     fftw         :     14.75s CPU     14.87s WALL (   10142 calls)
     interpolate  :      0.02s CPU      0.02s WALL (       2 calls)
 
     Parallel routines

     PAW routines
     PAW_pot      :      0.87s CPU      0.88s WALL (       2 calls)
 
     PWSCF        :   1m43.02s CPU   1m52.48s WALL

 
   This run was terminated on:   6:42:36  28Mar2024            

=------------------------------------------------------------------------------=
   JOB DONE.
=------------------------------------------------------------------------------=
