
     Program PWSCF v.7.1 starts on 18Feb2024 at 10:11: 6 

     This program is part of the open-source Quantum ESPRESSO suite
     for quantum simulation of materials; please cite
         "P. Giannozzi et al., J. Phys.:Condens. Matter 21 395502 (2009);
         "P. Giannozzi et al., J. Phys.:Condens. Matter 29 465901 (2017);
         "P. Giannozzi et al., J. Chem. Phys. 152 154105 (2020);
          URL http://www.quantum-espresso.org", 
     in publications or presentations arising from this work. More details at
     http://www.quantum-espresso.org/quote

     Parallel version (MPI & OpenMP), running on     128 processor cores
     Number of MPI processes:               128
     Threads/MPI process:                     1

     MPI processes distributed on     1 nodes
     1933625 MiB available memory on the printing compute node when the environment starts
 
     Reading input from espresso.pwi
Warning: card &CELL ignored
Warning: card    CELL_DYNAMICS    = 'BFGS' ignored
Warning: card / ignored

     Current dimensions of program PWSCF are:
     Max number of different atomic species (ntypx) = 10
     Max number of k-points (npk) =  40000
     Max angular momentum in pseudopotentials (lmaxx) =  4
     file Pb.pbe-dn-kjpaw_psl.1.0.0.UPF: wavefunction(s)  6S 6P 5D renormalized
     file I.pbe-dn-kjpaw_psl.1.0.0.UPF: wavefunction(s)  5S 5P renormalized

     **************************************************************************
     Initializing libbeef V0.1.2 with the BEEF-vdW functional.
     Citation: Wellendorff et al., PRB 85, 235149 (2012).
     **************************************************************************


     IMPORTANT: XC functional enforced from input :
     Exchange-correlation= BEEF-VDW
                           (   1   4  43  14   2   0   0)
     Any further DFT definition will be discarded
     Please, verify this is what you really want

 
     R & G space division:  proc/nbgrp/npool/nimage =     128
     Subspace diagonalization in iterative solution of the eigenvalue problem:
     a serial algorithm will be used

 
     Parallelization info
     --------------------
     sticks:   dense  smooth     PW     G-vecs:    dense   smooth      PW
     Min         238     190     47                26450    18922    2361
     Max         239     191     48                26459    18933    2368
     Sum       30589   24439   6121              3386231  2422955  302835
 
     Using Slab Decomposition
 


     bravais-lattice index     =            4
     lattice parameter (alat)  =      35.6120  a.u.
     unit-cell volume          =   30624.9051 (a.u.)^3
     number of atoms/cell      =           95
     number of atomic types    =            2
     number of electrons       =      1523.00
     number of Kohn-Sham states=          914
     kinetic-energy cutoff     =      70.0000  Ry
     charge density cutoff     =     350.0000  Ry
     scf convergence threshold =      1.0E-07
     mixing beta               =       0.7000
     number of iterations used =            8  plain     mixing
     Exchange-correlation= BEEF-VDW
                           (   1   4  43  14   2   0   0)

     celldm(1)=  35.612033  celldm(2)=   0.000000  celldm(3)=   0.782986
     celldm(4)=   0.000000  celldm(5)=   0.000000  celldm(6)=   0.000000

     crystal axes: (cart. coord. in units of alat)
               a(1) = (   1.000000   0.000000   0.000000 )  
               a(2) = (  -0.500000   0.866025   0.000000 )  
               a(3) = (   0.000000   0.000000   0.782986 )  

     reciprocal axes: (cart. coord. in units 2 pi/alat)
               b(1) = (  1.000000  0.577350 -0.000000 )  
               b(2) = (  0.000000  1.154701  0.000000 )  
               b(3) = (  0.000000 -0.000000  1.277163 )  


     PseudoPot. # 1 for Pb read from file:
     /trace/group/acmegroup/atimmins/packages/espresso/pseudo/psl_1.0.0/pslibrary.1.0.0/pbe/PSEUDOPOTENTIALS/Pb.pbe-dn-kjpaw_psl.1.0.0.UPF
     MD5 check sum: 39ab5b8a6bbd56b7735ad9f188aac93a
     Pseudo is Projector augmented-wave + core cor, Zval = 14.0
     Generated using 'atomic' code by A. Dal Corso  v.7.1
     Shape of augmentation charge: PSQ
     Using radial grid of 1281 points,  6 beta functions with: 
                l(1) =   0
                l(2) =   0
                l(3) =   1
                l(4) =   1
                l(5) =   2
                l(6) =   2
     Q(r) pseudized with 0 coefficients 


     PseudoPot. # 2 for I  read from file:
     /trace/group/acmegroup/atimmins/packages/espresso/pseudo/psl_1.0.0/pslibrary.1.0.0/pbe/PSEUDOPOTENTIALS/I.pbe-dn-kjpaw_psl.1.0.0.UPF
     MD5 check sum: bfa8781bc1224d19af3f3980e3fab11e
     Pseudo is Projector augmented-wave + core cor, Zval = 17.0
     Generated using 'atomic' code by A. Dal Corso  v.7.1
     Shape of augmentation charge: PSQ
     Using radial grid of 1247 points,  6 beta functions with: 
                l(1) =   0
                l(2) =   0
                l(3) =   1
                l(4) =   1
                l(5) =   2
                l(6) =   2
     Q(r) pseudized with 0 coefficients 


     atomic species   valence    mass     pseudopotential
        Pb            14.00   207.20000     Pb( 1.00)
        I             17.00   126.90447     I ( 1.00)

     No symmetry found


                                    s                        frac. trans.

      isym =  1     identity                                     

 cryst.   s( 1) = (     1          0          0      )
                  (     0          1          0      )
                  (     0          0          1      )

 cart.    s( 1) = (  1.0000000  0.0000000  0.0000000 )
                  (  0.0000000  1.0000000  0.0000000 )
                  (  0.0000000  0.0000000  1.0000000 )


     point group C_1 (1)    
     there are  1 classes
     the character table:

       E    
A      1.00

     the symmetry operations in each class and the name of the first element:

     E        1
          identity                                               

   Cartesian axes

     site n.     atom                  positions (alat units)
         1           Pb  tau(   1) = (   0.1250034   0.2164918   0.3914896  )
         2           Pb  tau(   2) = (   0.0000077   0.4329926   0.7829784  )
         3           Pb  tau(   3) = (   0.0000026   0.4329971   0.3914855  )
         4           Pb  tau(   4) = (  -0.1249932   0.6494980   0.7829742  )
         5           Pb  tau(   5) = (  -0.1249983   0.6495025   0.3914814  )
         6           Pb  tau(   6) = (  -0.2499940   0.8660033   0.7829701  )
         7           Pb  tau(   7) = (  -0.2499991   0.8660078   0.3914773  )
         8           Pb  tau(   8) = (   0.3750085   0.2164863   0.7829857  )
         9           Pb  tau(   9) = (   0.3750034   0.2164908   0.3914929  )
        10           Pb  tau(  10) = (   0.2500077   0.4329916   0.7829816  )
        11           Pb  tau(  11) = (   0.2500026   0.4329962   0.3914888  )
        12           Pb  tau(  12) = (   0.1250068   0.6494970   0.7829775  )
        13           Pb  tau(  13) = (   0.1250017   0.6495015   0.3914847  )
        14           Pb  tau(  14) = (   0.0000060   0.8660024   0.7829734  )
        15           Pb  tau(  15) = (   0.0000009   0.8660069   0.3914805  )
        16           Pb  tau(  16) = (   0.6250085   0.2164853   0.7829890  )
        17           Pb  tau(  17) = (   0.6250034   0.2164898   0.3914962  )
        18           Pb  tau(  18) = (   0.5000077   0.4329907   0.7829849  )
        19           Pb  tau(  19) = (   0.5000026   0.4329952   0.3914920  )
        20           Pb  tau(  20) = (   0.3750068   0.6494960   0.7829808  )
        21           Pb  tau(  21) = (   0.3750017   0.6495006   0.3914879  )
        22           Pb  tau(  22) = (   0.2500060   0.8660014   0.7829766  )
        23           Pb  tau(  23) = (   0.2500009   0.8660059   0.3914838  )
        24           Pb  tau(  24) = (   0.8750085   0.2164844   0.7829923  )
        25           Pb  tau(  25) = (   0.8750034   0.2164889   0.3914994  )
        26           Pb  tau(  26) = (   0.7500077   0.4329897   0.7829881  )
        27           Pb  tau(  27) = (   0.7500026   0.4329942   0.3914953  )
        28           Pb  tau(  28) = (   0.6250068   0.6494951   0.7829840  )
        29           Pb  tau(  29) = (   0.6250017   0.6494996   0.3914912  )
        30           Pb  tau(  30) = (   0.5000060   0.8660004   0.7829799  )
        31           Pb  tau(  31) = (   0.5000009   0.8660050   0.3914870  )
        32           I   tau(  32) = (   0.1250054   0.0721550   0.2909325  )
        33           I   tau(  33) = (   0.1250105   0.0721505   0.6824253  )
        34           I   tau(  34) = (   0.0000045   0.2886603   0.2909283  )
        35           I   tau(  35) = (   0.0000096   0.2886558   0.6824212  )
        36           I   tau(  36) = (  -0.1249963   0.5051657   0.2909242  )
        37           I   tau(  37) = (  -0.1249912   0.5051612   0.6824171  )
        38           I   tau(  38) = (  -0.2499971   0.7216710   0.2909201  )
        39           I   tau(  39) = (  -0.2499920   0.7216665   0.6824129  )
        40           I   tau(  40) = (   0.3750054   0.0721540   0.2909357  )
        41           I   tau(  41) = (   0.3750105   0.0721495   0.6824286  )
        42           I   tau(  42) = (   0.2500045   0.2886594   0.2909316  )
        43           I   tau(  43) = (   0.2500096   0.2886548   0.6824244  )
        44           I   tau(  44) = (   0.1250037   0.5051647   0.2909275  )
        45           I   tau(  45) = (   0.1250088   0.5051602   0.6824203  )
        46           I   tau(  46) = (   0.0000029   0.7216701   0.2909233  )
        47           I   tau(  47) = (   0.0000080   0.7216656   0.6824162  )
        48           I   tau(  48) = (   0.6250054   0.0721530   0.2909390  )
        49           I   tau(  49) = (   0.6250105   0.0721485   0.6824318  )
        50           I   tau(  50) = (   0.5000045   0.2886584   0.2909348  )
        51           I   tau(  51) = (   0.5000096   0.2886539   0.6824277  )
        52           I   tau(  52) = (   0.3750037   0.5051638   0.2909307  )
        53           I   tau(  53) = (   0.3750088   0.5051592   0.6824236  )
        54           I   tau(  54) = (   0.2500029   0.7216691   0.2909266  )
        55           I   tau(  55) = (   0.2500080   0.7216646   0.6824194  )
        56           I   tau(  56) = (   0.8750054   0.0721521   0.2909422  )
        57           I   tau(  57) = (   0.8750105   0.0721476   0.6824351  )
        58           I   tau(  58) = (   0.7500045   0.2886574   0.2909381  )
        59           I   tau(  59) = (   0.7500096   0.2886529   0.6824310  )
        60           I   tau(  60) = (   0.6250037   0.5051628   0.2909340  )
        61           I   tau(  61) = (   0.6250088   0.5051583   0.6824268  )
        62           I   tau(  62) = (   0.5000029   0.7216681   0.2909299  )
        63           I   tau(  63) = (   0.5000080   0.7216636   0.6824227  )
        64           I   tau(  64) = (  -0.0000017   0.1443297   0.1005555  )
        65           I   tau(  65) = (   0.0000034   0.1443252   0.4920483  )
        66           I   tau(  66) = (  -0.1250025   0.3608351   0.1005514  )
        67           I   tau(  67) = (  -0.1249974   0.3608306   0.4920442  )
        68           I   tau(  68) = (  -0.2500034   0.5773404   0.1005472  )
        69           I   tau(  69) = (  -0.2499983   0.5773359   0.4920401  )
        70           I   tau(  70) = (  -0.3750042   0.7938458   0.1005431  )
        71           I   tau(  71) = (  -0.3749991   0.7938413   0.4920360  )
        72           I   tau(  72) = (   0.2499983   0.1443288   0.1005587  )
        73           I   tau(  73) = (   0.2500034   0.1443242   0.4920516  )
        74           I   tau(  74) = (   0.1249975   0.3608341   0.1005546  )
        75           I   tau(  75) = (   0.1250026   0.3608296   0.4920475  )
        76           I   tau(  76) = (  -0.0000034   0.5773395   0.1005505  )
        77           I   tau(  77) = (   0.0000017   0.5773350   0.4920433  )
        78           I   tau(  78) = (  -0.1250042   0.7938448   0.1005464  )
        79           I   tau(  79) = (  -0.1249991   0.7938403   0.4920392  )
        80           I   tau(  80) = (   0.4999983   0.1443278   0.1005620  )
        81           I   tau(  81) = (   0.5000034   0.1443233   0.4920548  )
        82           I   tau(  82) = (   0.3749975   0.3608332   0.1005579  )
        83           I   tau(  83) = (   0.3750026   0.3608286   0.4920507  )
        84           I   tau(  84) = (   0.2499966   0.5773385   0.1005537  )
        85           I   tau(  85) = (   0.2500017   0.5773340   0.4920466  )
        86           I   tau(  86) = (   0.1249958   0.7938439   0.1005496  )
        87           I   tau(  87) = (   0.1250009   0.7938394   0.4920425  )
        88           I   tau(  88) = (   0.7499983   0.1443268   0.1005653  )
        89           I   tau(  89) = (   0.7500034   0.1443223   0.4920581  )
        90           I   tau(  90) = (   0.6249975   0.3608322   0.1005611  )
        91           I   tau(  91) = (   0.6250026   0.3608277   0.4920540  )
        92           I   tau(  92) = (   0.4999966   0.5773376   0.1005570  )
        93           I   tau(  93) = (   0.5000017   0.5773330   0.4920499  )
        94           I   tau(  94) = (   0.3749958   0.7938429   0.1005529  )
        95           I   tau(  95) = (   0.3750009   0.7938384   0.4920457  )

   Crystallographic axes

     site n.     atom                  positions (cryst. coord.)
         1           Pb  tau(   1) = (  0.2499950  0.2499832  0.4999959  )
         2           Pb  tau(   2) = (  0.2499961  0.4999768  0.9999906  )
         3           Pb  tau(   3) = (  0.2499936  0.4999820  0.4999906  )
         4           Pb  tau(   4) = (  0.2499947  0.7499757  0.9999854  )
         5           Pb  tau(   5) = (  0.2499922  0.7499809  0.4999854  )
         6           Pb  tau(   6) = (  0.2499932  0.9999745  0.9999801  )
         7           Pb  tau(   7) = (  0.2499908  0.9999797  0.4999801  )
         8           Pb  tau(   8) = (  0.4999969  0.2499768  1.0000001  )
         9           Pb  tau(   9) = (  0.4999944  0.2499821  0.5000001  )
        10           Pb  tau(  10) = (  0.4999955  0.4999757  0.9999948  )
        11           Pb  tau(  11) = (  0.4999930  0.4999809  0.4999948  )
        12           Pb  tau(  12) = (  0.4999941  0.7499745  0.9999895  )
        13           Pb  tau(  13) = (  0.4999916  0.7499798  0.4999895  )
        14           Pb  tau(  14) = (  0.4999927  0.9999734  0.9999843  )
        15           Pb  tau(  15) = (  0.4999902  0.9999786  0.4999843  )
        16           Pb  tau(  16) = (  0.7499964  0.2499757  1.0000042  )
        17           Pb  tau(  17) = (  0.7499939  0.2499809  0.5000042  )
        18           Pb  tau(  18) = (  0.7499950  0.4999746  0.9999990  )
        19           Pb  tau(  19) = (  0.7499925  0.4999798  0.4999990  )
        20           Pb  tau(  20) = (  0.7499935  0.7499734  0.9999937  )
        21           Pb  tau(  21) = (  0.7499910  0.7499786  0.4999937  )
        22           Pb  tau(  22) = (  0.7499921  0.9999723  0.9999884  )
        23           Pb  tau(  23) = (  0.7499896  0.9999775  0.4999884  )
        24           Pb  tau(  24) = (  0.9999958  0.2499746  1.0000084  )
        25           Pb  tau(  25) = (  0.9999933  0.2499798  0.5000084  )
        26           Pb  tau(  26) = (  0.9999944  0.4999735  1.0000031  )
        27           Pb  tau(  27) = (  0.9999919  0.4999787  0.5000031  )
        28           Pb  tau(  28) = (  0.9999930  0.7499723  0.9999979  )
        29           Pb  tau(  29) = (  0.9999905  0.7499775  0.4999979  )
        30           Pb  tau(  30) = (  0.9999916  0.9999712  0.9999926  )
        31           Pb  tau(  31) = (  0.9999891  0.9999764  0.4999926  )
        32           I   tau(  32) = (  0.1666641  0.0833174  0.3715680  )
        33           I   tau(  33) = (  0.1666666  0.0833122  0.8715680  )
        34           I   tau(  34) = (  0.1666626  0.3333162  0.3715628  )
        35           I   tau(  35) = (  0.1666651  0.3333110  0.8715628  )
        36           I   tau(  36) = (  0.1666612  0.5833151  0.3715575  )
        37           I   tau(  37) = (  0.1666637  0.5833099  0.8715575  )
        38           I   tau(  38) = (  0.1666598  0.8333139  0.3715522  )
        39           I   tau(  39) = (  0.1666623  0.8333087  0.8715522  )
        40           I   tau(  40) = (  0.4166635  0.0833163  0.3715722  )
        41           I   tau(  41) = (  0.4166660  0.0833111  0.8715722  )
        42           I   tau(  42) = (  0.4166621  0.3333151  0.3715669  )
        43           I   tau(  43) = (  0.4166646  0.3333099  0.8715669  )
        44           I   tau(  44) = (  0.4166607  0.5833140  0.3715617  )
        45           I   tau(  45) = (  0.4166632  0.5833088  0.8715617  )
        46           I   tau(  46) = (  0.4166593  0.8333128  0.3715564  )
        47           I   tau(  47) = (  0.4166618  0.8333076  0.8715564  )
        48           I   tau(  48) = (  0.6666629  0.0833152  0.3715764  )
        49           I   tau(  49) = (  0.6666654  0.0833099  0.8715764  )
        50           I   tau(  50) = (  0.6666615  0.3333140  0.3715711  )
        51           I   tau(  51) = (  0.6666640  0.3333088  0.8715711  )
        52           I   tau(  52) = (  0.6666601  0.5833129  0.3715658  )
        53           I   tau(  53) = (  0.6666626  0.5833076  0.8715658  )
        54           I   tau(  54) = (  0.6666587  0.8333117  0.3715606  )
        55           I   tau(  55) = (  0.6666612  0.8333065  0.8715606  )
        56           I   tau(  56) = (  0.9166624  0.0833141  0.3715805  )
        57           I   tau(  57) = (  0.9166649  0.0833088  0.8715805  )
        58           I   tau(  58) = (  0.9166610  0.3333129  0.3715752  )
        59           I   tau(  59) = (  0.9166635  0.3333077  0.8715752  )
        60           I   tau(  60) = (  0.9166596  0.5833118  0.3715700  )
        61           I   tau(  61) = (  0.9166621  0.5833065  0.8715700  )
        62           I   tau(  62) = (  0.9166582  0.8333106  0.3715647  )
        63           I   tau(  63) = (  0.9166607  0.8333054  0.8715647  )
        64           I   tau(  64) = (  0.0833271  0.1666576  0.1284257  )
        65           I   tau(  65) = (  0.0833296  0.1666524  0.6284257  )
        66           I   tau(  66) = (  0.0833257  0.4166565  0.1284204  )
        67           I   tau(  67) = (  0.0833282  0.4166513  0.6284204  )
        68           I   tau(  68) = (  0.0833243  0.6666553  0.1284152  )
        69           I   tau(  69) = (  0.0833268  0.6666501  0.6284152  )
        70           I   tau(  70) = (  0.0833229  0.9166542  0.1284099  )
        71           I   tau(  71) = (  0.0833254  0.9166489  0.6284099  )
        72           I   tau(  72) = (  0.3333265  0.1666565  0.1284299  )
        73           I   tau(  73) = (  0.3333290  0.1666513  0.6284299  )
        74           I   tau(  74) = (  0.3333251  0.4166554  0.1284246  )
        75           I   tau(  75) = (  0.3333276  0.4166501  0.6284246  )
        76           I   tau(  76) = (  0.3333237  0.6666542  0.1284193  )
        77           I   tau(  77) = (  0.3333262  0.6666490  0.6284193  )
        78           I   tau(  78) = (  0.3333223  0.9166531  0.1284141  )
        79           I   tau(  79) = (  0.3333248  0.9166478  0.6284141  )
        80           I   tau(  80) = (  0.5833260  0.1666554  0.1284340  )
        81           I   tau(  81) = (  0.5833285  0.1666502  0.6284340  )
        82           I   tau(  82) = (  0.5833246  0.4166542  0.1284287  )
        83           I   tau(  83) = (  0.5833271  0.4166490  0.6284287  )
        84           I   tau(  84) = (  0.5833232  0.6666531  0.1284235  )
        85           I   tau(  85) = (  0.5833257  0.6666479  0.6284235  )
        86           I   tau(  86) = (  0.5833218  0.9166519  0.1284182  )
        87           I   tau(  87) = (  0.5833243  0.9166467  0.6284182  )
        88           I   tau(  88) = (  0.8333254  0.1666543  0.1284382  )
        89           I   tau(  89) = (  0.8333279  0.1666491  0.6284382  )
        90           I   tau(  90) = (  0.8333240  0.4166531  0.1284329  )
        91           I   tau(  91) = (  0.8333265  0.4166479  0.6284329  )
        92           I   tau(  92) = (  0.8333226  0.6666520  0.1284276  )
        93           I   tau(  93) = (  0.8333251  0.6666468  0.6284276  )
        94           I   tau(  94) = (  0.8333212  0.9166508  0.1284224  )
        95           I   tau(  95) = (  0.8333237  0.9166456  0.6284224  )

     number of k points=     1  Gaussian smearing, width (Ry)=  0.0100
                       cart. coord. in units 2pi/alat
        k(    1) = (   0.0000000   0.0000000   0.0000000), wk =   2.0000000

                       cryst. coord.
        k(    1) = (   0.0000000   0.0000000   0.0000000), wk =   2.0000000

     Dense  grid:  3386231 G-vectors     FFT dimensions: ( 216, 216, 180)

     Smooth grid:  2422955 G-vectors     FFT dimensions: ( 192, 192, 150)

     Dynamical RAM for                 wfc:      33.00 MB

     Dynamical RAM for     wfc (w. buffer):      33.00 MB

     Dynamical RAM for           str. fact:       0.81 MB

     Dynamical RAM for           local pot:       0.00 MB

     Dynamical RAM for          nlocal pot:      61.73 MB

     Dynamical RAM for                qrad:       3.00 MB

     Dynamical RAM for          rho,v,vnew:       3.35 MB

     Dynamical RAM for               rhoin:       1.12 MB

     Dynamical RAM for            rho*nmix:       6.46 MB

     Dynamical RAM for           G-vectors:       1.66 MB

     Dynamical RAM for          h,s,v(r/c):     611.86 MB

     Dynamical RAM for          <psi|beta>:      23.85 MB

     Dynamical RAM for                 psi:     131.99 MB

     Dynamical RAM for                hpsi:     131.99 MB

     Dynamical RAM for                spsi:     131.99 MB

     Dynamical RAM for      wfcinit/wfcrot:      85.12 MB

     Dynamical RAM for           addusdens:     100.92 MB

     Dynamical RAM for          addusforce:     152.23 MB

     Dynamical RAM for         addusstress:      81.14 MB

     Estimated static dynamical RAM per process >     109.43 MB

     Estimated max dynamical RAM per process >       1.12 GB

     Estimated total dynamical RAM >     143.45 GB

     Atomic positions and unit cell read from directory:
     ./PbI2.save/
     Atomic positions from file used, from input discarded
 

     Check: negative core charge=   -0.000001

     The initial density is read from file :
     ./PbI2.save/charge-density



     %%%%%%%%%%%%%%%%%%%%%%%%%%%%%%%%%%%%%%%%%%%%%%%%%%%%%%%%%%%%%%%%%%%%%%%%
     %                                                                      %
     % You are using vdW-DF, which was implemented by the Thonhauser group. %
     % Please cite the following two papers that made this development      %
     % possible and the two reviews that describe the various versions:     %
     %                                                                      %
     %   T. Thonhauser et al., PRL 115, 136402 (2015).                      %
     %   T. Thonhauser et al., PRB 76, 125112 (2007).                       %
     %   K. Berland et al., Rep. Prog. Phys. 78, 066501 (2015).             %
     %   D.C. Langreth et al., J. Phys.: Condens. Matter 21, 084203 (2009). %
     %                                                                      %
     % If you are calculating stress with vdW-DF, please also cite:         %
     %                                                                      %
     %   R. Sabatini et al., J. Phys.: Condens. Matter 24, 424209 (2012).   %
     %                                                                      %
     %%%%%%%%%%%%%%%%%%%%%%%%%%%%%%%%%%%%%%%%%%%%%%%%%%%%%%%%%%%%%%%%%%%%%%%%

     %%%%%%%%%%%%%%%%%%%%%%%%%%%%%%%%%%%%%%%%%%%%%%%%%%%%%%%%%%%%%%%%%%%%%%%%
     %                                                                      %
     %  vdW-DF NEWS:                                                        %
     %                                                                      %
     %  * vdW-DF3 is now available. DOI: 10.1021/acs.jctc.0c00471           %
     %    use with input_dft = 'vdW-DF3-opt1' or 'vdW-DF3-opt2'             %
     %                                                                      %
     %  * Unscreened and range-separated vdW-DF hybrid functionals          %
     %    DOI: 10.1063/1.4986522 and 10.1088/1361-648X/ac2ad2               %
     %    use with input_dft = 'vdW-DF-cx0' (etc) and 'vdW-DF-ahcx'         %
     %                                                                      %
     %%%%%%%%%%%%%%%%%%%%%%%%%%%%%%%%%%%%%%%%%%%%%%%%%%%%%%%%%%%%%%%%%%%%%%%%


     Carrying out vdW-DF run using the following parameters:
     Nqs    =  20  Npoints =  1024  r_max =  100.000
     q_mesh =  0.00001000  0.04494208  0.09755937  0.15916263
               0.23128650  0.31572767  0.41458969  0.53033537
               0.66584808  0.82450364  1.01025438  1.22772762
               1.48234092  1.78043706  2.12944203  2.53805004
               3.01644009  3.57652955  4.23227104  5.00000000


     -----------------------------------------------
     Non-local corr. energy    =      45.78205910 Ry
     -----------------------------------------------

     Wavefunctions not found or not readable, recomputing them from scratch
     Starting wfcs are  855 randomized atomic wfcs +   59 random wfcs
     Checking if some PAW data can be deallocated... 
       PAW data deallocated on   66 nodes for type:  1
       PAW data deallocated on   62 nodes for type:  2

     total cpu time spent up to now is       16.4 secs

     Self-consistent Calculation

     iteration #  1     ecut=    70.00 Ry     beta= 0.70
     Davidson diagonalization with overlap

---- Real-time Memory Report at c_bands before calling an iterative solver
           490 MiB given to the printing process from OS
             0 MiB allocation reported by mallinfo(arena+hblkhd)
       1911475 MiB available memory on the node where the printing process lives
------------------
     c_bands:  2 eigenvalues not converged
     ethr =  1.00E-05,  avg # of iterations = 40.0

     Threshold (ethr) on eigenvalues was too large:
     Diagonalizing with lowered threshold

     Davidson diagonalization with overlap

---- Real-time Memory Report at c_bands before calling an iterative solver
          1215 MiB given to the printing process from OS
             0 MiB allocation reported by mallinfo(arena+hblkhd)
       1899343 MiB available memory on the node where the printing process lives
------------------
     c_bands:  2 eigenvalues not converged
     ethr =  1.17E-08,  avg # of iterations = 60.0


     -----------------------------------------------
     Non-local corr. energy    =      45.78212439 Ry
     -----------------------------------------------


     total cpu time spent up to now is      967.0 secs

     total energy              =  -63859.43335300 Ry
     estimated scf accuracy    <       0.00000036 Ry

     iteration #  2     ecut=    70.00 Ry     beta= 0.70
     Davidson diagonalization with overlap

---- Real-time Memory Report at c_bands before calling an iterative solver
          1295 MiB given to the printing process from OS
             0 MiB allocation reported by mallinfo(arena+hblkhd)
       1898844 MiB available memory on the node where the printing process lives
------------------
     c_bands:  3 eigenvalues not converged
     ethr =  2.35E-11,  avg # of iterations = 20.0


     -----------------------------------------------
     Non-local corr. energy    =      45.78211083 Ry
     -----------------------------------------------


     total cpu time spent up to now is     1174.9 secs

     total energy              =  -63859.43335274 Ry
     estimated scf accuracy    <       0.00000579 Ry

     iteration #  3     ecut=    70.00 Ry     beta= 0.70
     Davidson diagonalization with overlap

---- Real-time Memory Report at c_bands before calling an iterative solver
          1308 MiB given to the printing process from OS
             0 MiB allocation reported by mallinfo(arena+hblkhd)
       1898602 MiB available memory on the node where the printing process lives
------------------
     c_bands:  2 eigenvalues not converged
     ethr =  2.35E-11,  avg # of iterations = 20.0


     -----------------------------------------------
     Non-local corr. energy    =      45.78209800 Ry
     -----------------------------------------------


     total cpu time spent up to now is     1531.5 secs

     total energy              =  -63859.43335337 Ry
     estimated scf accuracy    <       0.00000022 Ry

     iteration #  4     ecut=    70.00 Ry     beta= 0.70
     Davidson diagonalization with overlap

---- Real-time Memory Report at c_bands before calling an iterative solver
          1308 MiB given to the printing process from OS
             0 MiB allocation reported by mallinfo(arena+hblkhd)
       1898472 MiB available memory on the node where the printing process lives
------------------
     ethr =  1.44E-11,  avg # of iterations = 19.0


     -----------------------------------------------
     Non-local corr. energy    =      45.78203558 Ry
     -----------------------------------------------


     total cpu time spent up to now is     1722.6 secs

     End of self-consistent calculation

          k = 0.0000 0.0000 0.0000 (302835 PWs)   bands (ev):

   -41.0217 -41.0216 -41.0216 -41.0216 -41.0216 -41.0216 -41.0216 -41.0216
   -41.0216 -41.0215 -41.0215 -41.0215 -41.0206 -41.0206 -41.0206 -41.0206
   -41.0206 -41.0206 -41.0205 -41.0205 -41.0205 -41.0205 -41.0204 -41.0204
   -41.0202 -41.0201 -41.0201 -41.0201 -41.0201 -41.0201 -41.0168 -41.0168
   -41.0167 -41.0167 -41.0167 -41.0167 -41.0167 -41.0167 -41.0167 -41.0167
   -41.0167 -41.0166 -41.0164 -41.0164 -41.0163 -41.0163 -41.0163 -41.0163
   -41.0163 -41.0163 -41.0163 -41.0162 -41.0162 -41.0162 -41.0160 -41.0160
   -41.0159 -41.0159 -41.0159 -41.0159 -41.0159 -41.0159 -41.0159 -41.0159
   -41.0159 -41.0159 -41.0159 -41.0158 -41.0158 -41.0158 -41.0158 -41.0158
   -41.0158 -41.0158 -41.0158 -41.0158 -41.0157 -41.0157 -41.0156 -41.0156
   -41.0155 -41.0155 -41.0155 -41.0155 -41.0155 -41.0155 -41.0155 -41.0155
   -41.0154 -41.0154 -41.0107 -41.0107 -41.0106 -41.0106 -41.0097 -41.0097
   -41.0096 -41.0096 -41.0094 -41.0093 -41.0043 -41.0043 -41.0043 -41.0042
   -41.0042 -41.0042 -41.0040 -41.0040 -41.0040 -41.0039 -41.0039 -41.0039
   -41.0033 -41.0033 -41.0033 -41.0032 -41.0032 -41.0032 -41.0032 -41.0032
   -41.0032 -41.0032 -41.0032 -41.0031 -41.0029 -41.0029 -41.0029 -41.0028
   -41.0028 -41.0028 -40.9933 -40.9933 -40.9933 -40.9932 -40.9932 -40.9932
   -40.9930 -40.9929 -40.9929 -40.9929 -40.9929 -40.9928 -40.9926 -40.9926
   -40.9926 -40.9926 -40.9925 -40.9925 -40.9924 -40.9924 -40.9924 -40.9924
   -40.9923 -40.9923 -40.9923 -40.9923 -40.9923 -40.9923 -40.9922 -40.9922
   -40.8644 -40.8644 -40.8644 -40.8644 -40.8621 -40.8621 -40.8621 -40.8621
   -40.8612 -40.8612 -40.8359 -40.8359 -40.8359 -40.8358 -40.8358 -40.8357
   -40.8351 -40.8351 -40.8350 -40.8349 -40.8349 -40.8349 -40.8331 -40.8330
   -40.8330 -40.8329 -40.8329 -40.8329 -40.8280 -40.8279 -40.8279 -40.8279
   -40.8279 -40.8279 -40.8278 -40.8278 -40.8278 -40.8278 -40.8278 -40.8277
   -40.8052 -40.8052 -40.8052 -40.8052 -40.8052 -40.8051 -40.8037 -40.8037
   -40.8037 -40.8037 -40.8036 -40.8036 -40.8036 -40.8035 -40.8035 -40.8035
   -40.8035 -40.8034 -40.8008 -40.8008 -40.8008 -40.8007 -40.8007 -40.8007
   -40.8002 -40.8002 -40.8002 -40.8002 -40.8001 -40.8001 -40.7726 -40.7726
   -40.7725 -40.7725 -40.7725 -40.7725 -40.7725 -40.7725 -40.7725 -40.7725
   -40.7724 -40.7724 -40.7719 -40.7718 -40.7718 -40.7718 -40.7718 -40.7718
   -40.7717 -40.7717 -40.7717 -40.7717 -40.7717 -40.7716 -40.7589 -40.7589
   -40.7589 -40.7589 -40.7589 -40.7589 -40.7588 -40.7588 -40.7588 -40.7588
   -40.7588 -40.7587 -40.7553 -40.7553 -40.7552 -40.7552 -40.7552 -40.7552
   -40.7552 -40.7552 -40.7552 -40.7551 -40.7551 -40.7551 -40.7523 -40.7523
   -40.7523 -40.7523 -40.7523 -40.7522 -40.7522 -40.7522 -40.7522 -40.7522
   -40.7522 -40.7521 -40.6070 -40.6069 -40.6068 -40.6068 -40.6067 -40.6066
   -40.6060 -40.6060 -40.6059 -40.6059 -40.6058 -40.6057 -40.5335 -40.5334
   -40.5334 -40.5333 -40.5332 -40.5331 -40.5288 -40.5287 -40.5287 -40.5287
   -40.5286 -40.5285 -40.5071 -40.5070 -40.5070 -40.5070 -40.5068 -40.5067
   -13.1860 -13.1860 -13.1813 -13.1809 -13.1793 -13.1793 -13.1775 -13.1757
   -13.1748 -13.1748 -13.1706 -13.1706 -13.1683 -13.1683 -13.1677 -13.1653
   -13.1653 -13.1652 -13.1650 -13.1642 -13.1642 -13.1638 -13.1624 -13.1624
   -13.1623 -13.1620 -13.1620 -13.1613 -13.1613 -13.1603 -13.1603 -13.1601
   -13.1599 -13.1575 -13.1570 -13.1570 -13.1570 -13.1568 -13.1568 -13.1558
   -13.1558 -13.1556 -13.1546 -13.1544 -13.1537 -13.1537 -13.1536 -13.1536
   -13.1526 -13.1523 -13.1523 -13.1518 -13.1518 -13.1503 -13.1502 -13.1498
   -13.1498 -13.1498 -13.1496 -13.1496 -13.1495 -13.1495 -13.1487 -13.1480
   -13.1480 -13.1476 -13.1470 -13.1470 -13.1470 -13.1456 -13.1456 -13.1435
   -13.1435 -13.1434 -13.1431 -13.1431 -13.1412 -13.1365 -13.1343 -13.1343
   -12.9915 -12.9907 -12.9849 -12.9849 -12.9823 -12.9823 -12.9797 -12.9796
   -12.9791 -12.9791 -12.9758 -12.9743 -12.9705 -12.9705 -12.9685 -12.9685
   -12.9683 -12.9683 -12.9655 -12.9655 -12.9654 -12.9654 -12.9649 -12.9640
   -12.9638 -12.9638 -12.9631 -12.9629 -12.9625 -12.9625 -12.9500 -12.9479
   -12.9479 -12.9437 -12.9436 -12.9436 -12.9338 -12.9338 -12.9334 -12.9330
   -12.9325 -12.9324 -12.9280 -12.9280 -12.9279 -12.9003 -12.8964 -12.8963
   -12.8881 -12.8881 -12.8828 -12.8827 -12.8775 -12.8775 -12.8744 -12.8741
   -12.8741 -12.8740 -12.8730 -12.8730 -12.8709 -12.8709 -12.8697 -12.8671
   -12.8671 -12.8666 -12.8648 -12.8648 -12.8613 -12.8527 -12.8521 -12.8521
   -12.8505 -12.8504 -12.8498  -8.3127  -8.1229  -8.1217  -8.1217  -8.1103
    -8.1102  -8.1022  -8.0508  -7.9097  -7.8881  -7.8690  -7.8670  -7.8670
    -7.8653  -7.8653  -7.8634  -7.8591  -7.8591  -7.8517  -7.8516  -7.8403
    -7.8393  -7.8393  -7.8038  -7.8008  -7.8008  -7.7914  -7.7914  -7.7824
    -7.7792  -7.7491  -7.7491  -7.7398  -7.7334  -7.7258  -7.7222  -7.7222
    -7.7188  -7.7188  -7.6745  -7.6566  -7.6566  -7.6310  -7.6310  -7.6162
    -7.6142  -7.5907  -7.5676  -7.5676  -7.5669  -7.5480  -7.5387  -7.5387
    -7.5310  -7.5310  -7.5036  -7.5036  -7.4768  -7.4217  -7.3904  -7.3904
    -7.3136  -7.3136  -7.2865  -3.8847  -3.8800  -3.8800  -3.8711  -3.8711
    -3.8699  -3.8699  -3.8617  -3.8575  -3.6750  -3.6750  -3.6730  -3.6450
    -3.6450  -3.6079  -3.6079  -3.6067  -3.6067  -3.6005  -3.6005  -3.6001
    -3.5978  -3.5977  -3.4197  -3.4158  -3.3885  -3.3828  -3.3827  -3.3176
    -3.3176  -3.1602   0.6963   0.6963   0.6980   1.0101   1.0110   1.0144
     1.0144   1.0145   1.0145   1.0619   1.0619   1.0698   1.1742   1.1777
     1.1885   1.1885   1.1892   1.1892   1.2881   1.2881   1.3210   1.3226
     1.3226   1.3231   1.3326   1.3326   1.3345   1.3426   1.3426   1.3835
     1.4112   1.4240   1.4240   1.4479   1.4924   1.4924   1.5215   1.5561
     1.5561   1.5954   1.5954   1.5982   1.6151   1.6320   1.6320   1.6415
     1.6415   1.6480   1.6836   1.6982   1.6982   1.7120   1.7311   1.7311
     1.8855   1.8883   1.8883   1.8893   1.8972   1.8972   1.9411   1.9411
     1.9554   1.9820   1.9820   2.0007   2.0036   2.0173   2.0173   2.0195
     2.0223   2.0232   2.0232   2.0575   2.0575   2.0708   2.1359   2.1359
     2.1362   2.1686   2.1727   2.1876   2.1950   2.1950   2.1966   2.1966
     2.2222   2.2222   2.2311   2.2311   2.2557   2.2557   2.2585   2.2938
     2.3091   2.3396   2.3396   2.3691   2.3691   2.3827   2.4115   2.4176
     2.4176   2.4424   2.4789   2.4789   2.4858   2.4858   2.4927   2.5653
     2.5682   2.5682   2.5690   2.5794   2.5794   2.5832   2.5858   2.5858
     2.6153   2.6153   2.6822   2.6822   2.6839   2.6847   2.6847   2.6880
     2.6888   2.6888   2.7078   2.7155   2.7166   2.7292   2.7292   2.7384
     2.7384   2.7659   2.8096   2.8254   2.8255   2.8398   2.8509   2.8509
     2.8637   2.8637   2.8652   2.8652   2.8677   2.8965   2.8965   2.9038
     2.9057   2.9166   2.9166   2.9337   2.9338   2.9346   2.9511   2.9717
     2.9717   2.9837   3.0209   3.0260   3.0260   3.0273   3.0273   3.0438
     3.0486   3.0614   3.0615   3.0737   3.0737   3.0775   3.1251   3.1251
     3.1538   3.1859   3.1860   3.2740   3.2799   3.2799   3.2999   3.3004
     3.3004   3.3214   3.3467   3.3467   3.3906   3.3996   3.3996   3.3997
     3.3998   3.4189   5.7586   6.1059   6.3240   6.3248   6.3248   6.3294
     6.3294   6.3390   6.4373   6.4373   6.4464   6.5974   6.5974   6.6113
     6.6113   6.6403   6.6623   6.6623   6.6944   6.8246   6.8296   6.8296
     6.8408   6.8535   6.8535   6.8537   6.8537   6.9394   6.9615   6.9615
     6.9731   6.9791   6.9792   6.9831   6.9951   6.9951   7.0848   7.0931
     7.0931   7.0932   7.0932   7.1155   7.1169   7.1222   7.1222   7.1269
     7.1269   7.1314   7.1533   7.1533   7.1558   7.2107   7.2154   7.2155
     7.2658   7.2659   7.2667   7.2923   7.2923   7.2960   7.3109   7.3123
     7.3123   7.3166   7.3467   7.3533   7.3533   7.3890   7.3890   7.3977
     7.3992   7.4014   7.4014   7.4207   7.4208   7.4285   7.4285   7.4445
     7.4498   7.4931   7.4932   7.5027   7.5027   7.5384   7.5685   7.6632
     7.6632   7.6823   7.6823   7.7677   7.9262   7.9523   7.9523   9.0611
     9.0625   9.0625   9.6192   9.6751   9.6808   9.6808   9.7017   9.7017
     9.7084   9.7133   9.7234   9.7234   9.9044   9.9189   9.9189   9.9239
     9.9239   9.9336   9.9336   9.9618   9.9982  10.0319  10.0737  10.0737
    10.1909  10.1909  10.1965  10.1988  10.2011  10.2011  10.2485  10.3800
    10.3956  10.3956  10.4447  10.5102  10.5102  10.6028  10.6440  10.6440
    10.6752  10.6922  10.6922  10.7680  10.8033  10.8033  10.8092  10.8138
    10.8138  10.8346  10.9593  10.9594  11.0521  11.0806  11.0806  11.0850
    11.0917  11.0917

     occupation numbers 
     1.0000   1.0000   1.0000   1.0000   1.0000   1.0000   1.0000   1.0000
     1.0000   1.0000   1.0000   1.0000   1.0000   1.0000   1.0000   1.0000
     1.0000   1.0000   1.0000   1.0000   1.0000   1.0000   1.0000   1.0000
     1.0000   1.0000   1.0000   1.0000   1.0000   1.0000   1.0000   1.0000
     1.0000   1.0000   1.0000   1.0000   1.0000   1.0000   1.0000   1.0000
     1.0000   1.0000   1.0000   1.0000   1.0000   1.0000   1.0000   1.0000
     1.0000   1.0000   1.0000   1.0000   1.0000   1.0000   1.0000   1.0000
     1.0000   1.0000   1.0000   1.0000   1.0000   1.0000   1.0000   1.0000
     1.0000   1.0000   1.0000   1.0000   1.0000   1.0000   1.0000   1.0000
     1.0000   1.0000   1.0000   1.0000   1.0000   1.0000   1.0000   1.0000
     1.0000   1.0000   1.0000   1.0000   1.0000   1.0000   1.0000   1.0000
     1.0000   1.0000   1.0000   1.0000   1.0000   1.0000   1.0000   1.0000
     1.0000   1.0000   1.0000   1.0000   1.0000   1.0000   1.0000   1.0000
     1.0000   1.0000   1.0000   1.0000   1.0000   1.0000   1.0000   1.0000
     1.0000   1.0000   1.0000   1.0000   1.0000   1.0000   1.0000   1.0000
     1.0000   1.0000   1.0000   1.0000   1.0000   1.0000   1.0000   1.0000
     1.0000   1.0000   1.0000   1.0000   1.0000   1.0000   1.0000   1.0000
     1.0000   1.0000   1.0000   1.0000   1.0000   1.0000   1.0000   1.0000
     1.0000   1.0000   1.0000   1.0000   1.0000   1.0000   1.0000   1.0000
     1.0000   1.0000   1.0000   1.0000   1.0000   1.0000   1.0000   1.0000
     1.0000   1.0000   1.0000   1.0000   1.0000   1.0000   1.0000   1.0000
     1.0000   1.0000   1.0000   1.0000   1.0000   1.0000   1.0000   1.0000
     1.0000   1.0000   1.0000   1.0000   1.0000   1.0000   1.0000   1.0000
     1.0000   1.0000   1.0000   1.0000   1.0000   1.0000   1.0000   1.0000
     1.0000   1.0000   1.0000   1.0000   1.0000   1.0000   1.0000   1.0000
     1.0000   1.0000   1.0000   1.0000   1.0000   1.0000   1.0000   1.0000
     1.0000   1.0000   1.0000   1.0000   1.0000   1.0000   1.0000   1.0000
     1.0000   1.0000   1.0000   1.0000   1.0000   1.0000   1.0000   1.0000
     1.0000   1.0000   1.0000   1.0000   1.0000   1.0000   1.0000   1.0000
     1.0000   1.0000   1.0000   1.0000   1.0000   1.0000   1.0000   1.0000
     1.0000   1.0000   1.0000   1.0000   1.0000   1.0000   1.0000   1.0000
     1.0000   1.0000   1.0000   1.0000   1.0000   1.0000   1.0000   1.0000
     1.0000   1.0000   1.0000   1.0000   1.0000   1.0000   1.0000   1.0000
     1.0000   1.0000   1.0000   1.0000   1.0000   1.0000   1.0000   1.0000
     1.0000   1.0000   1.0000   1.0000   1.0000   1.0000   1.0000   1.0000
     1.0000   1.0000   1.0000   1.0000   1.0000   1.0000   1.0000   1.0000
     1.0000   1.0000   1.0000   1.0000   1.0000   1.0000   1.0000   1.0000
     1.0000   1.0000   1.0000   1.0000   1.0000   1.0000   1.0000   1.0000
     1.0000   1.0000   1.0000   1.0000   1.0000   1.0000   1.0000   1.0000
     1.0000   1.0000   1.0000   1.0000   1.0000   1.0000   1.0000   1.0000
     1.0000   1.0000   1.0000   1.0000   1.0000   1.0000   1.0000   1.0000
     1.0000   1.0000   1.0000   1.0000   1.0000   1.0000   1.0000   1.0000
     1.0000   1.0000   1.0000   1.0000   1.0000   1.0000   1.0000   1.0000
     1.0000   1.0000   1.0000   1.0000   1.0000   1.0000   1.0000   1.0000
     1.0000   1.0000   1.0000   1.0000   1.0000   1.0000   1.0000   1.0000
     1.0000   1.0000   1.0000   1.0000   1.0000   1.0000   1.0000   1.0000
     1.0000   1.0000   1.0000   1.0000   1.0000   1.0000   1.0000   1.0000
     1.0000   1.0000   1.0000   1.0000   1.0000   1.0000   1.0000   1.0000
     1.0000   1.0000   1.0000   1.0000   1.0000   1.0000   1.0000   1.0000
     1.0000   1.0000   1.0000   1.0000   1.0000   1.0000   1.0000   1.0000
     1.0000   1.0000   1.0000   1.0000   1.0000   1.0000   1.0000   1.0000
     1.0000   1.0000   1.0000   1.0000   1.0000   1.0000   1.0000   1.0000
     1.0000   1.0000   1.0000   1.0000   1.0000   1.0000   1.0000   1.0000
     1.0000   1.0000   1.0000   1.0000   1.0000   1.0000   1.0000   1.0000
     1.0000   1.0000   1.0000   1.0000   1.0000   1.0000   1.0000   1.0000
     1.0000   1.0000   1.0000   1.0000   1.0000   1.0000   1.0000   1.0000
     1.0000   1.0000   1.0000   1.0000   1.0000   1.0000   1.0000   1.0000
     1.0000   1.0000   1.0000   1.0000   1.0000   1.0000   1.0000   1.0000
     1.0000   1.0000   1.0000   1.0000   1.0000   1.0000   1.0000   1.0000
     1.0000   1.0000   1.0000   1.0000   1.0000   1.0000   1.0000   1.0000
     1.0000   1.0000   1.0000   1.0000   1.0000   1.0000   1.0000   1.0000
     1.0000   1.0000   1.0000   1.0000   1.0000   1.0000   1.0000   1.0000
     1.0000   1.0000   1.0000   1.0000   1.0000   1.0000   1.0000   1.0000
     1.0000   1.0000   1.0000   1.0000   1.0000   1.0000   1.0000   1.0000
     1.0000   1.0000   1.0000   1.0000   1.0000   1.0000   1.0000   1.0000
     1.0000   1.0000   1.0000   1.0000   1.0000   1.0000   1.0000   1.0000
     1.0000   1.0000   1.0000   1.0000   1.0000   1.0000   1.0000   1.0000
     1.0000   1.0000   1.0000   1.0000   1.0000   1.0000   1.0000   1.0000
     1.0000   1.0000   1.0000   1.0000   1.0000   1.0000   1.0000   1.0000
     1.0000   1.0000   1.0000   1.0000   1.0000   1.0000   1.0000   1.0000
     1.0000   1.0000   1.0000   1.0000   1.0000   1.0000   1.0000   1.0000
     1.0000   1.0000   1.0000   1.0000   1.0000   1.0000   1.0000   1.0000
     1.0000   1.0000   1.0000   1.0000   1.0000   1.0000   1.0000   1.0000
     1.0000   1.0000   1.0000   1.0000   1.0000   1.0000   1.0000   1.0000
     1.0000   1.0000   1.0000   1.0000   1.0000   1.0000   1.0000   1.0000
     1.0000   1.0000   1.0000   1.0000   1.0000   1.0000   1.0000   1.0000
     1.0000   1.0000   1.0000   1.0000   1.0000   1.0000   1.0000   1.0000
     1.0000   1.0000   1.0000   1.0000   1.0000   1.0000   1.0000   1.0000
     1.0000   1.0000   1.0000   1.0000   1.0000   1.0000   1.0000   1.0000
     1.0000   1.0000   1.0000   1.0000   1.0000   1.0000   1.0000   1.0000
     1.0000   1.0000   1.0000   1.0000   1.0000   1.0000   1.0000   1.0000
     1.0000   1.0000   1.0000   1.0000   1.0000   1.0000   1.0000   1.0000
     1.0000   1.0000   1.0000   1.0000   1.0000   1.0000   1.0000   1.0000
     1.0000   1.0000   1.0000   1.0000   1.0000   1.0000   1.0000   1.0000
     1.0000   1.0000   1.0000   1.0000   1.0000   1.0000   1.0000   1.0000
     1.0000   1.0000   1.0000   1.0000   1.0000   1.0000   1.0000   1.0000
     1.0000   1.0000   1.0000   1.0000   1.0000   1.0000   1.0000   1.0000
     1.0000   1.0000   1.0000   1.0000   1.0000   1.0000   1.0000   1.0000
     1.0000   1.0000   1.0000   1.0000   1.0000   1.0000   1.0000   1.0000
     1.0000   1.0000   1.0000   1.0000   1.0000   1.0000   1.0000   1.0000
     1.0000   1.0000   1.0000   1.0000   1.0000   1.0000   1.0000   1.0000
     1.0000   1.0000   1.0000   1.0000   1.0000   1.0000   1.0000   1.0000
     1.0000   1.0000   1.0000   1.0000   1.0000   1.0000   1.0000   1.0000
     1.0000   0.9999   0.9999   0.9975   0.9969   0.9969   0.9943   0.9943
     0.9943   0.9896   0.9796   0.9796   0.9441   0.9328   0.9328   0.9326
     0.9325   0.9024   0.0000   0.0000   0.0000   0.0000   0.0000   0.0000
     0.0000   0.0000   0.0000   0.0000   0.0000   0.0000   0.0000   0.0000
     0.0000   0.0000   0.0000   0.0000   0.0000   0.0000   0.0000   0.0000
     0.0000   0.0000   0.0000   0.0000   0.0000   0.0000   0.0000   0.0000
     0.0000   0.0000   0.0000   0.0000   0.0000   0.0000   0.0000   0.0000
     0.0000   0.0000   0.0000   0.0000   0.0000   0.0000   0.0000   0.0000
     0.0000   0.0000   0.0000   0.0000   0.0000   0.0000   0.0000   0.0000
     0.0000   0.0000   0.0000   0.0000   0.0000   0.0000   0.0000   0.0000
     0.0000   0.0000   0.0000   0.0000   0.0000   0.0000   0.0000   0.0000
     0.0000   0.0000   0.0000   0.0000   0.0000   0.0000   0.0000   0.0000
     0.0000   0.0000   0.0000   0.0000   0.0000   0.0000   0.0000   0.0000
     0.0000   0.0000   0.0000   0.0000   0.0000   0.0000   0.0000   0.0000
     0.0000   0.0000   0.0000   0.0000   0.0000   0.0000   0.0000   0.0000
     0.0000   0.0000   0.0000   0.0000   0.0000   0.0000   0.0000   0.0000
     0.0000   0.0000   0.0000   0.0000   0.0000   0.0000   0.0000   0.0000
     0.0000   0.0000   0.0000   0.0000   0.0000   0.0000   0.0000   0.0000
     0.0000   0.0000   0.0000   0.0000   0.0000   0.0000   0.0000   0.0000
     0.0000   0.0000   0.0000   0.0000   0.0000   0.0000   0.0000   0.0000
     0.0000   0.0000   0.0000   0.0000   0.0000   0.0000   0.0000   0.0000
     0.0000   0.0000

     the Fermi energy is     3.5436 ev

!    total energy              =  -63859.43335332 Ry
     total all-electron energy =  -2207179.999016 Ry
     estimated scf accuracy    <       0.00000003 Ry
     smearing contrib. (-TS)   =      -0.01426353 Ry
     internal energy E=F+TS    =  -63859.41908979 Ry

     The total energy is F=E-TS. E is the sum of the following terms:
     one-electron contribution =  -11976.59773846 Ry
     hartree contribution      =    6673.74544029 Ry
     xc contribution           =   -4503.40070382 Ry
     ewald contribution        =   -9747.84114927 Ry
     one-center paw contrib.   =  -44305.32493854 Ry
      -> PAW hartree energy AE =      95.95651181 Ry
      -> PAW hartree energy PS =     -96.19371082 Ry
      -> PAW xc energy AE      =    -798.43455382 Ry
      -> PAW xc energy PS      =      33.31417621 Ry
      -> total E_H with PAW    =    6673.50824128 Ry
      -> total E_XC with PAW   =   -5268.52108143 Ry

     convergence has been achieved in   4 iterations


     -----------------------------------------------
     Non-local corr. energy    =      45.78203558 Ry
     -----------------------------------------------


     Forces acting on atoms (cartesian axes, Ry/au):

     atom    1 type  1   force =    -0.00000435   -0.00000502   -0.00000029
     atom    2 type  1   force =     0.00029652   -0.00054300    0.00000002
     atom    3 type  1   force =     0.00046787   -0.00082831    0.00000128
     atom    4 type  1   force =    -0.00001803   -0.00000963    0.00000075
     atom    5 type  1   force =    -0.00000935   -0.00000242    0.00000051
     atom    6 type  1   force =    -0.00031448    0.00052203   -0.00000310
     atom    7 type  1   force =    -0.00048595    0.00082011    0.00000037
     atom    8 type  1   force =    -0.00061041    0.00000435   -0.00000206
     atom    9 type  1   force =    -0.00095263    0.00000361   -0.00000157
     atom   10 type  1   force =    -0.00030283   -0.00053329    0.00000111
     atom   11 type  1   force =    -0.00047140   -0.00082780   -0.00000139
     atom   12 type  1   force =    -0.00000284   -0.00057693   -0.00074713
     atom   13 type  1   force =    -0.00000119   -0.00039874   -0.00006493
     atom   14 type  1   force =    -0.00050128    0.00028995   -0.00074817
     atom   15 type  1   force =    -0.00034959    0.00020093   -0.00006493
     atom   16 type  1   force =     0.00000545    0.00001439    0.00000272
     atom   17 type  1   force =     0.00000128    0.00000979    0.00000061
     atom   18 type  1   force =    -0.00048667   -0.00028020    0.00075367
     atom   19 type  1   force =    -0.00033559   -0.00019411    0.00006399
     atom   20 type  1   force =     0.00001605   -0.00000058    0.00000113
     atom   21 type  1   force =     0.00001142   -0.00000105   -0.00000072
     atom   22 type  1   force =     0.00050870    0.00029726   -0.00074533
     atom   23 type  1   force =     0.00035010    0.00020218   -0.00006240
     atom   24 type  1   force =     0.00061909    0.00000558    0.00000037
     atom   25 type  1   force =     0.00095258    0.00000430   -0.00000026
     atom   26 type  1   force =     0.00049173   -0.00028419    0.00075312
     atom   27 type  1   force =     0.00033831   -0.00019503    0.00006311
     atom   28 type  1   force =    -0.00000098    0.00056990    0.00075015
     atom   29 type  1   force =     0.00000095    0.00039465    0.00006112
     atom   30 type  1   force =     0.00031004    0.00053007    0.00000066
     atom   31 type  1   force =     0.00048417    0.00082323   -0.00000082
     atom   32 type  2   force =    -0.00003306   -0.00024375    0.00008471
     atom   33 type  2   force =    -0.00004709    0.00069169   -0.00065294
     atom   34 type  2   force =    -0.00024160    0.00010070    0.00008813
     atom   35 type  2   force =     0.00054962   -0.00037838   -0.00064938
     atom   36 type  2   force =    -0.00012066    0.00014498   -0.00021023
     atom   37 type  2   force =     0.00033579   -0.00028750    0.00002920
     atom   38 type  2   force =     0.00007869   -0.00017966   -0.00020790
     atom   39 type  2   force =    -0.00005894    0.00041809    0.00002813
     atom   40 type  2   force =     0.00029134   -0.00016722    0.00002029
     atom   41 type  2   force =    -0.00029077    0.00016018    0.00008704
     atom   42 type  2   force =     0.00020290    0.00011217    0.00009746
     atom   43 type  2   force =    -0.00063090   -0.00036649   -0.00068159
     atom   44 type  2   force =    -0.00001469    0.00033152    0.00002472
     atom   45 type  2   force =    -0.00003074   -0.00033821    0.00007856
     atom   46 type  2   force =     0.00004547    0.00002837   -0.00010122
     atom   47 type  2   force =     0.00005432    0.00003412    0.00026100
     atom   48 type  2   force =     0.00002441   -0.00003782   -0.00010424
     atom   49 type  2   force =     0.00003165   -0.00004672    0.00027301
     atom   50 type  2   force =     0.00022078    0.00001391   -0.00021166
     atom   51 type  2   force =    -0.00034811   -0.00017952    0.00002558
     atom   52 type  2   force =     0.00012189    0.00017122   -0.00020801
     atom   53 type  2   force =    -0.00032101   -0.00023316    0.00001872
     atom   54 type  2   force =    -0.00003472    0.00005042   -0.00009780
     atom   55 type  2   force =    -0.00004311    0.00006153    0.00026323
     atom   56 type  2   force =    -0.00028431   -0.00014931    0.00000492
     atom   57 type  2   force =     0.00030158    0.00020282    0.00011726
     atom   58 type  2   force =    -0.00018365    0.00000412   -0.00021521
     atom   59 type  2   force =     0.00042358   -0.00018664    0.00004409
     atom   60 type  2   force =     0.00001030   -0.00000579   -0.00033643
     atom   61 type  2   force =     0.00001855   -0.00001151   -0.00057443
     atom   62 type  2   force =    -0.00008924   -0.00016133   -0.00021245
     atom   63 type  2   force =     0.00004909    0.00044908    0.00003444
     atom   64 type  2   force =     0.00055758    0.00034144    0.00065899
     atom   65 type  2   force =    -0.00023921   -0.00012460   -0.00010795
     atom   66 type  2   force =     0.00029427   -0.00020995   -0.00009881
     atom   67 type  2   force =    -0.00029061    0.00014341   -0.00002045
     atom   68 type  2   force =    -0.00004335   -0.00003859   -0.00025599
     atom   69 type  2   force =    -0.00004001   -0.00003184    0.00008859
     atom   70 type  2   force =    -0.00002170    0.00036720   -0.00007751
     atom   71 type  2   force =    -0.00001537   -0.00032183   -0.00002733
     atom   72 type  2   force =    -0.00062437    0.00032330    0.00070237
     atom   73 type  2   force =     0.00019889   -0.00014057   -0.00011970
     atom   74 type  2   force =    -0.00004850   -0.00072564    0.00068779
     atom   75 type  2   force =    -0.00003413    0.00023803   -0.00011359
     atom   76 type  2   force =     0.00004214   -0.00042876   -0.00001688
     atom   77 type  2   force =    -0.00008736    0.00017511    0.00019897
     atom   78 type  2   force =    -0.00034043    0.00025248   -0.00000840
     atom   79 type  2   force =     0.00011662   -0.00016301    0.00019363
     atom   80 type  2   force =    -0.00036122    0.00016168   -0.00001153
     atom   81 type  2   force =     0.00022236   -0.00002651    0.00019636
     atom   82 type  2   force =    -0.00027599   -0.00017577   -0.00005393
     atom   83 type  2   force =     0.00029902    0.00016470   -0.00004544
     atom   84 type  2   force =    -0.00005013   -0.00039867   -0.00000732
     atom   85 type  2   force =     0.00007727    0.00019922    0.00019447
     atom   86 type  2   force =     0.00001597    0.00001886    0.00058524
     atom   87 type  2   force =     0.00000967    0.00001275    0.00032430
     atom   88 type  2   force =     0.00042638    0.00017288   -0.00003574
     atom   89 type  2   force =    -0.00018298   -0.00001693    0.00020146
     atom   90 type  2   force =     0.00003343    0.00004005   -0.00025723
     atom   91 type  2   force =     0.00002727    0.00003521    0.00009234
     atom   92 type  2   force =     0.00006125   -0.00001150   -0.00025129
     atom   93 type  2   force =     0.00004873   -0.00001047    0.00008450
     atom   94 type  2   force =     0.00034780    0.00030123   -0.00002707
     atom   95 type  2   force =    -0.00011734   -0.00013682    0.00019853
     The non-local contrib.  to forces
     atom    1 type  1   force =    -0.00000018   -0.00001940    0.00000297
     atom    2 type  1   force =     0.03948892   -0.06842844   -0.00000819
     atom    3 type  1   force =    -0.00016255    0.00024419   -0.00000332
     atom    4 type  1   force =    -0.00001494   -0.00002585   -0.00000048
     atom    5 type  1   force =    -0.00000416   -0.00003043    0.00000019
     atom    6 type  1   force =    -0.03950816    0.06842123    0.00000856
     atom    7 type  1   force =     0.00014857   -0.00030057   -0.00001239
     atom    8 type  1   force =    -0.07899274   -0.00001466   -0.00001418
     atom    9 type  1   force =     0.00030803   -0.00001716    0.00001626
     atom   10 type  1   force =    -0.03946894   -0.06842978   -0.00000625
     atom   11 type  1   force =     0.00015748    0.00023854    0.00001385
     atom   12 type  1   force =     0.00001211   -0.01050437    0.01576494
     atom   13 type  1   force =    -0.00000003   -0.00099977   -0.00178677
     atom   14 type  1   force =    -0.00906567    0.00521411    0.01576389
     atom   15 type  1   force =    -0.00084342    0.00045708   -0.00179620
     atom   16 type  1   force =     0.00001847   -0.00002525    0.00000249
     atom   17 type  1   force =     0.00001165   -0.00001556    0.00000137
     atom   18 type  1   force =    -0.00905608   -0.00527036   -0.01576416
     atom   19 type  1   force =    -0.00082749   -0.00050423    0.00179128
     atom   20 type  1   force =     0.00003468   -0.00001736    0.00000733
     atom   21 type  1   force =     0.00001021   -0.00002542    0.00000221
     atom   22 type  1   force =     0.00909850    0.00521818    0.01576234
     atom   23 type  1   force =     0.00084815    0.00045996   -0.00180033
     atom   24 type  1   force =     0.07899386   -0.00002456   -0.00000372
     atom   25 type  1   force =    -0.00030331   -0.00002017   -0.00000030
     atom   26 type  1   force =     0.00908023   -0.00527489   -0.01575847
     atom   27 type  1   force =     0.00084468   -0.00051061    0.00179357
     atom   28 type  1   force =     0.00000863    0.01044126   -0.01575671
     atom   29 type  1   force =     0.00000454    0.00093817    0.00179565
     atom   30 type  1   force =     0.03951452    0.06840763    0.00002038
     atom   31 type  1   force =    -0.00015080   -0.00029523   -0.00001086
     atom   32 type  2   force =    -0.00001886   -0.00187321    0.25401764
     atom   33 type  2   force =    -0.00003440   -0.14145707    0.19124282
     atom   34 type  2   force =    -0.00163599    0.00094187    0.25401959
     atom   35 type  2   force =    -0.12252878    0.07071647    0.19123683
     atom   36 type  2   force =    -0.00036197    0.00044305    0.25170776
     atom   37 type  2   force =    -0.02870087    0.00809591    0.22440665
     atom   38 type  2   force =     0.00019456   -0.00052502    0.25170869
     atom   39 type  2   force =    -0.00733595   -0.02891465    0.22439651
     atom   40 type  2   force =     0.00361129   -0.00210461    0.25814519
     atom   41 type  2   force =    -0.00574676    0.00329968    0.23716638
     atom   42 type  2   force =     0.00159555    0.00094444    0.25402418
     atom   43 type  2   force =     0.12244353    0.07071491    0.19122844
     atom   44 type  2   force =    -0.00002435    0.00419351    0.25814735
     atom   45 type  2   force =    -0.00003338   -0.00660620    0.23716222
     atom   46 type  2   force =     0.00093520    0.00054566    0.25407566
     atom   47 type  2   force =    -0.00530569   -0.00305470    0.23334995
     atom   48 type  2   force =     0.00001747   -0.00108604    0.25407320
     atom   49 type  2   force =     0.00001764    0.00613091    0.23336018
     atom   50 type  2   force =     0.00056991    0.00012118    0.25170145
     atom   51 type  2   force =     0.02139899    0.02082579    0.22439286
     atom   52 type  2   force =     0.00036773    0.00045976    0.25170248
     atom   53 type  2   force =     0.02870940    0.00813470    0.22439495
     atom   54 type  2   force =    -0.00093767    0.00056853    0.25408085
     atom   55 type  2   force =     0.00529646   -0.00303023    0.23335126
     atom   56 type  2   force =    -0.00360991   -0.00208451    0.25814160
     atom   57 type  2   force =     0.00574527    0.00333434    0.23718770
     atom   58 type  2   force =    -0.00054056    0.00011308    0.25170477
     atom   59 type  2   force =    -0.02134507    0.02082025    0.22441333
     atom   60 type  2   force =     0.00000981    0.00002437    0.25027703
     atom   61 type  2   force =     0.00001046    0.00001364    0.23562764
     atom   62 type  2   force =    -0.00019726   -0.00050563    0.25170528
     atom   63 type  2   force =     0.00732962   -0.02889055    0.22440390
     atom   64 type  2   force =    -0.12252904   -0.07071270   -0.19126588
     atom   65 type  2   force =    -0.00165248   -0.00091711   -0.25402907
     atom   66 type  2   force =     0.00573622   -0.00334700   -0.23717932
     atom   67 type  2   force =    -0.00361716    0.00206524   -0.25813983
     atom   68 type  2   force =     0.00531099    0.00306886   -0.23334803
     atom   69 type  2   force =    -0.00093334   -0.00054090   -0.25407613
     atom   70 type  2   force =    -0.00003398    0.00666735   -0.23716895
     atom   71 type  2   force =    -0.00002253   -0.00414779   -0.25813816
     atom   72 type  2   force =     0.12248400   -0.07073547   -0.19121804
     atom   73 type  2   force =     0.00161248   -0.00092243   -0.25403653
     atom   74 type  2   force =    -0.00003708    0.14141536   -0.19122359
     atom   75 type  2   force =    -0.00001965    0.00187263   -0.25403443
     atom   76 type  2   force =     0.00734908    0.02892403   -0.22440436
     atom   77 type  2   force =    -0.00016951    0.00054538   -0.25170683
     atom   78 type  2   force =     0.02873391   -0.00809223   -0.22439428
     atom   79 type  2   force =     0.00039253   -0.00041044   -0.25170472
     atom   80 type  2   force =     0.02140369   -0.02081107   -0.22439415
     atom   81 type  2   force =     0.00057964   -0.00010057   -0.25171149
     atom   82 type  2   force =    -0.00573268   -0.00331322   -0.23714046
     atom   83 type  2   force =     0.00361622    0.00209094   -0.25816622
     atom   84 type  2   force =    -0.00735208    0.02895008   -0.22439765
     atom   85 type  2   force =     0.00017463    0.00056414   -0.25171319
     atom   86 type  2   force =     0.00001633    0.00002403   -0.23563757
     atom   87 type  2   force =     0.00001416    0.00002104   -0.25027831
     atom   88 type  2   force =    -0.02135462   -0.02080206   -0.22441754
     atom   89 type  2   force =    -0.00055189   -0.00009627   -0.25170775
     atom   90 type  2   force =     0.00002519   -0.00614269   -0.23334559
     atom   91 type  2   force =     0.00002228    0.00105930   -0.25407165
     atom   92 type  2   force =    -0.00531548    0.00309460   -0.23334405
     atom   93 type  2   force =     0.00092606   -0.00052024   -0.25408133
     atom   94 type  2   force =    -0.02873031   -0.00805428   -0.22442014
     atom   95 type  2   force =    -0.00038999   -0.00039490   -0.25170524
     The ionic contribution  to forces
     atom    1 type  1   force =    -0.00039767    0.00029407    0.00003315
     atom    2 type  1   force =     1.01425365   -1.75740438   -0.00028869
     atom    3 type  1   force =     0.49651283   -0.85979734   -0.00044465
     atom    4 type  1   force =     0.00033848    0.00013983   -0.00079769
     atom    5 type  1   force =     0.00008271    0.00053232   -0.00098595
     atom    6 type  1   force =    -1.01448468    1.75625808   -0.00112954
     atom    7 type  1   force =    -0.49665716    0.86066306   -0.00035824
     atom    8 type  1   force =    -2.02880585    0.00035785    0.00187508
     atom    9 type  1   force =    -0.99267893    0.00030449   -0.00038158
     atom   10 type  1   force =    -1.01594086   -1.75668307    0.00079289
     atom   11 type  1   force =    -0.49662012   -0.85922586   -0.00095541
     atom   12 type  1   force =    -0.00017953   -0.72599386   -0.38009524
     atom   13 type  1   force =     0.00010268   -0.39730512    0.08489239
     atom   14 type  1   force =    -0.62896919    0.36355196   -0.37998194
     atom   15 type  1   force =    -0.34441757    0.19964056    0.08520583
     atom   16 type  1   force =     0.00049271    0.00094850    0.00093256
     atom   17 type  1   force =     0.00007053    0.00039333    0.00093570
     atom   18 type  1   force =    -0.62874090   -0.36239265    0.38056001
     atom   19 type  1   force =    -0.34468543   -0.19867350   -0.08555191
     atom   20 type  1   force =    -0.00061639    0.00078369   -0.00033451
     atom   21 type  1   force =    -0.00013895    0.00069520   -0.00014568
     atom   22 type  1   force =     0.62913078    0.36388622   -0.37998677
     atom   23 type  1   force =     0.34466352    0.19962741    0.08608748
     atom   24 type  1   force =     2.02906138    0.00103885    0.00043395
     atom   25 type  1   force =     0.99272855    0.00046824    0.00133579
     atom   26 type  1   force =     0.62924739   -0.36319223    0.37983986
     atom   27 type  1   force =     0.34451295   -0.19884000   -0.08534951
     atom   28 type  1   force =    -0.00046758    0.72740599    0.37934144
     atom   29 type  1   force =    -0.00027257    0.39857497   -0.08579443
     atom   30 type  1   force =     1.01356819    1.75700745   -0.00148925
     atom   31 type  1   force =     0.49632055    0.86049709    0.00074347
     atom   32 type  2   force =     0.00003014    1.59624950  -16.24320755
     atom   33 type  2   force =    -0.00155305    9.91754428  -10.02011166
     atom   34 type  2   force =     1.38185169   -0.79820806  -16.24386622
     atom   35 type  2   force =     8.58780756   -4.95965169  -10.01913123
     atom   36 type  2   force =     0.49533960   -0.54593066  -14.91531923
     atom   37 type  2   force =     1.75861304   -1.03247582  -13.45936367
     atom   38 type  2   force =    -0.22441247    0.70117849  -14.91480328
     atom   39 type  2   force =    -0.01413227    2.03936026  -13.45941900
     atom   40 type  2   force =    -1.16118441    0.67103800  -15.16826632
     atom   41 type  2   force =    -1.92512435    1.11035156  -13.41890913
     atom   42 type  2   force =    -1.38190129   -0.79832343  -16.24484702
     atom   43 type  2   force =    -8.59048132   -4.95919358  -10.01946085
     atom   44 type  2   force =     0.00015057   -1.34169096  -15.16838315
     atom   45 type  2   force =    -0.00067976   -2.22322260  -13.41801842
     atom   46 type  2   force =    -0.17646283   -0.10233055  -14.62347850
     atom   47 type  2   force =    -0.02471121   -0.01474117  -13.96570494
     atom   48 type  2   force =     0.00023866    0.20458056  -14.62360676
     atom   49 type  2   force =     0.00135892    0.02919433  -13.96613808
     atom   50 type  2   force =    -0.71933227   -0.15706545  -14.91615846
     atom   51 type  2   force =    -1.77005892   -1.00828721  -13.45941629
     atom   52 type  2   force =    -0.49535120   -0.54542155  -14.91580000
     atom   53 type  2   force =    -1.75808635   -1.02964720  -13.45907486
     atom   54 type  2   force =     0.17697489   -0.10230583  -14.62342871
     atom   55 type  2   force =     0.02605945   -0.01395551  -13.96560593
     atom   56 type  2   force =     1.16090614    0.67076606  -15.16736362
     atom   57 type  2   force =     1.92549361    1.11154956  -13.41919519
     atom   58 type  2   force =     0.71963756   -0.15704018  -14.91574037
     atom   59 type  2   force =     1.77296749   -1.00847624  -13.45985186
     atom   60 type  2   force =     0.00009327   -0.00086353  -14.78929428
     atom   61 type  2   force =     0.00056517   -0.00084764  -13.84721427
     atom   62 type  2   force =     0.22409331    0.70109986  -14.91481319
     atom   63 type  2   force =     0.01321541    2.03993748  -13.45955756
     atom   64 type  2   force =     8.58815549    4.95979615   10.01835133
     atom   65 type  2   force =     1.38162025    0.79710704   16.24452066
     atom   66 type  2   force =     1.92562432   -1.11231821   13.41794308
     atom   67 type  2   force =     1.16174366   -0.67163896   15.16864900
     atom   68 type  2   force =     0.02569085    0.01382457   13.96621972
     atom   69 type  2   force =     0.17712115    0.10191659   14.62370622
     atom   70 type  2   force =    -0.00009275    2.22273290   13.41815992
     atom   71 type  2   force =    -0.00050066    1.34148566   15.16869802
     atom   72 type  2   force =    -8.58954501    4.95969890   10.02055800
     atom   73 type  2   force =    -1.38314429    0.79631459   16.24353597
     atom   74 type  2   force =    -0.00058428   -9.91759486   10.01958733
     atom   75 type  2   force =    -0.00148162   -1.59639614   16.24367456
     atom   76 type  2   force =     0.01404372   -2.03889242   13.45997412
     atom   77 type  2   force =     0.22428209   -0.70165017   14.91561853
     atom   78 type  2   force =    -1.75843685    1.03082436   13.46015529
     atom   79 type  2   force =    -0.49544402    0.54477743   14.91576825
     atom   80 type  2   force =    -1.77168133    1.00735110   13.46006986
     atom   81 type  2   force =    -0.71866337    0.15540134   14.91475011
     atom   82 type  2   force =    -1.92521259   -1.11179192   13.42002715
     atom   83 type  2   force =    -1.16102908   -0.67055749   15.16679120
     atom   84 type  2   force =    -0.01376383   -2.03823741   13.45984813
     atom   85 type  2   force =    -0.22444073   -0.70048509   14.91508736
     atom   86 type  2   force =     0.00044184   -0.00043029   13.84727665
     atom   87 type  2   force =     0.00054448    0.00011480   14.78940218
     atom   88 type  2   force =     1.77239237    1.00748220   13.45852305
     atom   89 type  2   force =     0.72036552    0.15580215   14.91565756
     atom   90 type  2   force =     0.00059326   -0.03003605   13.96570245
     atom   91 type  2   force =     0.00095764   -0.20494887   14.62347226
     atom   92 type  2   force =    -0.02554863    0.01446820   13.96583681
     atom   93 type  2   force =    -0.17686258    0.10290303   14.62342662
     atom   94 type  2   force =     1.75843015    1.03073266   13.45853420
     atom   95 type  2   force =     0.49548654    0.54551197   14.91608539
     The local contribution  to forces
     atom    1 type  1   force =     0.00046046   -0.00024942    0.00000868
     atom    2 type  1   force =    -1.05267508    1.82425064    0.00029600
     atom    3 type  1   force =    -0.49577449    0.85866828    0.00047120
     atom    4 type  1   force =    -0.00031825   -0.00009209    0.00076628
     atom    5 type  1   force =    -0.00007014   -0.00048488    0.00101842
     atom    6 type  1   force =     1.05308340   -1.82299985    0.00107235
     atom    7 type  1   force =     0.49599089   -0.85943412    0.00041529
     atom    8 type  1   force =     2.10581612   -0.00028562   -0.00192332
     atom    9 type  1   force =     0.99128286   -0.00026329    0.00040613
     atom   10 type  1   force =     1.05447361    1.82342140   -0.00082747
     atom   11 type  1   force =     0.49594556    0.85806371    0.00097159
     atom   12 type  1   force =     0.00018132    0.73565698    0.36378077
     atom   13 type  1   force =    -0.00009885    0.39781902   -0.08319167
     atom   14 type  1   force =     0.63730358   -0.36837824    0.36365793
     atom   15 type  1   force =     0.34483066   -0.19987434   -0.08348746
     atom   16 type  1   force =    -0.00061727   -0.00090369   -0.00096755
     atom   17 type  1   force =    -0.00013780   -0.00036417   -0.00090462
     atom   18 type  1   force =     0.63703011    0.36727585   -0.36430235
     atom   19 type  1   force =     0.34507294    0.19895692    0.08390457
     atom   20 type  1   force =     0.00055689   -0.00085390    0.00029398
     atom   21 type  1   force =     0.00012098   -0.00071464    0.00017488
     atom   22 type  1   force =    -0.63759721   -0.36879093    0.36365764
     atom   23 type  1   force =    -0.34513599   -0.19990040   -0.08435868
     atom   24 type  1   force =    -2.10614752   -0.00096976   -0.00048307
     atom   25 type  1   force =    -0.99134942   -0.00042864   -0.00129718
     atom   26 type  1   force =    -0.63768028    0.36815122   -0.36357648
     atom   27 type  1   force =    -0.34497750    0.19916182    0.08369263
     atom   28 type  1   force =     0.00045964   -0.73706944   -0.36309664
     atom   29 type  1   force =     0.00026661   -0.39905434    0.08414302
     atom   30 type  1   force =    -1.05206190   -1.82385187    0.00138966
     atom   31 type  1   force =    -0.49560098   -0.85931441   -0.00068270
     atom   32 type  2   force =     0.00004729   -1.59460653   15.99497275
     atom   33 type  2   force =     0.00167356   -9.77858650    9.83229152
     atom   34 type  2   force =    -1.38036206    0.79742933   15.99562334
     atom   35 type  2   force =    -8.46735559    4.89023793    9.83132578
     atom   36 type  2   force =    -0.49503731    0.54567329   14.66885315
     atom   37 type  2   force =    -1.73030486    1.02439512   13.23983067
     atom   38 type  2   force =     0.22432490   -0.70079697   14.66833577
     atom   39 type  2   force =     0.02124327   -2.01076769   13.23989844
     atom   40 type  2   force =     1.15790817   -0.66911827   14.91569229
     atom   41 type  2   force =     1.93040957   -1.11337370   13.18718061
     atom   42 type  2   force =     1.38052514    0.79752040   15.99656402
     atom   43 type  2   force =     8.47024238    4.88975855    9.83169599
     atom   44 type  2   force =    -0.00009597    1.33789072   14.91579657
     atom   45 type  2   force =     0.00076927    2.22931631   13.18631167
     atom   46 type  2   force =     0.17559668    0.10181578   14.37473404
     atom   47 type  2   force =     0.02991847    0.01773091   13.73782124
     atom   48 type  2   force =    -0.00029819   -0.20358907   14.37487208
     atom   49 type  2   force =    -0.00143288   -0.03523349   13.73822804
     atom   50 type  2   force =     0.71889230    0.15694515   14.66969255
     atom   51 type  2   force =     1.74875392    0.98785095   13.23990455
     atom   52 type  2   force =     0.49504042    0.54510233   14.66932496
     atom   53 type  2   force =     1.72974783    1.02144073   13.23957212
     atom   54 type  2   force =    -0.17611904    0.10172690   14.37467784
     atom   55 type  2   force =    -0.03127107    0.01686614   13.73772096
     atom   56 type  2   force =    -1.15764970   -0.66890990   14.91483820
     atom   57 type  2   force =    -1.93080456   -1.11468555   13.18739620
     atom   58 type  2   force =    -0.71929942    0.15694221   14.66928921
     atom   59 type  2   force =    -1.75184762    0.98806057   13.24029123
     atom   60 type  2   force =    -0.00012754    0.00084705   14.54409137
     atom   61 type  2   force =    -0.00061176    0.00085205   13.61605125
     atom   62 type  2   force =    -0.22399122   -0.70077856   14.66835664
     atom   63 type  2   force =    -0.02030662   -2.01143020   13.24001925
     atom   64 type  2   force =    -8.46772776   -4.89033041   -9.83055573
     atom   65 type  2   force =    -1.38012394   -0.79630829  -15.99622384
     atom   66 type  2   force =    -1.93090186    1.11548473  -13.18620635
     atom   67 type  2   force =    -1.15845581    0.66980683  -14.91607724
     atom   68 type  2   force =    -0.03090167   -0.01681237  -13.73836351
     atom   69 type  2   force =    -0.17625681   -0.10139368  -14.37493116
     atom   70 type  2   force =     0.00017023   -2.22892060  -13.18646247
     atom   71 type  2   force =     0.00054513   -1.33774065  -14.91610479
     atom   72 type  2   force =     8.46927899   -4.89017166   -9.83283274
     atom   73 type  2   force =     1.38175449   -0.79548325  -15.99520327
     atom   74 type  2   force =     0.00070954    9.77873106   -9.83185596
     atom   75 type  2   force =     0.00155933    1.59477313  -15.99535700
     atom   76 type  2   force =    -0.02111652    2.01031214  -13.24047675
     atom   77 type  2   force =    -0.22418890    0.70126552  -14.66911863
     atom   78 type  2   force =     1.73011882   -1.02268565  -13.24067355
     atom   79 type  2   force =     0.49513096   -0.54451704  -14.66926080
     atom   80 type  2   force =     1.75039322   -0.98690891  -13.24058809
     atom   81 type  2   force =     0.71821721   -0.15528557  -14.66824111
     atom   82 type  2   force =     1.93045689    1.11485787  -13.18838054
     atom   83 type  2   force =     1.15772839    0.66866761  -14.91414816
     atom   84 type  2   force =     0.02086967    2.00957395  -13.24037275
     atom   85 type  2   force =     0.22436527    0.70004277  -14.66857037
     atom   86 type  2   force =    -0.00048628    0.00036228  -13.61613751
     atom   87 type  2   force =    -0.00057401   -0.00016153  -14.54416168
     atom   88 type  2   force =    -1.75128118   -0.98707397  -13.23899957
     atom   89 type  2   force =    -0.72001647   -0.15570854  -14.66917031
     atom   90 type  2   force =    -0.00068042    0.03608866  -13.73785099
     atom   91 type  2   force =    -0.00102480    0.20398668  -14.37471073
     atom   92 type  2   force =     0.03072844   -0.01753188  -13.73799697
     atom   93 type  2   force =     0.17598298   -0.10243572  -14.37464151
     atom   94 type  2   force =    -1.73013459   -1.02273115  -13.23901901
     atom   95 type  2   force =    -0.49517874   -0.54531697  -14.66958867
     The core correction contribution to forces
     atom    1 type  1   force =     0.00000019    0.00000055    0.00000049
     atom    2 type  1   force =    -0.00066035    0.00114597   -0.00000056
     atom    3 type  1   force =    -0.00003911    0.00006884    0.00000037
     atom    4 type  1   force =     0.00000035    0.00000017   -0.00000043
     atom    5 type  1   force =     0.00000015    0.00000005    0.00000030
     atom    6 type  1   force =     0.00066120   -0.00114521   -0.00000089
     atom    7 type  1   force =     0.00003942   -0.00006805    0.00000051
     atom    8 type  1   force =     0.00132172    0.00000056   -0.00000002
     atom    9 type  1   force =     0.00007887    0.00000061    0.00000036
     atom   10 type  1   force =     0.00066105    0.00114565   -0.00000048
     atom   11 type  1   force =     0.00003958    0.00006876    0.00000022
     atom   12 type  1   force =     0.00000010    0.00021810   -0.00019569
     atom   13 type  1   force =     0.00000020    0.00004901    0.00003198
     atom   14 type  1   force =     0.00018890   -0.00010939   -0.00019573
     atom   15 type  1   force =     0.00004251   -0.00002438    0.00003198
     atom   16 type  1   force =    -0.00000068    0.00000051   -0.00000039
     atom   17 type  1   force =    -0.00000028    0.00000034    0.00000055
     atom   18 type  1   force =     0.00018863    0.00010988    0.00019524
     atom   19 type  1   force =     0.00004213    0.00002488   -0.00003118
     atom   20 type  1   force =    -0.00000064   -0.00000056   -0.00000046
     atom   21 type  1   force =    -0.00000019   -0.00000022    0.00000045
     atom   22 type  1   force =    -0.00018973   -0.00011006   -0.00019614
     atom   23 type  1   force =    -0.00004265   -0.00002474    0.00003219
     atom   24 type  1   force =    -0.00132181    0.00000066   -0.00000042
     atom   25 type  1   force =    -0.00007894    0.00000041    0.00000069
     atom   26 type  1   force =    -0.00018951    0.00011016    0.00019510
     atom   27 type  1   force =    -0.00004263    0.00002490   -0.00003120
     atom   28 type  1   force =    -0.00000018   -0.00021845    0.00019526
     atom   29 type  1   force =    -0.00000020   -0.00004915   -0.00003119
     atom   30 type  1   force =    -0.00066076   -0.00114569   -0.00000118
     atom   31 type  1   force =    -0.00003948   -0.00006845    0.00000068
     atom   32 type  2   force =    -0.00000020    0.00001860   -0.00550982
     atom   33 type  2   force =     0.00000012    0.00313858   -0.00411236
     atom   34 type  2   force =     0.00001385   -0.00000603   -0.00550887
     atom   35 type  2   force =     0.00272190   -0.00157130   -0.00411270
     atom   36 type  2   force =    -0.00000926   -0.00001038   -0.00536338
     atom   37 type  2   force =     0.00072851   -0.00021858   -0.00480459
[...]
              0.499577804207713E+03
              0.837212921182886E+02
             -0.770761256120475E+02
              0.913265410522854E+01
             -0.505578480446047E+02
              0.410196046293382E+03
             -0.234889298704412E+02
              0.882166174155516E+02
              0.295827772585259E+03
              0.649274154231257E+02
             -0.233489439048504E+03
             -0.340224890353340E+03
              0.359378779956432E+01
             -0.382687366259609E+03
              0.129814276180131E+03
             -0.774863417753295E+02
             -0.179657522404772E+03
              0.161602934129658E+03
              0.620175876895100E+02
              0.145793925744941E+03
              0.129069796571484E+02
              0.232157158538081E+03
             -0.379459046825385E+03
             -0.347554528183841E+02
             -0.330920127163755E+03
              0.596964801920212E+02
              0.179209691287038E+03
             -0.330345533742118E+02
             -0.124620720266976E+03
              0.266619230142953E+03
             -0.123648567767787E+03
              0.868467366061595E+02
             -0.775722958761403E+02
              0.190354079138043E+03
              0.229857693324662E+03
             -0.991331972068110E+02
              0.197843829560643E+03
              0.759058430960513E+02
             -0.203972259568605E+03
             -0.121988305491195E+03
              0.328882802137905E+03
              0.155861463276545E+03
             -0.150247156597193E+02
             -0.441999854715727E+02
              0.483440055764567E+03
              0.289883145826638E+03
              0.106262088121284E+03
             -0.309715376122184E+03
              0.485181157455064E+03
             -0.219409709349869E+03
             -0.272059388203215E+03
             -0.421351214065891E+03
              0.203094680990412E+03
             -0.385530597089612E+03
              0.167223847046202E+03
              0.274508301181143E+03
              0.203447434178655E+03
              0.431595012625820E+02
              0.121260223464248E+03
             -0.303887164665445E+03
             -0.108068721167496E+03
             -0.979440201353343E+02
              0.146819960420917E+03
              0.327641647192767E+03
              0.323055410238593E+03
              0.247251317493356E+03
             -0.610399329722809E+02
              0.878023529556199E+02
              0.123090590602219E+02
             -0.970855650598266E+02
              0.144852001679395E+03
              0.138675695917966E+03
             -0.197891465912018E+03
             -0.200408760968518E+03
             -0.918491044576581E+02
              0.212860185442976E+03
              0.108350625212608E+03
             -0.145004913083600E+03
             -0.252484584444142E+03
             -0.346871168319357E+03
              0.723864400457404E+01
              0.987406729340469E+02
             -0.134201274819255E+03
              0.492753263091444E+03
              0.462186612881715E+01
             -0.572378318399642E+03
              0.143549518110317E+03
              0.236244289963279E+03
             -0.858399399980231E+02
              0.908868406461966E+01
             -0.129443331607648E+03
              0.219776904378796E+03
              0.108516667956622E+03
             -0.289251299353817E+03
              0.343466981066981E+03
              0.233296527409670E+02
             -0.137176450271793E+03
             -0.169115590599342E+03
              0.688603436555885E+03
              0.307772644991626E+03
             -0.772268803793904E+02
              0.169847260538629E+03
             -0.335613300638136E+03
             -0.727805400393549E+02
             -0.298277697042146E+03
              0.115248354314912E+03
              0.214068754531726E+03
              0.235443529828380E+03
             -0.103192241195507E+03
              0.178574359371923E+02
              0.293376202481127E+03
              0.938518019226162E+02
              0.174854726988903E+03
              0.711241906894115E+02
             -0.393881094289454E+02
              0.744450083091579E+00
             -0.545609411644924E+02
              0.607948595310713E+02
              0.203931465202293E+02
             -0.266507639338061E+03
              0.408279444750831E+03
              0.157086900032817E+03
             -0.289330908785713E+03
             -0.212563869065477E+03
             -0.300116307372186E+03
             -0.130144102347182E+03
             -0.943493942585801E+02
             -0.237450117014626E+03
             -0.234369384973525E+03
              0.282159128373459E+03
              0.224596205372774E+03
             -0.310066436359389E+02
              0.337197028441669E+03
              0.486609825272299E+02
             -0.541829576627352E+03
              0.290911112278191E+03
              0.496486664547649E+02
              0.228477166072192E+03
              0.308818640893659E+02
              0.256946334775300E+02
              0.465120588581599E+02
              0.123429509999020E+03
             -0.226104688774145E+03
             -0.106674048896714E+03
             -0.213730290213398E+03
             -0.176953912271219E+03
              0.737049667673837E+02
             -0.196283364470491E+03
              0.945933192346774E+02
              0.129914245750677E+03
             -0.120289028455959E+03
             -0.768098937785520E+02
              0.503242295167456E+01
              0.336827725377190E+03
              0.509704450331051E+02
              0.323333711918824E+03
              0.115856113824839E+03
             -0.427492453305869E+03
             -0.141770173662277E+03
              0.145759465980338E+03
              0.336330019734725E+03
              0.555405793814590E+02
              0.138235268260968E+03
              0.309529385607624E+03
             -0.179248919381561E+03
             -0.275090471416943E+03
              0.381485224442949E+03
              0.221669253540881E+02
             -0.403229079465882E+03
              0.147303155153715E+03
              0.255248566796820E+03
             -0.652832362914569E+02
             -0.265797634073495E+03
              0.553942860287837E+02
              0.114475549338013E+02
             -0.129169947344215E+03
              0.494370764338528E+02
             -0.430779074873724E+02
              0.599923452044151E+03
              0.174644618117563E+03
             -0.254089247094274E+03
              0.750792612738983E+02
              0.365267005586187E+03
             -0.246887286307354E+03
             -0.642591496974803E+02
             -0.233511840803457E+03
              0.187074648316197E+03
              0.592093038067809E+02
              0.123689331854799E+03
              0.224129040501234E+02
              0.424323595680332E+03
             -0.241289437542154E+03
             -0.190586889456203E+03
             -0.183985559750293E+03
              0.161625559090816E+03
              0.421659736916471E+03
             -0.704978829458387E+02
              0.172563116361351E+03
             -0.245037930508719E+03
              0.470063853222014E+02
             -0.784610899858692E+02
              0.171337395482847E+02
             -0.949891244099123E+02
             -0.774737349750358E+02
             -0.760827396580639E+02
              0.627256843803330E+02
              0.122548958846134E+03
             -0.267176707144624E+03
              0.197846207955183E+03
             -0.318483240427311E+03
              0.240357012471412E+03
             -0.254004315809516E+03
              0.411685226796945E+03
              0.226175458807450E+03
              0.260308563675815E+03
              0.646224603404753E+02
              0.759968446357552E+02
             -0.568691050816425E+03
              0.923585113114627E+02
              0.208951195579502E+02
              0.542698632543643E+02
             -0.928448076892125E+02
              0.439654073233978E+03
             -0.102129886997236E+03
             -0.181757670556969E+03
             -0.425539305916752E+03
             -0.147671186640855E+03
             -0.204154112538320E+03
             -0.177464297004203E+03
             -0.400679736622924E+02
             -0.972023010243706E+02
             -0.123499081094402E+03
             -0.189343494064432E+03
              0.144934171652194E+03
              0.456808236382612E+03
              0.385949028493486E+03
             -0.685106908654170E+02
             -0.464022567298714E+03
             -0.197798349181867E+03
              0.948730267472317E+02
              0.949182946016754E+02
              0.151674124682823E+03
              0.106603800982547E+03
              0.188678410386278E+02
              0.453346862594713E+03
             -0.110221192006842E+03
              0.222734200211038E+03
              0.114509225812484E+03
             -0.154373037535311E+03
             -0.739769434826894E+02
              0.205395127108646E+03
             -0.109690913611591E+03
             -0.673886924232407E+02
             -0.499600741523545E+02
              0.264502975705796E+03
             -0.347853845902949E+03
             -0.279039239353365E+02
             -0.268457006469915E+03
             -0.570438722758296E+03
             -0.147070879373746E+01
             -0.841342282899228E+02
              0.221690224732145E+03
              0.246531243467657E+03
              0.337140119397999E+03
             -0.219270639821031E+03
              0.340829726669098E+03
              0.851865677227504E+02
             -0.126499568118923E+03
              0.455122482310621E+02
             -0.107692722826930E+03
             -0.636879457214654E+02
              0.196835266712935E+03
             -0.163025310114933E+03
              0.437304931681929E+03
             -0.116630379040364E+03
             -0.241660228491319E+03
              0.457317734628725E+03
             -0.247528646677798E+03
             -0.199488648025899E+02
              0.240954137728991E+02
              0.132030197674439E+03
             -0.193243256171485E+03
             -0.147238619575997E+03
              0.234892280499188E+03
             -0.353324616912463E+03
              0.291433673153425E+03
              0.430803162017855E+02
              0.208807571080489E+03
              0.302604429242759E+03
              0.774735341761771E+02
             -0.420448186215121E+03
             -0.181956590957157E+03
             -0.303485188224895E+03
             -0.180594323564133E+03
             -0.481144745504680E+02
              0.651090649731468E+02
             -0.141621552101019E+03
             -0.245344332123977E+01
             -0.422282699828823E+03
              0.236323242548031E+02
             -0.272294780974047E+03
              0.263948713579699E+03
             -0.154774356680499E+03
             -0.372582027931292E+02
              0.199223557805028E+03
              0.393754943172450E+02
              0.185176773192465E+03
             -0.352942700672835E+03
              0.586805547951635E+02
              0.241486605480571E+02
              0.151915633672299E+03
              0.243555290675945E+03
             -0.449984190217942E+02
             -0.277315319919499E+03
             -0.160247715645655E+03
             -0.113177450858213E+03
             -0.333884618155862E+02
              0.258596584480064E+03
              0.167854959742242E+03
             -0.170080775535374E+03
             -0.159545488021705E+03
              0.117148278918331E+03
              0.127583522180547E+03
             -0.344648973263292E+03
              0.803937506167713E+02
              0.247253829422583E+03
             -0.109797674974656E+02
              0.311324335729920E+03
              0.143838399209615E+03
              0.245058852753354E+03
              0.372455066061839E+03
              0.561817450538038E+02
             -0.507639831775012E+03
              0.700415331094595E+02
              0.548779551024953E+03
              0.398906279606472E+03
             -0.275054525701158E+03
              0.248049076262351E+02
              0.356996982817571E+03
              0.309447430556529E+03
              0.136021625787127E+03
             -0.822887629280182E+02
              0.136587257325670E+03
              0.282835938212866E+03
             -0.130716445213295E+03
             -0.841350280986983E+02
              0.191548750254122E+03
             -0.115613902179878E+02
              0.171886892848106E+03
             -0.532555701147013E+02
              0.358596601420144E+03
             -0.136856655487672E+03
              0.822870278856212E+02
             -0.152024693116713E+03
              0.177513220205011E+03
             -0.240892339311174E+02
              0.264465414331430E+03
              0.189014512096646E+02
              0.118342019655920E+03
             -0.168127127130161E+03
             -0.117641273437492E+03
             -0.599771695159841E+02
             -0.546210947781576E+02
              0.287885401500774E+03
              0.141661758707219E+03
              0.349438021407663E+03
              0.322462480976402E+03
              0.904439335774646E+02
              0.162910936526445E+02
              0.343695841305904E+03
              0.193173175718516E+03
              0.234996417161028E+00
              0.334718212558070E+03
             -0.274734258456672E+03
              0.963158534542390E+02
             -0.178966896268391E+03
             -0.485977759563129E+02
              0.462855136202726E+03
             -0.648332931763512E+02
             -0.192666568460927E+02
             -0.503964066997798E+02
              0.380214743069196E+03
             -0.816543992619145E+02
             -0.699245992557303E+01
              0.767172355607072E+03
             -0.227092072659269E+03
             -0.283384360122049E+03
             -0.283663518145981E+03
             -0.181207450944935E+03
              0.165167614945469E+03
             -0.741844645341844E+02
              0.420467678269688E+02
             -0.192448138108057E+02
              0.971783257843440E+02
              0.156159910699107E+03
              0.181963041065436E+03
              0.261874245049531E+03
              0.167777750708407E+03
              0.171037418149535E+03
             -0.316504644834224E+03
             -0.326860808344878E+03
             -0.736993576923765E+02
             -0.292195057249250E+03
              0.463893301104018E+03
              0.390794233492853E+03
              0.184298031060090E+03
              0.508077534027156E+03
             -0.253934266947629E+03
             -0.109336464266022E+03
             -0.157592559757705E+03
              0.439504002415178E+03
 
 BEEF-vdW xc energy contributions
            1 :    -3973.081055332503     
            2 :     3640.632967580862     
            3 :    -3073.829516323156     
            4 :     2423.723547485306     
            5 :    -1832.420116774740     
            6 :     1387.400995285012     
            7 :    -1107.412866015502     
            8 :     955.5560167883109     
            9 :    -867.2253628962808     
           10 :     781.0550030207837     
           11 :    -662.3779241912735     
           12 :     510.9855882852698     
           13 :    -351.7061067008353     
           14 :     215.2536690404386     
           15 :    -120.9760875882675     
           16 :     69.52675678556625     
           17 :    -46.22064910360768     
           18 :     30.68617555268975     
           19 :    -7.217705895470317     
           20 :    -28.66935163962444     
           21 :     69.98709799627795     
           22 :    -104.0138871471172     
           23 :     120.6311241553349     
           24 :    -118.4277478250706     
           25 :     105.2918494557252     
           26 :    -93.70418610828710     
           27 :     93.85412471158998     
           28 :    -108.3902885468569     
           29 :     131.3263798079770     
           30 :    -151.4316151084486     
           31 :    -341.6663241431652     
           32 :    -245.7553860265571     

     Writing all to output data dir ./PbI2.save/
 
     init_run     :     13.90s CPU     14.63s WALL (       1 calls)
     electrons    :   1651.63s CPU   1713.68s WALL (       1 calls)
     forces       :      7.15s CPU      7.51s WALL (       1 calls)
     stress       :    113.80s CPU    114.90s WALL (       1 calls)

     Called by init_run:
     wfcinit      :      9.49s CPU      9.79s WALL (       1 calls)
     wfcinit:atom :      0.03s CPU      0.06s WALL (       1 calls)
     wfcinit:wfcr :      9.23s CPU      9.39s WALL (       1 calls)
     potinit      :      1.32s CPU      1.54s WALL (       1 calls)
     hinit0       :      0.59s CPU      0.62s WALL (       1 calls)

     Called by electrons:
     c_bands      :   1621.81s CPU   1681.91s WALL (       5 calls)
     sum_band     :     16.27s CPU     17.27s WALL (       5 calls)
     v_of_rho     :      4.06s CPU      4.23s WALL (       5 calls)
     v_h          :      0.05s CPU      0.05s WALL (       5 calls)
     v_xc         :     27.83s CPU     29.73s WALL (      41 calls)
     newd         :      2.10s CPU      2.64s WALL (       5 calls)
     PAW_pot      :      1.42s CPU      1.44s WALL (       5 calls)
     mix_rho      :      0.08s CPU      0.08s WALL (       5 calls)
     vdW_kernel   :      0.24s CPU      0.25s WALL (       1 calls)

     Called by c_bands:
     init_us_2    :      0.46s CPU      0.53s WALL (      11 calls)
     init_us_2:cp :      0.46s CPU      0.53s WALL (      11 calls)
     cegterg      :   1619.94s CPU   1677.40s WALL (       8 calls)

     Called by sum_band:
     sum_band:wei :      0.00s CPU      0.00s WALL (       5 calls)
     sum_band:loo :     14.00s CPU     14.32s WALL (       5 calls)
     sum_band:buf :      0.00s CPU      0.00s WALL (       5 calls)
     sum_band:ini :      0.36s CPU      0.36s WALL (       5 calls)
     sum_band:cal :      6.29s CPU      6.55s WALL (       5 calls)
     sum_band:bec :      0.08s CPU      0.08s WALL (       5 calls)
     addusdens    :      1.61s CPU      2.25s WALL (       5 calls)
     addusd:skk   :      0.14s CPU      0.15s WALL (      10 calls)
     addusd:dgemm :      0.85s CPU      1.47s WALL (      10 calls)
     addusd:qvan2 :      0.58s CPU      0.59s WALL (      10 calls)

     Called by *egterg:
     cdiaghg      :   1261.50s CPU   1304.90s WALL (     163 calls)
     cegterg:over :     71.66s CPU     73.59s WALL (     159 calls)
     cegterg:upda :     44.52s CPU     45.30s WALL (     159 calls)
     cegterg:last :     30.41s CPU     30.64s WALL (      11 calls)
     h_psi        :    167.72s CPU    169.79s WALL (     168 calls)
     s_psi        :     33.36s CPU     33.63s WALL (     168 calls)
     g_psi        :      0.24s CPU      0.24s WALL (     159 calls)

     Called by h_psi:
     h_psi:calbec :     38.48s CPU     38.82s WALL (     168 calls)
     vloc_psi     :     95.17s CPU     96.07s WALL (     168 calls)
     add_vuspsi   :     33.28s CPU     33.58s WALL (     168 calls)

     General routines
     calbec       :     50.62s CPU     51.26s WALL (     178 calls)
     fft          :     17.45s CPU     17.72s WALL (    2421 calls)
     ffts         :      0.10s CPU      0.11s WALL (      10 calls)
     fftw         :     97.62s CPU     98.50s WALL (   55226 calls)
     interpolate  :      0.12s CPU      0.12s WALL (       5 calls)
 
     Parallel routines

     PAW routines
     PAW_pot      :      1.42s CPU      1.44s WALL (       5 calls)
 
     PWSCF        :  30m15.19s CPU  31m26.87s WALL

 
   This run was terminated on:  10:42:33  18Feb2024            

=------------------------------------------------------------------------------=
   JOB DONE.
=------------------------------------------------------------------------------=
