
     Program PWSCF v.7.1 starts on 19Feb2024 at 11:31:27 

     This program is part of the open-source Quantum ESPRESSO suite
     for quantum simulation of materials; please cite
         "P. Giannozzi et al., J. Phys.:Condens. Matter 21 395502 (2009);
         "P. Giannozzi et al., J. Phys.:Condens. Matter 29 465901 (2017);
         "P. Giannozzi et al., J. Chem. Phys. 152 154105 (2020);
          URL http://www.quantum-espresso.org", 
     in publications or presentations arising from this work. More details at
     http://www.quantum-espresso.org/quote

     Parallel version (MPI & OpenMP), running on     256 processor cores
     Number of MPI processes:               256
     Threads/MPI process:                     1

     MPI processes distributed on     2 nodes
     1972334 MiB available memory on the printing compute node when the environment starts
 
     Reading input from espresso.pwi
Warning: card &CELL ignored
Warning: card    CELL_DYNAMICS    = 'BFGS' ignored
Warning: card / ignored

     Current dimensions of program PWSCF are:
     Max number of different atomic species (ntypx) = 10
     Max number of k-points (npk) =  40000
     Max angular momentum in pseudopotentials (lmaxx) =  4
     file C.pbe-n-kjpaw_psl.1.0.0.UPF: wavefunction(s)  2S 2P renormalized

     **************************************************************************
     Initializing libbeef V0.1.2 with the BEEF-vdW functional.
     Citation: Wellendorff et al., PRB 85, 235149 (2012).
     **************************************************************************


     IMPORTANT: XC functional enforced from input :
     Exchange-correlation= BEEF-VDW
                           (   1   4  43  14   2   0   0)
     Any further DFT definition will be discarded
     Please, verify this is what you really want

 
     K-points division:     npool     =       4
     R & G space division:  proc/nbgrp/npool/nimage =      64
     Subspace diagonalization in iterative solution of the eigenvalue problem:
     a serial algorithm will be used

 
     Parallelization info
     --------------------
     sticks:   dense  smooth     PW     G-vecs:    dense   smooth      PW
     Min         178     142     38                14350    10258    1410
     Max         179     143     39                14357    10265    1416
     Sum       11433    9133   2433               918657   656775   90447
 
     Using Slab Decomposition
 


     bravais-lattice index     =            1
     lattice parameter (alat)  =      20.2520  a.u.
     unit-cell volume          =    8306.2556 (a.u.)^3
     number of atoms/cell      =          215
     number of atomic types    =            1
     number of electrons       =       862.00
     number of Kohn-Sham states=          517
     kinetic-energy cutoff     =      70.0000  Ry
     charge density cutoff     =     350.0000  Ry
     scf convergence threshold =      1.0E-07
     mixing beta               =       0.7000
     number of iterations used =            8  plain     mixing
     energy convergence thresh.=      1.0E-04
     force convergence thresh. =      1.0E-03
     Exchange-correlation= BEEF-VDW
                           (   1   4  43  14   2   0   0)
     nstep                     =           50


     celldm(1)=  20.252024  celldm(2)=   0.000000  celldm(3)=   0.000000
     celldm(4)=   0.000000  celldm(5)=   0.000000  celldm(6)=   0.000000

     crystal axes: (cart. coord. in units of alat)
               a(1) = (   1.000000   0.000000   0.000000 )  
               a(2) = (   0.000000   1.000000   0.000000 )  
               a(3) = (   0.000000   0.000000   1.000000 )  

     reciprocal axes: (cart. coord. in units 2 pi/alat)
               b(1) = (  1.000000  0.000000  0.000000 )  
               b(2) = (  0.000000  1.000000  0.000000 )  
               b(3) = (  0.000000  0.000000  1.000000 )  


     PseudoPot. # 1 for C  read from file:
     //group///packages/espresso/pseudo/psl_1.0.0/pslibrary.1.0.0/pbe/PSEUDOPOTENTIALS/C.pbe-n-kjpaw_psl.1.0.0.UPF
     MD5 check sum: 5459cf7f2c8c37df2f7cde8914797f4d
     Pseudo is Projector augmented-wave + core cor, Zval =  4.0
     Generated using 'atomic' code by A. Dal Corso  v.7.1
     Shape of augmentation charge: PSQ
     Using radial grid of 1073 points,  4 beta functions with: 
                l(1) =   0
                l(2) =   0
                l(3) =   1
                l(4) =   1
     Q(r) pseudized with 0 coefficients 


     atomic species   valence    mass     pseudopotential
        C              4.00    12.01100     C ( 1.00)

      6 Sym. Ops. (no inversion) found ( 4 have fractional translation)


                                    s                        frac. trans.

      isym =  1     identity                                     

 cryst.   s( 1) = (     1          0          0      )
                  (     0          1          0      )
                  (     0          0          1      )

 cart.    s( 1) = (  1.0000000  0.0000000  0.0000000 )
                  (  0.0000000  1.0000000  0.0000000 )
                  (  0.0000000  0.0000000  1.0000000 )


      isym =  2     120 deg rotation - cart. axis [1,-1,1]       

 cryst.   s( 2) = (     0          0          1      )    f =( -0.3333333 )
                  (    -1          0          0      )       ( -0.3333333 )
                  (     0         -1          0      )       (  0.0000000 )

 cart.    s( 2) = (  0.0000000 -1.0000000  0.0000000 )    f =( -0.3333333 )
                  (  0.0000000  0.0000000 -1.0000000 )       ( -0.3333333 )
                  (  1.0000000  0.0000000  0.0000000 )       (  0.0000000 )


      isym =  3     120 deg rotation - cart. axis [-1,1,-1]      

 cryst.   s( 3) = (     0         -1          0      )    f =(  0.0000000 )
                  (     0          0         -1      )       ( -0.3333333 )
                  (     1          0          0      )       ( -0.3333333 )

 cart.    s( 3) = (  0.0000000  0.0000000  1.0000000 )    f =(  0.0000000 )
                  ( -1.0000000  0.0000000  0.0000000 )       ( -0.3333333 )
                  (  0.0000000 -1.0000000  0.0000000 )       ( -0.3333333 )


      isym =  4     inv. 180 deg rotation - cart. axis [1,1,0]   

 cryst.   s( 4) = (     0         -1          0      )    f =( -0.3333333 )
                  (    -1          0          0      )       ( -0.3333333 )
                  (     0          0          1      )       (  0.0000000 )

 cart.    s( 4) = (  0.0000000 -1.0000000  0.0000000 )    f =( -0.3333333 )
                  ( -1.0000000  0.0000000  0.0000000 )       ( -0.3333333 )
                  (  0.0000000  0.0000000  1.0000000 )       (  0.0000000 )


      isym =  5     inv. 180 deg rotation - cart. axis [-1,0,1]  

 cryst.   s( 5) = (     0          0          1      )
                  (     0          1          0      )
                  (     1          0          0      )

 cart.    s( 5) = (  0.0000000  0.0000000  1.0000000 )
                  (  0.0000000  1.0000000  0.0000000 )
                  (  1.0000000  0.0000000  0.0000000 )


      isym =  6     inv. 180 deg rotation - cart. axis [0,1,1]   

 cryst.   s( 6) = (     1          0          0      )    f =(  0.0000000 )
                  (     0          0         -1      )       ( -0.3333333 )
                  (     0         -1          0      )       ( -0.3333333 )

 cart.    s( 6) = (  1.0000000  0.0000000  0.0000000 )    f =(  0.0000000 )
                  (  0.0000000  0.0000000 -1.0000000 )       ( -0.3333333 )
                  (  0.0000000 -1.0000000  0.0000000 )       ( -0.3333333 )


     point group C_3v (3m)  
     there are  3 classes
     the character table:

       E     2C3   3s_v 
A_1    1.00  1.00  1.00
A_2    1.00  1.00 -1.00
E      2.00 -1.00  0.00

     the symmetry operations in each class and the name of the first element:

     E        1
          identity                                               
     2C3      2    3
          120 deg rotation - cart. axis [1,-1,1]                 
     3s_v     4    5    6
          inv. 180 deg rotation - cart. axis [1,1,0]             

   Cartesian axes

     site n.     atom                  positions (alat units)
         1           C   tau(   1) = (   0.0833353   0.2499980   0.4166687  )
         2           C   tau(   2) = (   0.0833353   0.2499980   0.7500020  )
         3           C   tau(   3) = (   0.0833353   0.5833313   0.0833353  )
         4           C   tau(   4) = (   0.0833353   0.5833313   0.4166687  )
         5           C   tau(   5) = (   0.0833353   0.5833313   0.7500020  )
         6           C   tau(   6) = (   0.0833353   0.9166647   0.0833353  )
         7           C   tau(   7) = (   0.0833353   0.9166647   0.4166687  )
         8           C   tau(   8) = (   0.0833353   0.9166647   0.7500020  )
         9           C   tau(   9) = (   0.4166687   0.2499980   0.0833353  )
        10           C   tau(  10) = (   0.4166687   0.2499980   0.4166687  )
        11           C   tau(  11) = (   0.4166687   0.2499980   0.7500020  )
        12           C   tau(  12) = (   0.4166687   0.5833313   0.0833353  )
        13           C   tau(  13) = (   0.4166687   0.5833313   0.4166687  )
        14           C   tau(  14) = (   0.4166687   0.5833313   0.7500020  )
        15           C   tau(  15) = (   0.4166687   0.9166647   0.0833353  )
        16           C   tau(  16) = (   0.4166687   0.9166647   0.4166687  )
        17           C   tau(  17) = (   0.4166687   0.9166647   0.7500020  )
        18           C   tau(  18) = (   0.7500020   0.2499980   0.0833353  )
        19           C   tau(  19) = (   0.7500020   0.2499980   0.4166687  )
        20           C   tau(  20) = (   0.7500020   0.2499980   0.7500020  )
        21           C   tau(  21) = (   0.7500020   0.5833313   0.0833353  )
        22           C   tau(  22) = (   0.7500020   0.5833313   0.4166687  )
        23           C   tau(  23) = (   0.7500020   0.5833313   0.7500020  )
        24           C   tau(  24) = (   0.7500020   0.9166647   0.0833353  )
        25           C   tau(  25) = (   0.7500020   0.9166647   0.4166687  )
        26           C   tau(  26) = (   0.7500020   0.9166647   0.7500020  )
        27           C   tau(  27) = (   0.0000000   0.0000000   0.1666667  )
        28           C   tau(  28) = (   0.0000000   0.0000000   0.5000000  )
        29           C   tau(  29) = (   0.0000000   0.0000000   0.8333333  )
        30           C   tau(  30) = (   0.0000000   0.3333333   0.1666667  )
        31           C   tau(  31) = (   0.0000000   0.3333333   0.5000000  )
        32           C   tau(  32) = (   0.0000000   0.3333333   0.8333333  )
        33           C   tau(  33) = (   0.0000000   0.6666667   0.1666667  )
        34           C   tau(  34) = (   0.0000000   0.6666667   0.5000000  )
        35           C   tau(  35) = (   0.0000000   0.6666667   0.8333333  )
        36           C   tau(  36) = (   0.3333333   0.0000000   0.1666667  )
        37           C   tau(  37) = (   0.3333333   0.0000000   0.5000000  )
        38           C   tau(  38) = (   0.3333333   0.0000000   0.8333333  )
        39           C   tau(  39) = (   0.3333333   0.3333333   0.1666667  )
        40           C   tau(  40) = (   0.3333333   0.3333333   0.5000000  )
        41           C   tau(  41) = (   0.3333333   0.3333333   0.8333333  )
        42           C   tau(  42) = (   0.3333333   0.6666667   0.1666667  )
        43           C   tau(  43) = (   0.3333333   0.6666667   0.5000000  )
        44           C   tau(  44) = (   0.3333333   0.6666667   0.8333333  )
        45           C   tau(  45) = (   0.6666667   0.0000000   0.1666667  )
        46           C   tau(  46) = (   0.6666667   0.0000000   0.5000000  )
        47           C   tau(  47) = (   0.6666667   0.0000000   0.8333333  )
        48           C   tau(  48) = (   0.6666667   0.3333333   0.1666667  )
        49           C   tau(  49) = (   0.6666667   0.3333333   0.5000000  )
        50           C   tau(  50) = (   0.6666667   0.3333333   0.8333333  )
        51           C   tau(  51) = (   0.6666667   0.6666667   0.1666667  )
        52           C   tau(  52) = (   0.6666667   0.6666667   0.5000000  )
        53           C   tau(  53) = (   0.6666667   0.6666667   0.8333333  )
        54           C   tau(  54) = (   0.0833353   0.0833353   0.2499980  )
        55           C   tau(  55) = (   0.0833353   0.0833353   0.5833313  )
        56           C   tau(  56) = (   0.0833353   0.0833353   0.9166647  )
        57           C   tau(  57) = (   0.0833353   0.4166687   0.2499980  )
        58           C   tau(  58) = (   0.0833353   0.4166687   0.5833313  )
        59           C   tau(  59) = (   0.0833353   0.4166687   0.9166647  )
        60           C   tau(  60) = (   0.0833353   0.7500020   0.2499980  )
        61           C   tau(  61) = (   0.0833353   0.7500020   0.5833313  )
        62           C   tau(  62) = (   0.0833353   0.7500020   0.9166647  )
        63           C   tau(  63) = (   0.4166687   0.0833353   0.2499980  )
        64           C   tau(  64) = (   0.4166687   0.0833353   0.5833313  )
        65           C   tau(  65) = (   0.4166687   0.0833353   0.9166647  )
        66           C   tau(  66) = (   0.4166687   0.4166687   0.2499980  )
        67           C   tau(  67) = (   0.4166687   0.4166687   0.5833313  )
        68           C   tau(  68) = (   0.4166687   0.4166687   0.9166647  )
        69           C   tau(  69) = (   0.4166687   0.7500020   0.2499980  )
        70           C   tau(  70) = (   0.4166687   0.7500020   0.5833313  )
        71           C   tau(  71) = (   0.4166687   0.7500020   0.9166647  )
        72           C   tau(  72) = (   0.7500020   0.0833353   0.2499980  )
        73           C   tau(  73) = (   0.7500020   0.0833353   0.5833313  )
        74           C   tau(  74) = (   0.7500020   0.0833353   0.9166647  )
        75           C   tau(  75) = (   0.7500020   0.4166687   0.2499980  )
        76           C   tau(  76) = (   0.7500020   0.4166687   0.5833313  )
        77           C   tau(  77) = (   0.7500020   0.4166687   0.9166647  )
        78           C   tau(  78) = (   0.7500020   0.7500020   0.2499980  )
        79           C   tau(  79) = (   0.7500020   0.7500020   0.5833313  )
        80           C   tau(  80) = (   0.7500020   0.7500020   0.9166647  )
        81           C   tau(  81) = (   0.0000000   0.1666667   0.0000000  )
        82           C   tau(  82) = (   0.0000000   0.1666667   0.3333333  )
        83           C   tau(  83) = (   0.0000000   0.1666667   0.6666667  )
        84           C   tau(  84) = (   0.0000000   0.5000000   0.0000000  )
        85           C   tau(  85) = (   0.0000000   0.5000000   0.3333333  )
        86           C   tau(  86) = (   0.0000000   0.5000000   0.6666667  )
        87           C   tau(  87) = (   0.0000000   0.8333333   0.0000000  )
        88           C   tau(  88) = (   0.0000000   0.8333333   0.3333333  )
        89           C   tau(  89) = (   0.0000000   0.8333333   0.6666667  )
        90           C   tau(  90) = (   0.3333333   0.1666667   0.0000000  )
        91           C   tau(  91) = (   0.3333333   0.1666667   0.3333333  )
        92           C   tau(  92) = (   0.3333333   0.1666667   0.6666667  )
        93           C   tau(  93) = (   0.3333333   0.5000000   0.0000000  )
        94           C   tau(  94) = (   0.3333333   0.5000000   0.3333333  )
        95           C   tau(  95) = (   0.3333333   0.5000000   0.6666667  )
        96           C   tau(  96) = (   0.3333333   0.8333333   0.0000000  )
        97           C   tau(  97) = (   0.3333333   0.8333333   0.3333333  )
        98           C   tau(  98) = (   0.3333333   0.8333333   0.6666667  )
        99           C   tau(  99) = (   0.6666667   0.1666667   0.0000000  )
       100           C   tau( 100) = (   0.6666667   0.1666667   0.3333333  )
       101           C   tau( 101) = (   0.6666667   0.1666667   0.6666667  )
       102           C   tau( 102) = (   0.6666667   0.5000000   0.0000000  )
       103           C   tau( 103) = (   0.6666667   0.5000000   0.3333333  )
       104           C   tau( 104) = (   0.6666667   0.5000000   0.6666667  )
       105           C   tau( 105) = (   0.6666667   0.8333333   0.0000000  )
       106           C   tau( 106) = (   0.6666667   0.8333333   0.3333333  )
       107           C   tau( 107) = (   0.6666667   0.8333333   0.6666667  )
       108           C   tau( 108) = (   0.2499980   0.2499980   0.2499980  )
       109           C   tau( 109) = (   0.2499980   0.2499980   0.5833313  )
       110           C   tau( 110) = (   0.2499980   0.2499980   0.9166647  )
       111           C   tau( 111) = (   0.2499980   0.5833313   0.2499980  )
       112           C   tau( 112) = (   0.2499980   0.5833313   0.5833313  )
       113           C   tau( 113) = (   0.2499980   0.5833313   0.9166647  )
       114           C   tau( 114) = (   0.2499980   0.9166647   0.2499980  )
       115           C   tau( 115) = (   0.2499980   0.9166647   0.5833313  )
       116           C   tau( 116) = (   0.2499980   0.9166647   0.9166647  )
       117           C   tau( 117) = (   0.5833313   0.2499980   0.2499980  )
       118           C   tau( 118) = (   0.5833313   0.2499980   0.5833313  )
       119           C   tau( 119) = (   0.5833313   0.2499980   0.9166647  )
       120           C   tau( 120) = (   0.5833313   0.5833313   0.2499980  )
       121           C   tau( 121) = (   0.5833313   0.5833313   0.5833313  )
       122           C   tau( 122) = (   0.5833313   0.5833313   0.9166647  )
       123           C   tau( 123) = (   0.5833313   0.9166647   0.2499980  )
       124           C   tau( 124) = (   0.5833313   0.9166647   0.5833313  )
       125           C   tau( 125) = (   0.5833313   0.9166647   0.9166647  )
       126           C   tau( 126) = (   0.9166647   0.2499980   0.2499980  )
       127           C   tau( 127) = (   0.9166647   0.2499980   0.5833313  )
       128           C   tau( 128) = (   0.9166647   0.2499980   0.9166647  )
       129           C   tau( 129) = (   0.9166647   0.5833313   0.2499980  )
       130           C   tau( 130) = (   0.9166647   0.5833313   0.5833313  )
       131           C   tau( 131) = (   0.9166647   0.5833313   0.9166647  )
       132           C   tau( 132) = (   0.9166647   0.9166647   0.2499980  )
       133           C   tau( 133) = (   0.9166647   0.9166647   0.5833313  )
       134           C   tau( 134) = (   0.9166647   0.9166647   0.9166647  )
       135           C   tau( 135) = (   0.1666667   0.0000000   0.0000000  )
       136           C   tau( 136) = (   0.1666667   0.0000000   0.3333333  )
       137           C   tau( 137) = (   0.1666667   0.0000000   0.6666667  )
       138           C   tau( 138) = (   0.1666667   0.3333333   0.0000000  )
       139           C   tau( 139) = (   0.1666667   0.3333333   0.3333333  )
       140           C   tau( 140) = (   0.1666667   0.3333333   0.6666667  )
       141           C   tau( 141) = (   0.1666667   0.6666667   0.0000000  )
       142           C   tau( 142) = (   0.1666667   0.6666667   0.3333333  )
       143           C   tau( 143) = (   0.1666667   0.6666667   0.6666667  )
       144           C   tau( 144) = (   0.5000000   0.0000000   0.0000000  )
       145           C   tau( 145) = (   0.5000000   0.0000000   0.3333333  )
       146           C   tau( 146) = (   0.5000000   0.0000000   0.6666667  )
       147           C   tau( 147) = (   0.5000000   0.3333333   0.0000000  )
       148           C   tau( 148) = (   0.5000000   0.3333333   0.3333333  )
       149           C   tau( 149) = (   0.5000000   0.3333333   0.6666667  )
       150           C   tau( 150) = (   0.5000000   0.6666667   0.0000000  )
       151           C   tau( 151) = (   0.5000000   0.6666667   0.3333333  )
       152           C   tau( 152) = (   0.5000000   0.6666667   0.6666667  )
       153           C   tau( 153) = (   0.8333333   0.0000000   0.0000000  )
       154           C   tau( 154) = (   0.8333333   0.0000000   0.3333333  )
       155           C   tau( 155) = (   0.8333333   0.0000000   0.6666667  )
       156           C   tau( 156) = (   0.8333333   0.3333333   0.0000000  )
       157           C   tau( 157) = (   0.8333333   0.3333333   0.3333333  )
       158           C   tau( 158) = (   0.8333333   0.3333333   0.6666667  )
       159           C   tau( 159) = (   0.8333333   0.6666667   0.0000000  )
       160           C   tau( 160) = (   0.8333333   0.6666667   0.3333333  )
       161           C   tau( 161) = (   0.8333333   0.6666667   0.6666667  )
       162           C   tau( 162) = (   0.2499980   0.0833353   0.0833353  )
       163           C   tau( 163) = (   0.2499980   0.0833353   0.4166687  )
       164           C   tau( 164) = (   0.2499980   0.0833353   0.7500020  )
       165           C   tau( 165) = (   0.2499980   0.4166687   0.0833353  )
       166           C   tau( 166) = (   0.2499980   0.4166687   0.4166687  )
       167           C   tau( 167) = (   0.2499980   0.4166687   0.7500020  )
       168           C   tau( 168) = (   0.2499980   0.7500020   0.0833353  )
       169           C   tau( 169) = (   0.2499980   0.7500020   0.4166687  )
       170           C   tau( 170) = (   0.2499980   0.7500020   0.7500020  )
       171           C   tau( 171) = (   0.5833313   0.0833353   0.0833353  )
       172           C   tau( 172) = (   0.5833313   0.0833353   0.4166687  )
       173           C   tau( 173) = (   0.5833313   0.0833353   0.7500020  )
       174           C   tau( 174) = (   0.5833313   0.4166687   0.0833353  )
       175           C   tau( 175) = (   0.5833313   0.4166687   0.4166687  )
       176           C   tau( 176) = (   0.5833313   0.4166687   0.7500020  )
       177           C   tau( 177) = (   0.5833313   0.7500020   0.0833353  )
       178           C   tau( 178) = (   0.5833313   0.7500020   0.4166687  )
       179           C   tau( 179) = (   0.5833313   0.7500020   0.7500020  )
       180           C   tau( 180) = (   0.9166647   0.0833353   0.0833353  )
       181           C   tau( 181) = (   0.9166647   0.0833353   0.4166687  )
       182           C   tau( 182) = (   0.9166647   0.0833353   0.7500020  )
       183           C   tau( 183) = (   0.9166647   0.4166687   0.0833353  )
       184           C   tau( 184) = (   0.9166647   0.4166687   0.4166687  )
       185           C   tau( 185) = (   0.9166647   0.4166687   0.7500020  )
       186           C   tau( 186) = (   0.9166647   0.7500020   0.0833353  )
       187           C   tau( 187) = (   0.9166647   0.7500020   0.4166687  )
       188           C   tau( 188) = (   0.9166647   0.7500020   0.7500020  )
       189           C   tau( 189) = (   0.1666667   0.1666667   0.1666667  )
       190           C   tau( 190) = (   0.1666667   0.1666667   0.5000000  )
       191           C   tau( 191) = (   0.1666667   0.1666667   0.8333333  )
       192           C   tau( 192) = (   0.1666667   0.5000000   0.1666667  )
       193           C   tau( 193) = (   0.1666667   0.5000000   0.5000000  )
       194           C   tau( 194) = (   0.1666667   0.5000000   0.8333333  )
       195           C   tau( 195) = (   0.1666667   0.8333333   0.1666667  )
       196           C   tau( 196) = (   0.1666667   0.8333333   0.5000000  )
       197           C   tau( 197) = (   0.1666667   0.8333333   0.8333333  )
       198           C   tau( 198) = (   0.5000000   0.1666667   0.1666667  )
       199           C   tau( 199) = (   0.5000000   0.1666667   0.5000000  )
       200           C   tau( 200) = (   0.5000000   0.1666667   0.8333333  )
       201           C   tau( 201) = (   0.5000000   0.5000000   0.1666667  )
       202           C   tau( 202) = (   0.5000000   0.5000000   0.5000000  )
       203           C   tau( 203) = (   0.5000000   0.5000000   0.8333333  )
       204           C   tau( 204) = (   0.5000000   0.8333333   0.1666667  )
       205           C   tau( 205) = (   0.5000000   0.8333333   0.5000000  )
       206           C   tau( 206) = (   0.5000000   0.8333333   0.8333333  )
       207           C   tau( 207) = (   0.8333333   0.1666667   0.1666667  )
       208           C   tau( 208) = (   0.8333333   0.1666667   0.5000000  )
       209           C   tau( 209) = (   0.8333333   0.1666667   0.8333333  )
       210           C   tau( 210) = (   0.8333333   0.5000000   0.1666667  )
       211           C   tau( 211) = (   0.8333333   0.5000000   0.5000000  )
       212           C   tau( 212) = (   0.8333333   0.5000000   0.8333333  )
       213           C   tau( 213) = (   0.8333333   0.8333333   0.1666667  )
       214           C   tau( 214) = (   0.8333333   0.8333333   0.5000000  )
       215           C   tau( 215) = (   0.8333333   0.8333333   0.8333333  )

   Crystallographic axes

     site n.     atom                  positions (cryst. coord.)
         1           C   tau(   1) = (  0.0833353  0.2499980  0.4166687  )
         2           C   tau(   2) = (  0.0833353  0.2499980  0.7500020  )
         3           C   tau(   3) = (  0.0833353  0.5833313  0.0833353  )
         4           C   tau(   4) = (  0.0833353  0.5833313  0.4166687  )
         5           C   tau(   5) = (  0.0833353  0.5833313  0.7500020  )
         6           C   tau(   6) = (  0.0833353  0.9166647  0.0833353  )
         7           C   tau(   7) = (  0.0833353  0.9166647  0.4166687  )
         8           C   tau(   8) = (  0.0833353  0.9166647  0.7500020  )
         9           C   tau(   9) = (  0.4166687  0.2499980  0.0833353  )
        10           C   tau(  10) = (  0.4166687  0.2499980  0.4166687  )
        11           C   tau(  11) = (  0.4166687  0.2499980  0.7500020  )
        12           C   tau(  12) = (  0.4166687  0.5833313  0.0833353  )
        13           C   tau(  13) = (  0.4166687  0.5833313  0.4166687  )
        14           C   tau(  14) = (  0.4166687  0.5833313  0.7500020  )
        15           C   tau(  15) = (  0.4166687  0.9166647  0.0833353  )
        16           C   tau(  16) = (  0.4166687  0.9166647  0.4166687  )
        17           C   tau(  17) = (  0.4166687  0.9166647  0.7500020  )
        18           C   tau(  18) = (  0.7500020  0.2499980  0.0833353  )
        19           C   tau(  19) = (  0.7500020  0.2499980  0.4166687  )
        20           C   tau(  20) = (  0.7500020  0.2499980  0.7500020  )
        21           C   tau(  21) = (  0.7500020  0.5833313  0.0833353  )
        22           C   tau(  22) = (  0.7500020  0.5833313  0.4166687  )
        23           C   tau(  23) = (  0.7500020  0.5833313  0.7500020  )
        24           C   tau(  24) = (  0.7500020  0.9166647  0.0833353  )
        25           C   tau(  25) = (  0.7500020  0.9166647  0.4166687  )
        26           C   tau(  26) = (  0.7500020  0.9166647  0.7500020  )
        27           C   tau(  27) = (  0.0000000  0.0000000  0.1666667  )
        28           C   tau(  28) = (  0.0000000  0.0000000  0.5000000  )
        29           C   tau(  29) = (  0.0000000  0.0000000  0.8333333  )
        30           C   tau(  30) = (  0.0000000  0.3333333  0.1666667  )
        31           C   tau(  31) = (  0.0000000  0.3333333  0.5000000  )
        32           C   tau(  32) = (  0.0000000  0.3333333  0.8333333  )
        33           C   tau(  33) = (  0.0000000  0.6666667  0.1666667  )
        34           C   tau(  34) = (  0.0000000  0.6666667  0.5000000  )
        35           C   tau(  35) = (  0.0000000  0.6666667  0.8333333  )
        36           C   tau(  36) = (  0.3333333  0.0000000  0.1666667  )
        37           C   tau(  37) = (  0.3333333  0.0000000  0.5000000  )
        38           C   tau(  38) = (  0.3333333  0.0000000  0.8333333  )
        39           C   tau(  39) = (  0.3333333  0.3333333  0.1666667  )
        40           C   tau(  40) = (  0.3333333  0.3333333  0.5000000  )
        41           C   tau(  41) = (  0.3333333  0.3333333  0.8333333  )
        42           C   tau(  42) = (  0.3333333  0.6666667  0.1666667  )
        43           C   tau(  43) = (  0.3333333  0.6666667  0.5000000  )
        44           C   tau(  44) = (  0.3333333  0.6666667  0.8333333  )
        45           C   tau(  45) = (  0.6666667  0.0000000  0.1666667  )
        46           C   tau(  46) = (  0.6666667  0.0000000  0.5000000  )
        47           C   tau(  47) = (  0.6666667  0.0000000  0.8333333  )
        48           C   tau(  48) = (  0.6666667  0.3333333  0.1666667  )
        49           C   tau(  49) = (  0.6666667  0.3333333  0.5000000  )
        50           C   tau(  50) = (  0.6666667  0.3333333  0.8333333  )
        51           C   tau(  51) = (  0.6666667  0.6666667  0.1666667  )
        52           C   tau(  52) = (  0.6666667  0.6666667  0.5000000  )
        53           C   tau(  53) = (  0.6666667  0.6666667  0.8333333  )
        54           C   tau(  54) = (  0.0833353  0.0833353  0.2499980  )
        55           C   tau(  55) = (  0.0833353  0.0833353  0.5833313  )
        56           C   tau(  56) = (  0.0833353  0.0833353  0.9166647  )
        57           C   tau(  57) = (  0.0833353  0.4166687  0.2499980  )
        58           C   tau(  58) = (  0.0833353  0.4166687  0.5833313  )
        59           C   tau(  59) = (  0.0833353  0.4166687  0.9166647  )
        60           C   tau(  60) = (  0.0833353  0.7500020  0.2499980  )
        61           C   tau(  61) = (  0.0833353  0.7500020  0.5833313  )
        62           C   tau(  62) = (  0.0833353  0.7500020  0.9166647  )
        63           C   tau(  63) = (  0.4166687  0.0833353  0.2499980  )
        64           C   tau(  64) = (  0.4166687  0.0833353  0.5833313  )
        65           C   tau(  65) = (  0.4166687  0.0833353  0.9166647  )
        66           C   tau(  66) = (  0.4166687  0.4166687  0.2499980  )
        67           C   tau(  67) = (  0.4166687  0.4166687  0.5833313  )
        68           C   tau(  68) = (  0.4166687  0.4166687  0.9166647  )
        69           C   tau(  69) = (  0.4166687  0.7500020  0.2499980  )
        70           C   tau(  70) = (  0.4166687  0.7500020  0.5833313  )
        71           C   tau(  71) = (  0.4166687  0.7500020  0.9166647  )
        72           C   tau(  72) = (  0.7500020  0.0833353  0.2499980  )
        73           C   tau(  73) = (  0.7500020  0.0833353  0.5833313  )
        74           C   tau(  74) = (  0.7500020  0.0833353  0.9166647  )
        75           C   tau(  75) = (  0.7500020  0.4166687  0.2499980  )
        76           C   tau(  76) = (  0.7500020  0.4166687  0.5833313  )
        77           C   tau(  77) = (  0.7500020  0.4166687  0.9166647  )
        78           C   tau(  78) = (  0.7500020  0.7500020  0.2499980  )
        79           C   tau(  79) = (  0.7500020  0.7500020  0.5833313  )
        80           C   tau(  80) = (  0.7500020  0.7500020  0.9166647  )
        81           C   tau(  81) = (  0.0000000  0.1666667  0.0000000  )
        82           C   tau(  82) = (  0.0000000  0.1666667  0.3333333  )
        83           C   tau(  83) = (  0.0000000  0.1666667  0.6666667  )
        84           C   tau(  84) = (  0.0000000  0.5000000  0.0000000  )
        85           C   tau(  85) = (  0.0000000  0.5000000  0.3333333  )
        86           C   tau(  86) = (  0.0000000  0.5000000  0.6666667  )
        87           C   tau(  87) = (  0.0000000  0.8333333  0.0000000  )
        88           C   tau(  88) = (  0.0000000  0.8333333  0.3333333  )
        89           C   tau(  89) = (  0.0000000  0.8333333  0.6666667  )
        90           C   tau(  90) = (  0.3333333  0.1666667  0.0000000  )
        91           C   tau(  91) = (  0.3333333  0.1666667  0.3333333  )
        92           C   tau(  92) = (  0.3333333  0.1666667  0.6666667  )
        93           C   tau(  93) = (  0.3333333  0.5000000  0.0000000  )
        94           C   tau(  94) = (  0.3333333  0.5000000  0.3333333  )
        95           C   tau(  95) = (  0.3333333  0.5000000  0.6666667  )
        96           C   tau(  96) = (  0.3333333  0.8333333  0.0000000  )
        97           C   tau(  97) = (  0.3333333  0.8333333  0.3333333  )
        98           C   tau(  98) = (  0.3333333  0.8333333  0.6666667  )
        99           C   tau(  99) = (  0.6666667  0.1666667  0.0000000  )
       100           C   tau( 100) = (  0.6666667  0.1666667  0.3333333  )
       101           C   tau( 101) = (  0.6666667  0.1666667  0.6666667  )
       102           C   tau( 102) = (  0.6666667  0.5000000  0.0000000  )
       103           C   tau( 103) = (  0.6666667  0.5000000  0.3333333  )
       104           C   tau( 104) = (  0.6666667  0.5000000  0.6666667  )
       105           C   tau( 105) = (  0.6666667  0.8333333  0.0000000  )
       106           C   tau( 106) = (  0.6666667  0.8333333  0.3333333  )
       107           C   tau( 107) = (  0.6666667  0.8333333  0.6666667  )
       108           C   tau( 108) = (  0.2499980  0.2499980  0.2499980  )
       109           C   tau( 109) = (  0.2499980  0.2499980  0.5833313  )
       110           C   tau( 110) = (  0.2499980  0.2499980  0.9166647  )
       111           C   tau( 111) = (  0.2499980  0.5833313  0.2499980  )
       112           C   tau( 112) = (  0.2499980  0.5833313  0.5833313  )
       113           C   tau( 113) = (  0.2499980  0.5833313  0.9166647  )
       114           C   tau( 114) = (  0.2499980  0.9166647  0.2499980  )
       115           C   tau( 115) = (  0.2499980  0.9166647  0.5833313  )
       116           C   tau( 116) = (  0.2499980  0.9166647  0.9166647  )
       117           C   tau( 117) = (  0.5833313  0.2499980  0.2499980  )
       118           C   tau( 118) = (  0.5833313  0.2499980  0.5833313  )
       119           C   tau( 119) = (  0.5833313  0.2499980  0.9166647  )
       120           C   tau( 120) = (  0.5833313  0.5833313  0.2499980  )
       121           C   tau( 121) = (  0.5833313  0.5833313  0.5833313  )
       122           C   tau( 122) = (  0.5833313  0.5833313  0.9166647  )
       123           C   tau( 123) = (  0.5833313  0.9166647  0.2499980  )
       124           C   tau( 124) = (  0.5833313  0.9166647  0.5833313  )
       125           C   tau( 125) = (  0.5833313  0.9166647  0.9166647  )
       126           C   tau( 126) = (  0.9166647  0.2499980  0.2499980  )
       127           C   tau( 127) = (  0.9166647  0.2499980  0.5833313  )
       128           C   tau( 128) = (  0.9166647  0.2499980  0.9166647  )
       129           C   tau( 129) = (  0.9166647  0.5833313  0.2499980  )
       130           C   tau( 130) = (  0.9166647  0.5833313  0.5833313  )
       131           C   tau( 131) = (  0.9166647  0.5833313  0.9166647  )
       132           C   tau( 132) = (  0.9166647  0.9166647  0.2499980  )
       133           C   tau( 133) = (  0.9166647  0.9166647  0.5833313  )
       134           C   tau( 134) = (  0.9166647  0.9166647  0.9166647  )
       135           C   tau( 135) = (  0.1666667  0.0000000  0.0000000  )
       136           C   tau( 136) = (  0.1666667  0.0000000  0.3333333  )
       137           C   tau( 137) = (  0.1666667  0.0000000  0.6666667  )
       138           C   tau( 138) = (  0.1666667  0.3333333  0.0000000  )
       139           C   tau( 139) = (  0.1666667  0.3333333  0.3333333  )
       140           C   tau( 140) = (  0.1666667  0.3333333  0.6666667  )
       141           C   tau( 141) = (  0.1666667  0.6666667  0.0000000  )
       142           C   tau( 142) = (  0.1666667  0.6666667  0.3333333  )
       143           C   tau( 143) = (  0.1666667  0.6666667  0.6666667  )
       144           C   tau( 144) = (  0.5000000  0.0000000  0.0000000  )
       145           C   tau( 145) = (  0.5000000  0.0000000  0.3333333  )
       146           C   tau( 146) = (  0.5000000  0.0000000  0.6666667  )
       147           C   tau( 147) = (  0.5000000  0.3333333  0.0000000  )
       148           C   tau( 148) = (  0.5000000  0.3333333  0.3333333  )
       149           C   tau( 149) = (  0.5000000  0.3333333  0.6666667  )
       150           C   tau( 150) = (  0.5000000  0.6666667  0.0000000  )
       151           C   tau( 151) = (  0.5000000  0.6666667  0.3333333  )
       152           C   tau( 152) = (  0.5000000  0.6666667  0.6666667  )
       153           C   tau( 153) = (  0.8333333  0.0000000  0.0000000  )
       154           C   tau( 154) = (  0.8333333  0.0000000  0.3333333  )
       155           C   tau( 155) = (  0.8333333  0.0000000  0.6666667  )
       156           C   tau( 156) = (  0.8333333  0.3333333  0.0000000  )
       157           C   tau( 157) = (  0.8333333  0.3333333  0.3333333  )
       158           C   tau( 158) = (  0.8333333  0.3333333  0.6666667  )
       159           C   tau( 159) = (  0.8333333  0.6666667  0.0000000  )
       160           C   tau( 160) = (  0.8333333  0.6666667  0.3333333  )
       161           C   tau( 161) = (  0.8333333  0.6666667  0.6666667  )
       162           C   tau( 162) = (  0.2499980  0.0833353  0.0833353  )
       163           C   tau( 163) = (  0.2499980  0.0833353  0.4166687  )
       164           C   tau( 164) = (  0.2499980  0.0833353  0.7500020  )
       165           C   tau( 165) = (  0.2499980  0.4166687  0.0833353  )
       166           C   tau( 166) = (  0.2499980  0.4166687  0.4166687  )
       167           C   tau( 167) = (  0.2499980  0.4166687  0.7500020  )
       168           C   tau( 168) = (  0.2499980  0.7500020  0.0833353  )
       169           C   tau( 169) = (  0.2499980  0.7500020  0.4166687  )
       170           C   tau( 170) = (  0.2499980  0.7500020  0.7500020  )
       171           C   tau( 171) = (  0.5833313  0.0833353  0.0833353  )
       172           C   tau( 172) = (  0.5833313  0.0833353  0.4166687  )
       173           C   tau( 173) = (  0.5833313  0.0833353  0.7500020  )
       174           C   tau( 174) = (  0.5833313  0.4166687  0.0833353  )
       175           C   tau( 175) = (  0.5833313  0.4166687  0.4166687  )
       176           C   tau( 176) = (  0.5833313  0.4166687  0.7500020  )
       177           C   tau( 177) = (  0.5833313  0.7500020  0.0833353  )
       178           C   tau( 178) = (  0.5833313  0.7500020  0.4166687  )
       179           C   tau( 179) = (  0.5833313  0.7500020  0.7500020  )
       180           C   tau( 180) = (  0.9166647  0.0833353  0.0833353  )
       181           C   tau( 181) = (  0.9166647  0.0833353  0.4166687  )
       182           C   tau( 182) = (  0.9166647  0.0833353  0.7500020  )
       183           C   tau( 183) = (  0.9166647  0.4166687  0.0833353  )
       184           C   tau( 184) = (  0.9166647  0.4166687  0.4166687  )
       185           C   tau( 185) = (  0.9166647  0.4166687  0.7500020  )
       186           C   tau( 186) = (  0.9166647  0.7500020  0.0833353  )
       187           C   tau( 187) = (  0.9166647  0.7500020  0.4166687  )
       188           C   tau( 188) = (  0.9166647  0.7500020  0.7500020  )
       189           C   tau( 189) = (  0.1666667  0.1666667  0.1666667  )
       190           C   tau( 190) = (  0.1666667  0.1666667  0.5000000  )
       191           C   tau( 191) = (  0.1666667  0.1666667  0.8333333  )
       192           C   tau( 192) = (  0.1666667  0.5000000  0.1666667  )
       193           C   tau( 193) = (  0.1666667  0.5000000  0.5000000  )
       194           C   tau( 194) = (  0.1666667  0.5000000  0.8333333  )
       195           C   tau( 195) = (  0.1666667  0.8333333  0.1666667  )
       196           C   tau( 196) = (  0.1666667  0.8333333  0.5000000  )
       197           C   tau( 197) = (  0.1666667  0.8333333  0.8333333  )
       198           C   tau( 198) = (  0.5000000  0.1666667  0.1666667  )
       199           C   tau( 199) = (  0.5000000  0.1666667  0.5000000  )
       200           C   tau( 200) = (  0.5000000  0.1666667  0.8333333  )
       201           C   tau( 201) = (  0.5000000  0.5000000  0.1666667  )
       202           C   tau( 202) = (  0.5000000  0.5000000  0.5000000  )
       203           C   tau( 203) = (  0.5000000  0.5000000  0.8333333  )
       204           C   tau( 204) = (  0.5000000  0.8333333  0.1666667  )
       205           C   tau( 205) = (  0.5000000  0.8333333  0.5000000  )
       206           C   tau( 206) = (  0.5000000  0.8333333  0.8333333  )
       207           C   tau( 207) = (  0.8333333  0.1666667  0.1666667  )
       208           C   tau( 208) = (  0.8333333  0.1666667  0.5000000  )
       209           C   tau( 209) = (  0.8333333  0.1666667  0.8333333  )
       210           C   tau( 210) = (  0.8333333  0.5000000  0.1666667  )
       211           C   tau( 211) = (  0.8333333  0.5000000  0.5000000  )
       212           C   tau( 212) = (  0.8333333  0.5000000  0.8333333  )
       213           C   tau( 213) = (  0.8333333  0.8333333  0.1666667  )
       214           C   tau( 214) = (  0.8333333  0.8333333  0.5000000  )
       215           C   tau( 215) = (  0.8333333  0.8333333  0.8333333  )

     number of k points=     4  Gaussian smearing, width (Ry)=  0.0100
                       cart. coord. in units 2pi/alat
        k(    1) = (   0.0000000   0.0000000   0.0000000), wk =   0.2500000
        k(    2) = (   0.0000000   0.0000000  -0.5000000), wk =   0.7500000
        k(    3) = (   0.0000000  -0.5000000  -0.5000000), wk =   0.7500000
        k(    4) = (  -0.5000000  -0.5000000  -0.5000000), wk =   0.2500000

                       cryst. coord.
        k(    1) = (   0.0000000   0.0000000   0.0000000), wk =   0.2500000
        k(    2) = (   0.0000000   0.0000000  -0.5000000), wk =   0.7500000
        k(    3) = (   0.0000000  -0.5000000  -0.5000000), wk =   0.7500000
        k(    4) = (  -0.5000000  -0.5000000  -0.5000000), wk =   0.2500000

     Dense  grid:   918657 G-vectors     FFT dimensions: ( 135, 135, 135)

     Smooth grid:   656775 G-vectors     FFT dimensions: ( 108, 108, 108)

     Dynamical RAM for                 wfc:      10.12 MB

     Dynamical RAM for     wfc (w. buffer):      10.12 MB

     Dynamical RAM for           str. fact:       0.22 MB

     Dynamical RAM for           local pot:       0.00 MB

     Dynamical RAM for          nlocal pot:      33.67 MB

     Dynamical RAM for                qrad:       0.43 MB

     Dynamical RAM for          rho,v,vnew:       1.91 MB

     Dynamical RAM for               rhoin:       0.64 MB

     Dynamical RAM for            rho*nmix:       3.50 MB

     Dynamical RAM for           G-vectors:       0.90 MB

     Dynamical RAM for          h,s,v(r/c):     195.77 MB

     Dynamical RAM for          <psi|beta>:      13.57 MB

     Dynamical RAM for                 psi:      40.49 MB

     Dynamical RAM for                hpsi:      40.49 MB

     Dynamical RAM for                spsi:      40.49 MB

     Dynamical RAM for      wfcinit/wfcrot:      26.36 MB

     Dynamical RAM for           addusdens:      14.29 MB

     Dynamical RAM for          addusforce:      37.84 MB

     Dynamical RAM for         addusstress:       2.82 MB

     Estimated static dynamical RAM per process >      50.41 MB

     Estimated max dynamical RAM per process >     384.71 MB

     Estimated total dynamical RAM >      95.52 GB

     Atomic positions and unit cell read from directory:
     ./diamond.save/
     Atomic positions from file used, from input discarded
 

     Check: negative core charge=   -0.000014

     The initial density is read from file :
     ./diamond.save/charge-density



     %%%%%%%%%%%%%%%%%%%%%%%%%%%%%%%%%%%%%%%%%%%%%%%%%%%%%%%%%%%%%%%%%%%%%%%%
     %                                                                      %
     % You are using vdW-DF, which was implemented by the Thonhauser group. %
     % Please cite the following two papers that made this development      %
     % possible and the two reviews that describe the various versions:     %
     %                                                                      %
     %   T. Thonhauser et al., PRL 115, 136402 (2015).                      %
     %   T. Thonhauser et al., PRB 76, 125112 (2007).                       %
     %   K. Berland et al., Rep. Prog. Phys. 78, 066501 (2015).             %
     %   D.C. Langreth et al., J. Phys.: Condens. Matter 21, 084203 (2009). %
     %                                                                      %
     % If you are calculating stress with vdW-DF, please also cite:         %
     %                                                                      %
     %   R. Sabatini et al., J. Phys.: Condens. Matter 24, 424209 (2012).   %
     %                                                                      %
     %%%%%%%%%%%%%%%%%%%%%%%%%%%%%%%%%%%%%%%%%%%%%%%%%%%%%%%%%%%%%%%%%%%%%%%%

     %%%%%%%%%%%%%%%%%%%%%%%%%%%%%%%%%%%%%%%%%%%%%%%%%%%%%%%%%%%%%%%%%%%%%%%%
     %                                                                      %
     %  vdW-DF NEWS:                                                        %
     %                                                                      %
     %  * vdW-DF3 is now available. DOI: 10.1021/acs.jctc.0c00471           %
     %    use with input_dft = 'vdW-DF3-opt1' or 'vdW-DF3-opt2'             %
     %                                                                      %
     %  * Unscreened and range-separated vdW-DF hybrid functionals          %
     %    DOI: 10.1063/1.4986522 and 10.1088/1361-648X/ac2ad2               %
     %    use with input_dft = 'vdW-DF-cx0' (etc) and 'vdW-DF-ahcx'         %
     %                                                                      %
     %%%%%%%%%%%%%%%%%%%%%%%%%%%%%%%%%%%%%%%%%%%%%%%%%%%%%%%%%%%%%%%%%%%%%%%%


     Carrying out vdW-DF run using the following parameters:
     Nqs    =  20  Npoints =  1024  r_max =  100.000
     q_mesh =  0.00001000  0.04494208  0.09755937  0.15916263
               0.23128650  0.31572767  0.41458969  0.53033537
               0.66584808  0.82450364  1.01025438  1.22772762
               1.48234092  1.78043706  2.12944203  2.53805004
               3.01644009  3.57652955  4.23227104  5.00000000


     -----------------------------------------------
     Non-local corr. energy    =       7.36169709 Ry
     -----------------------------------------------

     Wavefunctions not found or not readable, recomputing them from scratch
     Starting wfcs are  860 randomized atomic wfcs
     Checking if some PAW data can be deallocated... 

     total cpu time spent up to now is        8.5 secs

     Self-consistent Calculation

     iteration #  1     ecut=    70.00 Ry     beta= 0.70
     Davidson diagonalization with overlap

---- Real-time Memory Report at c_bands before calling an iterative solver
           357 MiB given to the printing process from OS
             0 MiB allocation reported by mallinfo(arena+hblkhd)
       1960452 MiB available memory on the node where the printing process lives
------------------
     ethr =  1.00E-05,  avg # of iterations = 18.3

     Threshold (ethr) on eigenvalues was too large:
     Diagonalizing with lowered threshold

     Davidson diagonalization with overlap

---- Real-time Memory Report at c_bands before calling an iterative solver
           557 MiB given to the printing process from OS
             0 MiB allocation reported by mallinfo(arena+hblkhd)
       1957600 MiB available memory on the node where the printing process lives
------------------
     c_bands:  1 eigenvalues not converged
     ethr =  1.87E-10,  avg # of iterations = 20.0


     -----------------------------------------------
     Non-local corr. energy    =       7.36169648 Ry
     -----------------------------------------------


     total cpu time spent up to now is      179.6 secs

     total energy              =   -4080.74175937 Ry
     estimated scf accuracy    <       0.00000019 Ry

     iteration #  2     ecut=    70.00 Ry     beta= 0.70
     Davidson diagonalization with overlap

---- Real-time Memory Report at c_bands before calling an iterative solver
           563 MiB given to the printing process from OS
             0 MiB allocation reported by mallinfo(arena+hblkhd)
       1956912 MiB available memory on the node where the printing process lives
------------------
     ethr =  2.18E-11,  avg # of iterations = 15.3


     -----------------------------------------------
     Non-local corr. energy    =       7.36169641 Ry
     -----------------------------------------------


     total cpu time spent up to now is      270.0 secs

     total energy              =   -4080.74175836 Ry
     estimated scf accuracy    <       0.00002831 Ry

     iteration #  3     ecut=    70.00 Ry     beta= 0.70
     Davidson diagonalization with overlap

---- Real-time Memory Report at c_bands before calling an iterative solver
           563 MiB given to the printing process from OS
             0 MiB allocation reported by mallinfo(arena+hblkhd)
       1956845 MiB available memory on the node where the printing process lives
------------------
     ethr =  2.18E-11,  avg # of iterations = 13.3


     -----------------------------------------------
     Non-local corr. energy    =       7.36169625 Ry
     -----------------------------------------------


     total cpu time spent up to now is      341.3 secs

     total energy              =   -4080.74175948 Ry
     estimated scf accuracy    <       0.00000036 Ry

     iteration #  4     ecut=    70.00 Ry     beta= 0.70
     Davidson diagonalization with overlap

---- Real-time Memory Report at c_bands before calling an iterative solver
           563 MiB given to the printing process from OS
             0 MiB allocation reported by mallinfo(arena+hblkhd)
       1956782 MiB available memory on the node where the printing process lives
------------------
     ethr =  2.18E-11,  avg # of iterations =  9.8


     -----------------------------------------------
     Non-local corr. energy    =       7.36169731 Ry
     -----------------------------------------------


     total cpu time spent up to now is      375.0 secs

     End of self-consistent calculation

          k = 0.0000 0.0000 0.0000 ( 82057 PWs)   bands (ev):

    -8.6267  -7.6506  -7.6506  -7.6058  -7.6057  -7.6057  -7.4456  -6.6406
    -6.6406  -6.6401  -6.6401  -6.6400  -6.5980  -6.5980  -6.5980  -6.5105
    -6.5104  -6.5104  -6.2560  -5.6189  -5.5819  -5.5819  -5.5819  -5.5574
    -5.5574  -5.5573  -5.2576  -4.6263  -4.6263  -4.6186  -4.6186  -4.6186
    -4.5541  -3.7707  -3.7573  -3.7573  -3.7571  -3.7285  -3.7285  -3.7226
    -3.7226  -3.7226  -3.7201  -3.7199  -3.7199  -3.6731  -3.6731  -3.6729
    -3.6712  -3.6712  -3.6712  -3.6389  -3.6389  -3.5564  -3.5564  -3.5563
    -3.3942  -2.9999  -2.9996  -2.9996  -2.9769  -2.9769  -2.9766  -2.9616
    -2.9616  -2.9567  -2.9306  -2.9304  -2.9304  -2.8790  -2.8790  -2.8474
    -2.8474  -2.8471  -2.8039  -2.8039  -2.8038  -2.5973  -2.5973  -2.5973
    -1.8208  -1.2814  -1.2814  -1.2811  -1.2713  -1.2713  -1.2387  -1.2387
    -1.2387  -1.1841  -1.1840  -1.1840  -0.5624   0.0083   0.0083   0.0111
     0.0117   0.0117   0.0414   0.4393   0.4549   0.4549   0.4553   0.4791
     0.4791   0.4791   0.5105   0.5105   0.5344   0.5347   0.5347   0.6217
     0.6217   0.6220   0.6605   0.6605   0.6608   0.6897   0.6897   0.7459
     0.7460   0.7460   0.7769   0.8201   0.8201   0.8205   0.8205   0.8205
     0.8278   0.8280   0.8280   0.8865   0.8865   0.8867   0.9125   0.9126
     0.9126   0.9325   0.9325   0.9332   0.9332   0.9336   0.9861   1.3144
     1.3144   1.3144   1.6054   1.8746   1.8746   1.8746   1.8999   1.9001
     1.9001   1.9161   1.9161   2.0992   2.0992   2.0993   3.2123   3.4918
     3.5138   3.5138   3.5139   3.5301   3.5302   3.5302   3.5454   3.5816
     3.5816   3.5817   3.5846   3.5846   3.5846   3.6156   3.6156   3.7099
     3.7336   3.7336   3.7337   4.0423   4.0624   4.0624   4.0628   4.0731
     4.0733   4.0733   4.0858   4.0858   4.0869   4.0869   4.0870   4.1302
     4.1302   4.1422   4.1423   4.1423   4.1461   4.1463   4.1463   4.4021
     4.4022   4.4022   5.0151   5.0213   5.0214   5.0214   5.0445   5.0445
     5.0483   5.0483   5.0485   5.0769   5.0771   5.0771   5.1712   5.1712
     5.1712   5.1850   5.1850   5.1853   5.1892   5.2505   5.2505   5.2851
     5.2851   5.2854   5.3312   5.5687   5.5690   5.5690   5.5765   5.5765
     5.5941   5.6028   5.6030   5.6030   5.6044   5.6061   5.6062   5.6062
     5.6131   5.6131   5.6134   5.6300   5.6300   5.6558   5.6559   5.6559
     5.7102   5.7102   5.7105   5.7212   5.7212   6.1160   6.1160   6.1163
     6.6201   6.6202   6.6202   6.6818   6.6818   6.6818   6.8322   7.1057
     7.1057   7.1111   7.1112   7.1112   7.1343   7.1343   7.1343   7.2269
     7.2270   7.2270   7.5616   7.5616   7.5616   7.5687   7.5688   7.5688
     7.6028   7.6112   7.6112   7.6113   7.6456   7.6458   7.6458   7.7397
     7.7399   7.7399   7.7608   7.7626   7.7626   7.7790   7.7790   7.7791
     7.7883   7.7887   7.7887   7.8591   7.8594   7.8594   7.8729   7.8729
     7.8731   7.8866   7.8866   7.9005   7.9005   7.9007   7.9805   7.9980
     7.9982   7.9982   7.9987   8.0219   8.0219   8.0261   8.0261   8.0261
     8.0448   8.0448   8.0448   8.0656   8.0658   8.0658   8.0660   8.0660
     8.0902   8.0903   8.0903   8.0983   8.0983   8.1080   8.1101   8.1101
     8.1105   8.1252   8.1252   8.1253   8.1714   8.1718   8.1718   8.2350
     8.2350   8.2351   8.2651   8.2652   8.2652   8.2741   8.2840   8.2840
     8.2841   8.4537   8.4537   8.6073   8.6073   8.6074   8.8154   8.8216
     8.8216   8.8217   8.8930   8.8930   8.8930   8.9078   8.9078   8.9080
     8.9499   8.9499   8.9499   8.9535   8.9535   8.9985   8.9985   9.0276
     9.1051   9.1054   9.1054   9.9529   9.9529   9.9532  10.2559  10.2559
    10.2560  10.2696  10.2698  10.2698  10.2782  10.3270  10.3271  10.3271
    10.3585  10.3586  10.3586  10.4750  10.4750  10.5137  10.5137  10.5138
    10.5213  10.5213  10.5213  10.5541  10.5541  10.5670  10.5670  10.5670
    10.5685  10.5685  10.6148  10.6149  10.6149  11.2124  11.2124  11.2124
    11.4111  11.4489  11.4489  11.4491  11.4946  11.4949  11.4949  11.6138
    11.6138  12.5988  12.7172  12.7172  12.7173  15.6393  15.6394  15.6394
    17.1114  17.1114  17.1526  17.1526  17.1527  17.1826  17.8117  17.8117
    17.8128  17.8159  17.8159  17.8627  17.8768  17.8768  17.9669  17.9669
    17.9673  18.0385  18.6173  18.6174  18.6174  19.3257  19.3258  19.3258
    19.3614  19.3614  19.3616  19.3730  19.3730  19.3763  19.3765  19.3765
    19.4081  20.0021  20.0021  20.0222  20.0222  20.0229  20.0266  20.0272
    20.0272  20.0358  20.0358  20.0363  20.0780  20.0785  20.0785  20.1099
    20.1249  20.1249  20.1251  20.1436  20.1436  20.1440  20.1735  20.1922
    20.1922  20.4092  20.4383  20.4384  20.4384  20.4423  20.4423  20.4423
    20.4726  20.4727  20.4727  20.4812  20.4812  20.5774  20.5774  20.5941
    20.5946  20.5946  20.6349  20.6557  20.6557  20.6559  20.6653  20.6653
    20.6653  20.6676  20.6676  20.6677  20.7278

     occupation numbers 
     1.0000   1.0000   1.0000   1.0000   1.0000   1.0000   1.0000   1.0000
     1.0000   1.0000   1.0000   1.0000   1.0000   1.0000   1.0000   1.0000
     1.0000   1.0000   1.0000   1.0000   1.0000   1.0000   1.0000   1.0000
     1.0000   1.0000   1.0000   1.0000   1.0000   1.0000   1.0000   1.0000
     1.0000   1.0000   1.0000   1.0000   1.0000   1.0000   1.0000   1.0000
     1.0000   1.0000   1.0000   1.0000   1.0000   1.0000   1.0000   1.0000
     1.0000   1.0000   1.0000   1.0000   1.0000   1.0000   1.0000   1.0000
     1.0000   1.0000   1.0000   1.0000   1.0000   1.0000   1.0000   1.0000
     1.0000   1.0000   1.0000   1.0000   1.0000   1.0000   1.0000   1.0000
     1.0000   1.0000   1.0000   1.0000   1.0000   1.0000   1.0000   1.0000
     1.0000   1.0000   1.0000   1.0000   1.0000   1.0000   1.0000   1.0000
     1.0000   1.0000   1.0000   1.0000   1.0000   1.0000   1.0000   1.0000
     1.0000   1.0000   1.0000   1.0000   1.0000   1.0000   1.0000   1.0000
     1.0000   1.0000   1.0000   1.0000   1.0000   1.0000   1.0000   1.0000
     1.0000   1.0000   1.0000   1.0000   1.0000   1.0000   1.0000   1.0000
     1.0000   1.0000   1.0000   1.0000   1.0000   1.0000   1.0000   1.0000
     1.0000   1.0000   1.0000   1.0000   1.0000   1.0000   1.0000   1.0000
     1.0000   1.0000   1.0000   1.0000   1.0000   1.0000   1.0000   1.0000
     1.0000   1.0000   1.0000   1.0000   1.0000   1.0000   1.0000   1.0000
     1.0000   1.0000   1.0000   1.0000   1.0000   1.0000   1.0000   1.0000
     1.0000   1.0000   1.0000   1.0000   1.0000   1.0000   1.0000   1.0000
     1.0000   1.0000   1.0000   1.0000   1.0000   1.0000   1.0000   1.0000
     1.0000   1.0000   1.0000   1.0000   1.0000   1.0000   1.0000   1.0000
     1.0000   1.0000   1.0000   1.0000   1.0000   1.0000   1.0000   1.0000
     1.0000   1.0000   1.0000   1.0000   1.0000   1.0000   1.0000   1.0000
     1.0000   1.0000   1.0000   1.0000   1.0000   1.0000   1.0000   1.0000
     1.0000   1.0000   1.0000   1.0000   1.0000   1.0000   1.0000   1.0000
     1.0000   1.0000   1.0000   1.0000   1.0000   1.0000   1.0000   1.0000
     1.0000   1.0000   1.0000   1.0000   1.0000   1.0000   1.0000   1.0000
     1.0000   1.0000   1.0000   1.0000   1.0000   1.0000   1.0000   1.0000
     1.0000   1.0000   1.0000   1.0000   1.0000   1.0000   1.0000   1.0000
     1.0000   1.0000   1.0000   1.0000   1.0000   1.0000   1.0000   1.0000
     1.0000   1.0000   1.0000   1.0000   1.0000   1.0000   1.0000   1.0000
     1.0000   1.0000   1.0000   1.0000   1.0000   1.0000   1.0000   1.0000
     1.0000   1.0000   1.0000   1.0000   1.0000   1.0000   1.0000   1.0000
     1.0000   1.0000   1.0000   1.0000   1.0000   1.0000   1.0000   1.0000
     1.0000   1.0000   1.0000   1.0000   1.0000   1.0000   1.0000   1.0000
     1.0000   1.0000   1.0000   1.0000   1.0000   1.0000   1.0000   1.0000
     1.0000   1.0000   1.0000   1.0000   1.0000   1.0000   1.0000   1.0000
     1.0000   1.0000   1.0000   1.0000   1.0000   1.0000   1.0000   1.0000
     1.0000   1.0000   1.0000   1.0000   1.0000   1.0000   1.0000   1.0000
     1.0000   1.0000   1.0000   1.0000   1.0000   1.0000   1.0000   1.0000
     1.0000   1.0000   1.0000   1.0000   1.0000   1.0000   1.0000   1.0000
     1.0000   1.0000   1.0000   1.0000   1.0000   1.0000   1.0000   1.0000
     1.0000   1.0000   1.0000   1.0000   1.0000   1.0000   1.0000   1.0000
     1.0000   1.0000   1.0000   1.0000   1.0000   1.0000   1.0000   1.0000
     1.0000   1.0000   1.0000   1.0000   1.0000   1.0000   1.0000   1.0000
     1.0000   1.0000   1.0000   1.0000   1.0000   1.0000   1.0000   1.0000
     1.0000   1.0000   1.0000   1.0000   1.0000   1.0000   1.0000   1.0000
     1.0000   1.0000   1.0000   1.0000   1.0000   1.0000   1.0000   1.0000
     1.0000   1.0000   1.0000   1.0000   1.0000   1.0000   1.0000   1.0000
     1.0000   1.0000   1.0000   1.0000   1.0000   1.0000   1.0000   1.0000
     1.0000   1.0000   1.0000   1.0000   1.0000   1.0000   1.0000   1.0000
     1.0000   1.0000   1.0000   1.0000   1.0000   0.5017   0.5017   0.5017
     0.0000   0.0000   0.0000   0.0000   0.0000   0.0000   0.0000   0.0000
     0.0000   0.0000   0.0000   0.0000   0.0000   0.0000   0.0000   0.0000
     0.0000   0.0000   0.0000   0.0000   0.0000   0.0000   0.0000   0.0000
     0.0000   0.0000   0.0000   0.0000   0.0000   0.0000   0.0000   0.0000
     0.0000   0.0000   0.0000   0.0000   0.0000   0.0000   0.0000   0.0000
     0.0000   0.0000   0.0000   0.0000   0.0000   0.0000   0.0000   0.0000
     0.0000   0.0000   0.0000   0.0000   0.0000   0.0000   0.0000   0.0000
     0.0000   0.0000   0.0000   0.0000   0.0000   0.0000   0.0000   0.0000
     0.0000   0.0000   0.0000   0.0000   0.0000   0.0000   0.0000   0.0000
     0.0000   0.0000   0.0000   0.0000   0.0000   0.0000   0.0000   0.0000
     0.0000   0.0000   0.0000   0.0000   0.0000

          k = 0.0000 0.0000-0.5000 ( 81982 PWs)   bands (ev):

    -8.4466  -8.2816  -7.4570  -7.4293  -7.4293  -7.3927  -7.3298  -7.2605
    -7.2604  -7.0790  -6.4308  -6.4281  -6.4211  -6.4210  -6.3568  -6.3326
    -6.2482  -6.2030  -6.2029  -5.9761  -5.4177  -5.4101  -5.3650  -5.3646
    -5.3556  -5.3554  -5.2448  -5.1452  -4.4817  -4.4732  -4.4732  -4.4638
    -4.4390  -4.4209  -4.4207  -4.4169  -4.3855  -4.3853  -4.3571  -4.3144
    -4.3016  -4.2676  -4.2675  -4.0463  -3.5816  -3.5803  -3.5801  -3.5773
    -3.5473  -3.5451  -3.5450  -3.5399  -3.4271  -3.4182  -3.4179  -3.3715
    -3.3413  -3.2126  -3.2126  -3.0234  -2.6804  -2.6753  -2.6750  -2.6606
    -2.6445  -2.6149  -2.6106  -2.6103  -2.4761  -2.4731  -2.4647  -2.4279
    -2.4277  -2.3539  -2.3438  -2.2728  -2.2727  -1.8863  -1.7423  -1.7422
    -1.7390  -1.7288  -1.7099  -1.7099  -1.7093  -1.7077  -1.5871  -1.5706
    -1.5107  -1.5107  -1.4118  -1.4118  -1.2282  -0.6084  -0.1214  -0.1108
    -0.1108  -0.1107  -0.0998  -0.0998  -0.0934  -0.0197   0.0040   0.0130
     0.0132   0.0177   0.0975   0.0976   0.1124   0.1144   0.1150   0.1284
     0.1288   0.1471   0.3312   0.3530   0.3531   0.5256   0.8185   0.8189
     0.8212   0.8299   0.8302   0.8357   0.8357   0.8468   0.9010   0.9011
     0.9340   0.9593   1.1196   1.1197   1.1224   1.1603   1.1609   1.2780
     1.2781   1.7712   1.9365   1.9424   1.9424   1.9435   2.0128   2.0249
     2.0249   2.1584   2.5179   2.5184   2.5359   2.5560   2.5697   2.5698
     2.5733   2.5733   2.5801   2.5845   2.5917   2.5918   2.6272   2.6283
     2.6414   2.6488   2.6489   2.6539   2.6764   2.6765   2.7575   2.7812
     2.7812   2.7834   2.8901   2.9059   2.9061   2.9153   2.9281   2.9518
     3.1677   3.1677   3.2511   3.7737   3.7801   3.7801   3.7904   3.7915
     3.8363   3.8364   3.8578   4.2857   4.3437   4.3461   4.3503   4.3503
     4.3743   4.3794   4.3794   4.7194   4.7328   4.7496   4.7528   4.7531
     5.0161   5.0161   5.0309   5.0388   5.0618   5.0966   5.0968   5.0968
     5.1089   5.1122   5.1122   5.1224   5.2272   5.2607   5.2608   5.3013
     5.3596   5.3597   5.3724   5.3945   5.3974   5.3976   5.4013   5.4048
     5.4323   5.4364   5.4535   5.4537   5.4875   5.4881   5.4881   5.5050
     5.5197   5.5245   5.5750   5.5751   5.7127   5.7128   5.7781   5.9935
     6.0117   6.0118   6.0371   6.1156   6.1288   6.1288   6.1361   6.1656
     6.1656   6.1703   6.1801   6.2549   6.2550   6.2643   6.2933   6.5466
     6.6495   6.6591   6.6592   6.6608   6.6922   6.6923   6.7346   6.7379
     6.7732   6.7732   6.8037   6.8100   6.8101   6.8118   6.8317   6.8319
     6.8370   6.8480   6.8536   6.8571   6.8682   6.8682   6.8769   6.8771
     6.8879   6.8879   6.9065   6.9065   6.9069   6.9503   6.9519   6.9521
     6.9849   6.9892   7.0103   7.0436   7.0436   7.0832   7.0833   7.1184
     7.4125   7.4127   7.4363   7.6414   7.6952   7.6952   7.7030   7.8129
     7.8501   7.8504   7.9262   7.9694   8.0732   8.0741   8.0756   8.0760
     8.0813   8.1014   8.1017   8.1875   8.1877   8.1980   8.2095   8.2115
     8.2313   8.2327   8.2807   8.2811   8.2902   8.2932   8.3027   8.3029
     8.3260   8.3344   8.3344   8.3411   8.3557   8.3654   8.3820   8.3823
     8.4158   8.4465   8.4465   8.4797   8.4798   8.4812   8.4945   8.5047
     8.5737   8.6988   8.7128   8.7324   8.7372   8.7373   8.7568   8.7569
     8.7857   8.7859   8.8048   8.8269   8.8622   8.8624   8.9849   9.1195
     9.1196   9.1712   9.1771   9.1969   9.1971   9.2744   9.3459   9.3460
     9.3699   9.4191   9.4616   9.4971   9.5006   9.5006   9.5073   9.5074
     9.5246   9.5713   9.5831   9.6287   9.6352   9.6354   9.6454   9.6678
     9.6679   9.6746   9.6961   9.6962   9.7199   9.7531   9.7760   9.7761
     9.8048   9.8050   9.8788   9.9426   9.9671   9.9672  10.0629  10.0735
    10.0738  10.1426  10.1628  10.2121  10.2123  10.3056  10.9647  10.9649
    11.1377  11.1452  11.1453  11.1465  11.2524  11.2882  11.3087  11.3894
    11.3895  11.4106  11.4597  11.4955  11.4956  11.6253  11.8464  11.8464
    11.9247  11.9248  12.0766  12.1193  12.7502  15.5438  15.6103  15.6103
    17.1912  17.1955  17.4854  17.5277  18.0768  18.0983  18.0991  18.0991
    18.2091  18.2238  18.2519  18.2521  18.2826  18.4765  18.6980  18.7072
    18.7080  18.7381  18.7573  18.8017  18.8019  18.8723  18.8779  18.8786
    18.9030  18.9037  18.9580  18.9837  18.9989  19.0487  19.0489  19.0608
    19.4544  19.4631  19.4631  19.4639  19.5149  19.5190  19.5191  19.5309
    19.5752  19.5752  19.5818  19.5818  19.5819  19.6070  19.6488  19.6490
    19.6995  19.7717  19.7830  19.7830  19.9963  20.0111  20.0113  20.0160
    20.0293  20.0298  20.0418  20.0633  20.1517  20.1521  20.1582  20.2002
    20.2259  20.2705  20.2709  20.3575  20.5789  20.5798  20.5858  20.5859
    20.5878  20.5954  20.5954  20.5955  20.6129  20.6130  20.6406  20.6508
    20.6763  20.6764  20.6860  20.7010  20.7011

     occupation numbers 
     1.0000   1.0000   1.0000   1.0000   1.0000   1.0000   1.0000   1.0000
     1.0000   1.0000   1.0000   1.0000   1.0000   1.0000   1.0000   1.0000
     1.0000   1.0000   1.0000   1.0000   1.0000   1.0000   1.0000   1.0000
     1.0000   1.0000   1.0000   1.0000   1.0000   1.0000   1.0000   1.0000
     1.0000   1.0000   1.0000   1.0000   1.0000   1.0000   1.0000   1.0000
     1.0000   1.0000   1.0000   1.0000   1.0000   1.0000   1.0000   1.0000
     1.0000   1.0000   1.0000   1.0000   1.0000   1.0000   1.0000   1.0000
     1.0000   1.0000   1.0000   1.0000   1.0000   1.0000   1.0000   1.0000
     1.0000   1.0000   1.0000   1.0000   1.0000   1.0000   1.0000   1.0000
     1.0000   1.0000   1.0000   1.0000   1.0000   1.0000   1.0000   1.0000
     1.0000   1.0000   1.0000   1.0000   1.0000   1.0000   1.0000   1.0000
     1.0000   1.0000   1.0000   1.0000   1.0000   1.0000   1.0000   1.0000
     1.0000   1.0000   1.0000   1.0000   1.0000   1.0000   1.0000   1.0000
     1.0000   1.0000   1.0000   1.0000   1.0000   1.0000   1.0000   1.0000
     1.0000   1.0000   1.0000   1.0000   1.0000   1.0000   1.0000   1.0000
     1.0000   1.0000   1.0000   1.0000   1.0000   1.0000   1.0000   1.0000
     1.0000   1.0000   1.0000   1.0000   1.0000   1.0000   1.0000   1.0000
     1.0000   1.0000   1.0000   1.0000   1.0000   1.0000   1.0000   1.0000
     1.0000   1.0000   1.0000   1.0000   1.0000   1.0000   1.0000   1.0000
     1.0000   1.0000   1.0000   1.0000   1.0000   1.0000   1.0000   1.0000
     1.0000   1.0000   1.0000   1.0000   1.0000   1.0000   1.0000   1.0000
     1.0000   1.0000   1.0000   1.0000   1.0000   1.0000   1.0000   1.0000
     1.0000   1.0000   1.0000   1.0000   1.0000   1.0000   1.0000   1.0000
     1.0000   1.0000   1.0000   1.0000   1.0000   1.0000   1.0000   1.0000
     1.0000   1.0000   1.0000   1.0000   1.0000   1.0000   1.0000   1.0000
     1.0000   1.0000   1.0000   1.0000   1.0000   1.0000   1.0000   1.0000
     1.0000   1.0000   1.0000   1.0000   1.0000   1.0000   1.0000   1.0000
     1.0000   1.0000   1.0000   1.0000   1.0000   1.0000   1.0000   1.0000
     1.0000   1.0000   1.0000   1.0000   1.0000   1.0000   1.0000   1.0000
     1.0000   1.0000   1.0000   1.0000   1.0000   1.0000   1.0000   1.0000
     1.0000   1.0000   1.0000   1.0000   1.0000   1.0000   1.0000   1.0000
     1.0000   1.0000   1.0000   1.0000   1.0000   1.0000   1.0000   1.0000
     1.0000   1.0000   1.0000   1.0000   1.0000   1.0000   1.0000   1.0000
     1.0000   1.0000   1.0000   1.0000   1.0000   1.0000   1.0000   1.0000
     1.0000   1.0000   1.0000   1.0000   1.0000   1.0000   1.0000   1.0000
     1.0000   1.0000   1.0000   1.0000   1.0000   1.0000   1.0000   1.0000
     1.0000   1.0000   1.0000   1.0000   1.0000   1.0000   1.0000   1.0000
     1.0000   1.0000   1.0000   1.0000   1.0000   1.0000   1.0000   1.0000
     1.0000   1.0000   1.0000   1.0000   1.0000   1.0000   1.0000   1.0000
     1.0000   1.0000   1.0000   1.0000   1.0000   1.0000   1.0000   1.0000
     1.0000   1.0000   1.0000   1.0000   1.0000   1.0000   1.0000   1.0000
     1.0000   1.0000   1.0000   1.0000   1.0000   1.0000   1.0000   1.0000
     1.0000   1.0000   1.0000   1.0000   1.0000   1.0000   1.0000   1.0000
     1.0000   1.0000   1.0000   1.0000   1.0000   1.0000   1.0000   1.0000
     1.0000   1.0000   1.0000   1.0000   1.0000   1.0000   1.0000   1.0000
     1.0000   1.0000   1.0000   1.0000   1.0000   1.0000   1.0000   1.0000
     1.0000   1.0000   1.0000   1.0000   1.0000   1.0000   1.0000   1.0000
     1.0000   1.0000   1.0000   1.0000   1.0000   1.0000   1.0000   1.0000
     1.0000   1.0000   1.0000   1.0000   1.0000   1.0000   1.0000   1.0000
     1.0000   1.0000   1.0000   1.0000   1.0000   1.0000   1.0000   1.0000
     1.0000   1.0000   1.0000   1.0000   1.0000   1.0000   1.0000   1.0000
     1.0000   1.0000   1.0000   1.0000   1.0000   1.0000   1.0000   1.0000
     1.0000   1.0000   1.0000   1.0000   1.0000   1.0000   1.0000   1.0000
     1.0000   1.0000   1.0000   1.0000   1.0000   0.8407   0.6204   0.6203
     0.0000   0.0000   0.0000   0.0000   0.0000   0.0000   0.0000   0.0000
     0.0000   0.0000   0.0000   0.0000   0.0000   0.0000   0.0000   0.0000
     0.0000   0.0000   0.0000   0.0000   0.0000   0.0000   0.0000   0.0000
     0.0000   0.0000   0.0000   0.0000   0.0000   0.0000   0.0000   0.0000
     0.0000   0.0000   0.0000   0.0000   0.0000   0.0000   0.0000   0.0000
     0.0000   0.0000   0.0000   0.0000   0.0000   0.0000   0.0000   0.0000
     0.0000   0.0000   0.0000   0.0000   0.0000   0.0000   0.0000   0.0000
     0.0000   0.0000   0.0000   0.0000   0.0000   0.0000   0.0000   0.0000
     0.0000   0.0000   0.0000   0.0000   0.0000   0.0000   0.0000   0.0000
     0.0000   0.0000   0.0000   0.0000   0.0000   0.0000   0.0000   0.0000
     0.0000   0.0000   0.0000   0.0000   0.0000

          k = 0.0000-0.5000-0.5000 ( 82212 PWs)   bands (ev):

    -8.2446  -8.1322  -8.1322  -7.8877  -7.2331  -7.2316  -7.1151  -7.1151
    -7.1066  -7.1066  -6.8589  -6.6968  -6.2021  -6.1869  -6.1869  -6.1534
    -6.0432  -5.9866  -5.9866  -5.8716  -5.2319  -5.2296  -5.2172  -5.2172
    -5.2102  -5.2102  -5.1865  -5.1670  -5.0527  -5.0460  -5.0120  -5.0120
    -4.9775  -4.9291  -4.9290  -4.6321  -4.2956  -4.2908  -4.1748  -4.1748
    -4.1705  -4.1673  -4.1673  -4.1517  -4.1516  -4.1365  -3.8503  -3.7483
    -3.4365  -3.4253  -3.3902  -3.3901  -3.2947  -3.2945  -3.2881  -3.1009
    -2.5910  -2.5793  -2.5695  -2.5695  -2.5564  -2.5564  -2.5249  -2.4913
    -2.4249  -2.4194  -2.3681  -2.3680  -2.3453  -2.3423  -2.3354  -2.3352
    -2.3086  -2.3086  -2.2321  -2.2007  -2.1709  -2.1582  -2.1581  -1.8937
    -1.6622  -1.6619  -1.6587  -1.6504  -1.5976  -1.5902  -1.5822  -1.5819
    -1.4939  -1.4688  -1.4686  -1.4543  -1.3103  -1.2396  -1.2393  -0.9625
    -0.8195  -0.8170  -0.8155  -0.8155  -0.7376  -0.6999  -0.6999  -0.0846
     0.1089   0.1092   0.1092   0.2374   0.4349   0.4350   0.4427   0.4506
     0.4836   0.4836   0.5359   0.5396   0.5682   0.5684   0.7286   0.9865
     1.2599   1.2682   1.2689   1.2689   1.2857   1.2858   1.3016   1.3108
     1.3204   1.3446   1.3446   1.3893   1.4157   1.4544   1.4544   1.5307
     1.6815   1.6819   1.6883   1.6899   1.6899   1.6932   1.7124   1.7125
     1.8391   1.8392   1.8418   1.8500   1.8769   1.8911   1.8939   1.8951
     1.9005   1.9007   1.9277   1.9280   2.1430   2.1431   2.2234   2.6226
     2.7220   2.7224   2.7225   2.7540   2.9130   3.0011   3.0013   3.5572
     3.7980   3.8051   3.8148   3.8148   3.8187   3.8187   3.8447   3.8508
     3.8544   3.8708   3.8945   3.8945   3.9338   3.9338   3.9479   3.9791
     3.9876   3.9895   3.9896   4.0012   4.0394   4.0593   4.0712   4.0712
     4.1208   4.1289   4.1640   4.1640   4.1954   4.2068   4.2068   4.2111
     4.3334   4.3334   4.5052   4.7160   4.7364   4.7954   4.7955   4.8362
     4.8689   4.8690   4.8719   4.8780   4.8859   4.8911   4.8912   4.9370
     5.0242   5.0304   5.0306   5.1035   5.1205   5.1976   5.1976   5.3099
     5.4165   5.4169   5.4305   5.8492   6.1031   6.1141   6.1154   6.1155
     6.1227   6.1284   6.1284   6.1385   6.1413   6.1567   6.1568   6.1619
     6.1655   6.1689   6.1691   6.1748   6.1824   6.2045   6.2047   6.2915
     6.2992   6.2993   6.3049   6.3396   6.3519   6.3520   6.3610   6.3824
     6.4059   6.4200   6.4200   6.5571   6.5817   6.5817   6.5951   6.6529
     6.7425   6.7426   6.7637   6.8373   6.9782   7.0138   7.0317   7.0317
     7.0431   7.0459   7.0488   7.0524   7.0525   7.0626   7.0659   7.0911
     7.0912   7.0990   7.1006   7.1006   7.1193   7.1195   7.1202   7.1445
     7.1690   7.1700   7.1701   7.1745   7.1747   7.1903   7.2376   7.2406
     7.2554   7.2652   7.2749   7.2750   7.3036   7.3058   7.3058   7.3297
     7.3346   7.3513   7.3514   7.5096   7.6638   7.6639   7.7676   7.8960
     7.9046   7.9137   7.9267   7.9577   7.9638   7.9838   7.9839   8.0050
     8.0052   8.1125   8.1279   8.1279   8.1426   8.1586   8.1641   8.1642
     8.2686   8.2686   8.2700   8.2812   8.3095   8.3096   8.3175   8.3285
     8.3339   8.3636   8.3637   8.3901   8.4696   8.4697   8.4984   8.5132
     8.5170   8.5170   8.5184   8.5225   8.5284   8.5905   8.5906   8.7007
     8.7008   8.7091   8.7545   8.8136   8.9826   9.0753   9.0789   9.0790
     9.1315   9.1744   9.1746   9.2711   9.4287   9.4288   9.5334   9.5345
     9.5778   9.5902   9.5995   9.5996   9.6611   9.6612   9.7738   9.7781
     9.8113   9.8234   9.8238   9.9122   9.9125   9.9299   9.9405   9.9736
     9.9736   9.9949  10.0071  10.0071  10.0158  10.0346  10.0399  10.0794
    10.1142  10.1150  10.1725  10.1725  10.2056  10.2057  10.2153  10.2993
    10.3755  10.3755  10.4078  10.4141  10.4495  10.4792  10.4854  10.4854
    10.4937  10.5839  10.5839  10.5870  10.9575  10.9654  11.0644  11.0645
    11.1474  11.1545  11.1732  11.1733  11.2158  11.2713  11.2715  11.3749
    12.3276  12.3277  12.4858  12.5028  12.7069  15.5309  15.6085  15.6086
    18.1396  18.1398  18.1519  18.1584  18.1585  18.1610  18.2032  18.2040
    18.2725  18.2726  18.2760  18.2870  18.3688  18.3689  18.3820  18.4224
    18.4374  18.4863  18.5096  18.5096  18.5315  18.5316  18.5596  18.6474
    18.6538  18.6540  18.8542  18.9141  18.9902  19.0107  19.1267  19.1267
    19.3265  19.3380  19.4251  19.4251  19.4628  19.4628  19.5779  19.5843
    19.5848  19.5884  19.5904  19.5909  19.5915  19.6018  19.7073  19.7075
    19.7109  19.7532  19.7536  19.7560  19.7713  19.7735  19.7840  19.7845
    19.8070  19.8348  19.8390  19.8398  19.8570  19.9334  19.9335  20.0133
    20.0428  20.1424  20.1427  20.1578  20.1579  20.1678  20.2245  20.4562
    20.4606  20.4627  20.4627  20.4759  20.4759  20.4815  20.5007  20.5018
    20.6107  20.6569  20.6570  20.6706  20.7553

     occupation numbers 
     1.0000   1.0000   1.0000   1.0000   1.0000   1.0000   1.0000   1.0000
     1.0000   1.0000   1.0000   1.0000   1.0000   1.0000   1.0000   1.0000
     1.0000   1.0000   1.0000   1.0000   1.0000   1.0000   1.0000   1.0000
     1.0000   1.0000   1.0000   1.0000   1.0000   1.0000   1.0000   1.0000
     1.0000   1.0000   1.0000   1.0000   1.0000   1.0000   1.0000   1.0000
     1.0000   1.0000   1.0000   1.0000   1.0000   1.0000   1.0000   1.0000
     1.0000   1.0000   1.0000   1.0000   1.0000   1.0000   1.0000   1.0000
     1.0000   1.0000   1.0000   1.0000   1.0000   1.0000   1.0000   1.0000
     1.0000   1.0000   1.0000   1.0000   1.0000   1.0000   1.0000   1.0000
     1.0000   1.0000   1.0000   1.0000   1.0000   1.0000   1.0000   1.0000
     1.0000   1.0000   1.0000   1.0000   1.0000   1.0000   1.0000   1.0000
     1.0000   1.0000   1.0000   1.0000   1.0000   1.0000   1.0000   1.0000
     1.0000   1.0000   1.0000   1.0000   1.0000   1.0000   1.0000   1.0000
     1.0000   1.0000   1.0000   1.0000   1.0000   1.0000   1.0000   1.0000
     1.0000   1.0000   1.0000   1.0000   1.0000   1.0000   1.0000   1.0000
     1.0000   1.0000   1.0000   1.0000   1.0000   1.0000   1.0000   1.0000
     1.0000   1.0000   1.0000   1.0000   1.0000   1.0000   1.0000   1.0000
     1.0000   1.0000   1.0000   1.0000   1.0000   1.0000   1.0000   1.0000
     1.0000   1.0000   1.0000   1.0000   1.0000   1.0000   1.0000   1.0000
     1.0000   1.0000   1.0000   1.0000   1.0000   1.0000   1.0000   1.0000
     1.0000   1.0000   1.0000   1.0000   1.0000   1.0000   1.0000   1.0000
     1.0000   1.0000   1.0000   1.0000   1.0000   1.0000   1.0000   1.0000
     1.0000   1.0000   1.0000   1.0000   1.0000   1.0000   1.0000   1.0000
     1.0000   1.0000   1.0000   1.0000   1.0000   1.0000   1.0000   1.0000
     1.0000   1.0000   1.0000   1.0000   1.0000   1.0000   1.0000   1.0000
     1.0000   1.0000   1.0000   1.0000   1.0000   1.0000   1.0000   1.0000
     1.0000   1.0000   1.0000   1.0000   1.0000   1.0000   1.0000   1.0000
     1.0000   1.0000   1.0000   1.0000   1.0000   1.0000   1.0000   1.0000
     1.0000   1.0000   1.0000   1.0000   1.0000   1.0000   1.0000   1.0000
     1.0000   1.0000   1.0000   1.0000   1.0000   1.0000   1.0000   1.0000
     1.0000   1.0000   1.0000   1.0000   1.0000   1.0000   1.0000   1.0000
     1.0000   1.0000   1.0000   1.0000   1.0000   1.0000   1.0000   1.0000
     1.0000   1.0000   1.0000   1.0000   1.0000   1.0000   1.0000   1.0000
     1.0000   1.0000   1.0000   1.0000   1.0000   1.0000   1.0000   1.0000
     1.0000   1.0000   1.0000   1.0000   1.0000   1.0000   1.0000   1.0000
     1.0000   1.0000   1.0000   1.0000   1.0000   1.0000   1.0000   1.0000
     1.0000   1.0000   1.0000   1.0000   1.0000   1.0000   1.0000   1.0000
     1.0000   1.0000   1.0000   1.0000   1.0000   1.0000   1.0000   1.0000
     1.0000   1.0000   1.0000   1.0000   1.0000   1.0000   1.0000   1.0000
     1.0000   1.0000   1.0000   1.0000   1.0000   1.0000   1.0000   1.0000
     1.0000   1.0000   1.0000   1.0000   1.0000   1.0000   1.0000   1.0000
     1.0000   1.0000   1.0000   1.0000   1.0000   1.0000   1.0000   1.0000
     1.0000   1.0000   1.0000   1.0000   1.0000   1.0000   1.0000   1.0000
     1.0000   1.0000   1.0000   1.0000   1.0000   1.0000   1.0000   1.0000
     1.0000   1.0000   1.0000   1.0000   1.0000   1.0000   1.0000   1.0000
     1.0000   1.0000   1.0000   1.0000   1.0000   1.0000   1.0000   1.0000
     1.0000   1.0000   1.0000   1.0000   1.0000   1.0000   1.0000   1.0000
     1.0000   1.0000   1.0000   1.0000   1.0000   1.0000   1.0000   1.0000
     1.0000   1.0000   1.0000   1.0000   1.0000   1.0000   1.0000   1.0000
     1.0000   1.0000   1.0000   1.0000   1.0000   1.0000   1.0000   1.0000
     1.0000   1.0000   1.0000   1.0000   1.0000   1.0000   1.0000   1.0000
     1.0000   1.0000   1.0000   1.0000   1.0000   1.0000   1.0000   1.0000
     1.0000   1.0000   1.0000   1.0000   1.0000   1.0000   1.0000   1.0000
     1.0000   1.0000   1.0000   1.0000   1.0000   0.8711   0.6272   0.6272
     0.0000   0.0000   0.0000   0.0000   0.0000   0.0000   0.0000   0.0000
     0.0000   0.0000   0.0000   0.0000   0.0000   0.0000   0.0000   0.0000
     0.0000   0.0000   0.0000   0.0000   0.0000   0.0000   0.0000   0.0000
     0.0000   0.0000   0.0000   0.0000   0.0000   0.0000   0.0000   0.0000
     0.0000   0.0000   0.0000   0.0000   0.0000   0.0000   0.0000   0.0000
     0.0000   0.0000   0.0000   0.0000   0.0000   0.0000   0.0000   0.0000
     0.0000   0.0000   0.0000   0.0000   0.0000   0.0000   0.0000   0.0000
     0.0000   0.0000   0.0000   0.0000   0.0000   0.0000   0.0000   0.0000
     0.0000   0.0000   0.0000   0.0000   0.0000   0.0000   0.0000   0.0000
     0.0000   0.0000   0.0000   0.0000   0.0000   0.0000   0.0000   0.0000
     0.0000   0.0000   0.0000   0.0000   0.0000

          k =-0.5000-0.5000-0.5000 ( 82136 PWs)   bands (ev):

    -8.0312  -7.9467  -7.9467  -7.9467  -7.7953  -7.7952  -7.7952  -7.3444
    -6.0024  -6.0024  -5.9974  -5.9974  -5.9974  -5.9618  -5.9076  -5.9076
    -5.9076  -5.8873  -5.8873  -5.8872  -5.8751  -5.8751  -5.8751  -5.8255
[...]
                               -0.04 -16128.20     -0.04
                                0.04     -0.04 -16128.20

     hubbard stress (kbar)      0.00      0.00      0.00
                                0.00      0.00      0.00
                                0.00      0.00      0.00

     DFT-D   stress (kbar)      0.00      0.00      0.00
                                0.00      0.00      0.00
                                0.00      0.00      0.00

     XDM     stress (kbar)      0.00      0.00      0.00
                                0.00      0.00      0.00
                                0.00      0.00      0.00

     dft-nl  stress (kbar)     24.85      0.00     -0.00
                                0.00     24.85      0.00
                               -0.00      0.00     24.85

     TS-vdW  stress (kbar)      0.00      0.00      0.00
                                0.00      0.00      0.00
                                0.00      0.00      0.00

     MDB     stress (kbar)      0.00      0.00      0.00
                                0.00      0.00      0.00
                                0.00      0.00      0.00

     3D-RISM stress (kbar)      0.00      0.00      0.00
                                0.00      0.00      0.00
                                0.00      0.00      0.00


     BFGS Geometry Optimization
     Energy error            =      0.0E+00 Ry
     Gradient error          =      5.5E-04 Ry/Bohr

     bfgs converged in   1 scf cycles and   0 bfgs steps
     (criteria: energy <  1.0E-04 Ry, force <  1.0E-03 Ry/Bohr)

     End of BFGS Geometry Optimization

     Final energy             =   -4080.7417595121 Ry
Begin final coordinates

ATOMIC_POSITIONS (angstrom)
C             0.8931596884        2.6791434646        4.4583231333
C             0.8930610886        2.6792420644        8.0447837706
C             0.8930610886        6.2444288359        0.8930610886
C             0.8910061049        6.2553147992        4.4692369255
C             0.8952126536        6.2553525023        8.0338601042
C             0.8931596884        9.8308894732        0.8931596884
C             0.8951232683        9.8200063584        4.4692062481
C             0.8910061049        9.8199756810        8.0338978073
C             4.4583231333        2.6791434646        0.8931596884
C             4.4692062481        2.6771798847        4.4692062481
C             4.4692369255        2.6812970481        8.0338978073
C             4.4692369255        6.2553147992        0.8910061049
C             4.4639215792        6.2500100447        4.4639215792
C             4.4645772400        6.2506754459        8.0385371606
C             4.4692062481        9.8200063584        0.8951232683
C             4.4645856697        9.8246269368        4.4645856697
C             4.4639215792        9.8252910273        8.0392025618
C             8.0447837706        2.6792420644        0.8930610886
C             8.0338978073        2.6812970481        4.4692369255
C             8.0338601042        2.6770904994        8.0338601042
C             8.0338601042        6.2553525023        0.8952126536
C             8.0385371606        6.2506754459        4.4645772400
C             8.0392006046        6.2500120019        8.0392006046
C             8.0338978073        9.8199756810        0.8910061049
C             8.0392025618        9.8252910273        4.4639215792
C             8.0385371606        9.8246353665        8.0385371606
C             0.0053768214        0.0107625352        1.7809077516
C             0.0005302584        0.0010703031        5.3570619712
C             0.0040692586       -0.0074854168        8.9234408601
C            -0.0624351735        3.6347383247        1.8486349373
C             0.0007252144        3.5715779368        5.3569408261
C             0.0053526829        3.5669504683        8.9414322573
C             0.0006980205        7.1430586078        1.7854675560
C             0.0013158279        7.1466267495        5.3604229044
C             0.0005581305        7.1432185655        8.9317761018
C             3.5798020787       -0.0074989275        1.7821162961
C             3.5715238978        0.0007792534        5.3588254515
C             3.5690722683        0.0032308829        8.9339265502
C             3.5615406160        3.5669263299        1.7809077516
C             3.5712328481        3.5717728928        5.3570619712
C             3.5797885680        3.5682338926        8.9234408601
C             3.5712498769        7.1431978267        1.7855852560
C             3.5717548064        7.1438102743        5.3576510747
C             3.5715307143        7.1449878978        8.9315244023
C             7.1460147779        0.0010532743        1.7855852560
C             7.1454023303        0.0005483448        5.3576510747
C             7.1442247068        0.0007724369        8.9315244023
C             7.1461539968        3.5716051307        1.7854675560
C             7.1425858551        3.5709873233        5.3604229044
C             7.1459940391        3.5717450207        8.9317761018
C             7.1425764917        7.1466361129        1.7848283611
C             7.1449524805        7.1442601241        5.3581010980
C             7.1454020405        7.1438105641        8.9312968320
C             0.9088104446        0.9050328220        2.6672703310
C             0.8931013455        0.8945961806        6.2515017800
C             0.8774176274        0.9052935999        9.8360220535
C             0.8774176274        4.4531905530        2.6670095531
C             0.8931189822        4.4639319788        6.2514934516
C             0.9088518355        4.4532900414        9.8359225651
C             0.8931013455        8.0377108265        2.6777069724
C             0.8930897199        8.0377209056        6.2514917009
C             0.8931189822        8.0377191549        9.8252806277
C             4.4654981318        0.8931757779        2.6791273751
C             4.4646191095        0.8934644169        6.2522824802
C             4.4590860324        0.8980708873        9.8286644154
C             4.4590860324        4.4605481911        2.6742322657
C             4.4645983804        4.4650929471        6.2506932729
C             4.4655237106        4.4653082176        9.8239043889
C             4.4646191095        8.0369301263        2.6788387361
C             4.4649591734        8.0377242925        6.2514883140
C             4.4645983804        8.0385193336        9.8241196594
C             8.0440299115        0.8979933137        2.6743098393
C             8.0385013093        0.8934362419        6.2507005368
C             8.0376529346        0.8931786662        9.8238646953
C             8.0376529346        4.4653479112        2.6791244868
C             8.0385073846        4.4650899000        6.2522760007
C             8.0440647319        4.4604984746        9.8287141319
C             8.0385013093        8.0385120697        2.6788669111
C             8.0381598245        8.0377211553        6.2514914512
C             8.0385073846        8.0369366058        9.8241227065
C            -0.0624351735        1.7236682157       -0.0624351735
C             0.0053768214        1.7913954014        3.5615406160
C             0.0006980205        1.7868355970        7.1461539968
C             0.0053526829        5.3477803493        0.0053526829
C             0.0040692586        5.3657717464        3.5797885680
C             0.0005581305        5.3574365047        7.1459940391
C             0.0007252144        8.9322717804        0.0007252144
C             0.0005302584        8.9321506353        3.5712328481
C             0.0013158279        8.9287897021        7.1425858551
C             3.5615406160        1.7913954014        0.0053768214
C             3.5798020787        1.7901868569        3.5798020787
C             3.5712498769        1.7867178970        7.1460147779
C             3.5797885680        5.3657717464        0.0040692586
C             3.5690722683        5.3552860563        3.5690722683
C             3.5715307143        5.3576882042        7.1442247068
C             3.5712328481        8.9321506353        0.0005302584
C             3.5715238978        8.9303871550        3.5715238978
C             3.5717548064        8.9315615318        7.1454023303
C             7.1461539968        1.7868355970        0.0006980205
C             7.1460147779        1.7867178970        3.5712498769
C             7.1425764917        1.7874747919        7.1425764917
C             7.1459940391        5.3574365047        0.0005581305
C             7.1442247068        5.3576882042        3.5715307143
C             7.1454020405        5.3579157745        7.1454020405
C             7.1425858551        8.9287897021        0.0013158279
C             7.1454023303        8.9315615318        3.5717548064
C             7.1449524805        8.9311115085        7.1449524805
C             2.6672703310        2.6634927084        2.6672703310
C             2.6777069724        2.6792018075        6.2515017800
C             2.6670095531        2.6948855256        9.8360220535
C             2.6743098393        6.2451826950        2.6743098393
C             2.6788669111        6.2507112972        6.2507005368
C             2.6791244868        6.2515596719        9.8238646953
C             2.6791273751        9.8237144747        2.6791273751
C             2.6788387361        9.8245934970        6.2522824802
C             2.6742322657        9.8301265741        9.8286644154
C             6.2515017800        2.6792018075        2.6777069724
C             6.2514917009        2.6792134331        6.2514917009
C             6.2514934516        2.6791841708        9.8252806277
C             6.2507005368        6.2507112972        2.6788669111
C             6.2514914512        6.2510527820        6.2514914512
C             6.2522760007        6.2507052219        9.8241227065
C             6.2522824802        9.8245934970        2.6788387361
C             6.2514883140        9.8242534332        6.2514883140
C             6.2506932729        9.8246142261        9.8241196594
C             9.8360220535        2.6948855256        2.6670095531
C             9.8252806277        2.6791841708        6.2514934516
C             9.8359225651        2.6634513175        9.8359225651
C             9.8238646953        6.2515596719        2.6791244868
C             9.8241227065        6.2507052219        6.2522760007
C             9.8287141319        6.2451478747        9.8287141319
C             9.8286644154        9.8301265741        2.6742322657
C             9.8241196594        9.8246142261        6.2506932729
C             9.8239043889        9.8236888959        9.8239043889
C             1.7809077516        0.0107625352        0.0053768214
C             1.7821162961       -0.0074989275        3.5798020787
C             1.7855852560        0.0010532743        7.1460147779
C             1.8486349373        3.6347383247       -0.0624351735
C             1.7809077516        3.5669263299        3.5615406160
C             1.7854675560        3.5716051307        7.1461539968
C             1.7854675560        7.1430586078        0.0006980205
C             1.7855852560        7.1431978267        3.5712498769
C             1.7848283611        7.1466361129        7.1425764917
C             5.3570619712        0.0010703031        0.0005302584
C             5.3588254515        0.0007792534        3.5715238978
C             5.3576510747        0.0005483448        7.1454023303
C             5.3569408261        3.5715779368        0.0007252144
C             5.3570619712        3.5717728928        3.5712328481
C             5.3604229044        3.5709873233        7.1425858551
C             5.3604229044        7.1466267495        0.0013158279
C             5.3576510747        7.1438102743        3.5717548064
C             5.3581010980        7.1442601241        7.1449524805
C             8.9234408601       -0.0074854168        0.0040692586
C             8.9339265502        0.0032308829        3.5690722683
C             8.9315244023        0.0007724369        7.1442247068
C             8.9414322573        3.5669504683        0.0053526829
C             8.9234408601        3.5682338926        3.5797885680
C             8.9317761018        3.5717450207        7.1459940391
C             8.9317761018        7.1432185655        0.0005581305
C             8.9315244023        7.1449878978        3.5715307143
C             8.9312968320        7.1438105641        7.1454020405
C             2.6672703310        0.9050328220        0.9088104446
C             2.6791273751        0.8931757779        4.4654981318
C             2.6743098393        0.8979933137        8.0440299115
C             2.6670095531        4.4531905530        0.8774176274
C             2.6742322657        4.4605481911        4.4590860324
C             2.6791244868        4.4653479112        8.0376529346
C             2.6777069724        8.0377108265        0.8931013455
C             2.6788387361        8.0369301263        4.4646191095
C             2.6788669111        8.0385120697        8.0385013093
C             6.2515017800        0.8945961806        0.8931013455
C             6.2522824802        0.8934644169        4.4646191095
C             6.2507005368        0.8934362419        8.0385013093
C             6.2514934516        4.4639319788        0.8931189822
C             6.2506932729        4.4650929471        4.4645983804
C             6.2522760007        4.4650899000        8.0385073846
C             6.2514917009        8.0377209056        0.8930897199
C             6.2514883140        8.0377242925        4.4649591734
C             6.2514914512        8.0377211553        8.0381598245
C             9.8360220535        0.9052935999        0.8774176274
C             9.8286644154        0.8980708873        4.4590860324
C             9.8238646953        0.8931786662        8.0376529346
C             9.8359225651        4.4532900414        0.9088518355
C             9.8239043889        4.4653082176        4.4655237106
C             9.8287141319        4.4604984746        8.0440647319
C             9.8252806277        8.0377191549        0.8931189822
C             9.8241196594        8.0385193336        4.4645983804
C             9.8241227065        8.0369366058        8.0385073846
C             1.8487053509        1.7235978021        1.8487053509
C             1.7854454737        1.7868576793        5.3568858937
C             1.7806905328        1.7916126202        8.9417026795
C             1.7806905328        5.3475099270        1.7806905328
C             1.7855628796        5.3574152296        5.3570354610
C             1.7820460184        5.3660091368        8.9232034697
C             1.7854454737        8.9323267128        1.7854454737
C             1.7847644476        8.9287307775        5.3604818290
C             1.7855628796        8.9321771455        8.9317973769
C             5.3568858937        1.7868576793        1.7854454737
C             5.3604818290        1.7875387054        5.3604818290
C             5.3570354610        1.7867402734        8.9317973769
C             5.3570354610        5.3574152296        1.7855628796
C             5.3576382551        5.3579048644        5.3576382551
C             5.3588284084        5.3576779529        8.9315346536
C             5.3604818290        8.9287307775        1.7847644476
C             5.3580914462        8.9311211603        5.3580914462
C             5.3576382551        8.9315743514        8.9313077421
C             8.9417026795        1.7916126202        1.7806905328
C             8.9317973769        1.7867402734        5.3570354610
C             8.9232034697        1.7902571346        8.9232034697
C             8.9232034697        5.3660091368        1.7820460184
C             8.9315346536        5.3576779529        5.3588284084
C             8.9340442691        5.3551683374        8.9340442691
C             8.9317973769        8.9321771455        1.7855628796
C             8.9313077421        8.9315743514        5.3576382551
C             8.9315346536        8.9303841981        8.9315346536
End final coordinates



     Writing all to output data dir ./diamond.save/
 
     init_run     :      6.09s CPU      6.47s WALL (       1 calls)
     electrons    :    360.35s CPU    366.65s WALL (       1 calls)
     forces       :      2.36s CPU      2.47s WALL (       1 calls)
     stress       :     29.30s CPU     29.58s WALL (       1 calls)

     Called by init_run:
     wfcinit      :      4.52s CPU      4.72s WALL (       1 calls)
     wfcinit:atom :      0.02s CPU      0.03s WALL (       1 calls)
     wfcinit:wfcr :      4.22s CPU      4.33s WALL (       1 calls)
     potinit      :      0.54s CPU      0.65s WALL (       1 calls)
     hinit0       :      0.48s CPU      0.52s WALL (       1 calls)

     Called by electrons:
     c_bands      :    350.28s CPU    356.29s WALL (       5 calls)
     sum_band     :      5.06s CPU      5.13s WALL (       5 calls)
     v_of_rho     :      1.57s CPU      1.65s WALL (       5 calls)
     v_h          :      0.02s CPU      0.02s WALL (       5 calls)
     v_xc         :      2.12s CPU      2.21s WALL (       7 calls)
     newd         :      0.31s CPU      0.32s WALL (       5 calls)
     PAW_pot      :      3.10s CPU      3.13s WALL (       5 calls)
     mix_rho      :      0.03s CPU      0.03s WALL (       5 calls)
     vdW_kernel   :      0.16s CPU      0.17s WALL (       1 calls)

     Called by c_bands:
     init_us_2    :      0.24s CPU      0.28s WALL (      11 calls)
     init_us_2:cp :      0.24s CPU      0.28s WALL (      11 calls)
     cegterg      :    315.44s CPU    318.39s WALL (       5 calls)

     Called by sum_band:
     sum_band:wei :      0.02s CPU      0.02s WALL (       5 calls)
     sum_band:loo :      3.46s CPU      3.51s WALL (       5 calls)
     sum_band:buf :      0.00s CPU      0.00s WALL (       5 calls)
     sum_band:ini :      0.19s CPU      0.20s WALL (       5 calls)
     sum_band:cal :      1.91s CPU      1.93s WALL (       5 calls)
     sum_band:bec :      0.04s CPU      0.04s WALL (       5 calls)
     addusdens    :      0.22s CPU      0.22s WALL (       5 calls)
     addusd:skk   :      0.05s CPU      0.05s WALL (       5 calls)
     addusd:dgemm :      0.07s CPU      0.07s WALL (       5 calls)
     addusd:qvan2 :      0.01s CPU      0.01s WALL (       5 calls)

     Called by *egterg:
     cdiaghg      :    243.76s CPU    245.20s WALL (      82 calls)
     cegterg:over :     14.63s CPU     15.02s WALL (      78 calls)
     cegterg:upda :      8.44s CPU      8.62s WALL (      78 calls)
     cegterg:last :      4.16s CPU      4.19s WALL (       7 calls)
     h_psi        :     32.89s CPU     33.47s WALL (      84 calls)
     s_psi        :      9.24s CPU      9.35s WALL (      84 calls)
     g_psi        :      0.03s CPU      0.03s WALL (      78 calls)

     Called by h_psi:
     h_psi:calbec :     10.33s CPU     10.44s WALL (      84 calls)
     vloc_psi     :     13.05s CPU     13.24s WALL (      84 calls)
     add_vuspsi   :      9.28s CPU      9.40s WALL (      84 calls)

     General routines
     calbec       :     14.16s CPU     14.31s WALL (      94 calls)
     fft          :      1.09s CPU      1.11s WALL (     483 calls)
     ffts         :      0.09s CPU      0.09s WALL (      10 calls)
     fftw         :     13.59s CPU     13.80s WALL (   28215 calls)
     interpolate  :      0.02s CPU      0.02s WALL (       5 calls)
 
     Parallel routines

     PAW routines
     PAW_pot      :      3.10s CPU      3.13s WALL (       5 calls)
     PAW_symme    :      0.02s CPU      0.02s WALL (       9 calls)
 
     PWSCF        :   6m39.21s CPU   6m49.99s WALL

 
   This run was terminated on:  11:38:17  19Feb2024            

=------------------------------------------------------------------------------=
   JOB DONE.
=------------------------------------------------------------------------------=
