
     Program PWSCF v.7.1 starts on 19Feb2024 at 16:32:19 

     This program is part of the open-source Quantum ESPRESSO suite
     for quantum simulation of materials; please cite
         "P. Giannozzi et al., J. Phys.:Condens. Matter 21 395502 (2009);
         "P. Giannozzi et al., J. Phys.:Condens. Matter 29 465901 (2017);
         "P. Giannozzi et al., J. Chem. Phys. 152 154105 (2020);
          URL http://www.quantum-espresso.org", 
     in publications or presentations arising from this work. More details at
     http://www.quantum-espresso.org/quote

     Parallel version (MPI & OpenMP), running on     256 processor cores
     Number of MPI processes:               256
     Threads/MPI process:                     1

     MPI processes distributed on     2 nodes
     1953701 MiB available memory on the printing compute node when the environment starts
 
     Reading input from espresso.pwi
Warning: card &CELL ignored
Warning: card    CELL_DYNAMICS    = 'BFGS' ignored
Warning: card / ignored

     Current dimensions of program PWSCF are:
     Max number of different atomic species (ntypx) = 10
     Max number of k-points (npk) =  40000
     Max angular momentum in pseudopotentials (lmaxx) =  4
     file C.pbe-n-kjpaw_psl.1.0.0.UPF: wavefunction(s)  2S 2P renormalized

     **************************************************************************
     Initializing libbeef V0.1.2 with the BEEF-vdW functional.
     Citation: Wellendorff et al., PRB 85, 235149 (2012).
     **************************************************************************


     IMPORTANT: XC functional enforced from input :
     Exchange-correlation= BEEF-VDW
                           (   1   4  43  14   2   0   0)
     Any further DFT definition will be discarded
     Please, verify this is what you really want

 
     K-points division:     npool     =       4
     R & G space division:  proc/nbgrp/npool/nimage =      64
     Subspace diagonalization in iterative solution of the eigenvalue problem:
     a serial algorithm will be used

 
     Parallelization info
     --------------------
     sticks:   dense  smooth     PW     G-vecs:    dense   smooth      PW
     Min         178     142     38                14350    10258    1410
     Max         179     143     39                14357    10265    1416
     Sum       11433    9133   2433               918657   656775   90447
 
     Using Slab Decomposition
 


     bravais-lattice index     =            1
     lattice parameter (alat)  =      20.2520  a.u.
     unit-cell volume          =    8306.2556 (a.u.)^3
     number of atoms/cell      =          215
     number of atomic types    =            1
     number of electrons       =       862.00
     number of Kohn-Sham states=          517
     kinetic-energy cutoff     =      70.0000  Ry
     charge density cutoff     =     350.0000  Ry
     scf convergence threshold =      1.0E-07
     mixing beta               =       0.7000
     number of iterations used =            8  plain     mixing
     Exchange-correlation= BEEF-VDW
                           (   1   4  43  14   2   0   0)

     celldm(1)=  20.252024  celldm(2)=   0.000000  celldm(3)=   0.000000
     celldm(4)=   0.000000  celldm(5)=   0.000000  celldm(6)=   0.000000

     crystal axes: (cart. coord. in units of alat)
               a(1) = (   1.000000   0.000000   0.000000 )  
               a(2) = (   0.000000   1.000000   0.000000 )  
               a(3) = (   0.000000   0.000000   1.000000 )  

     reciprocal axes: (cart. coord. in units 2 pi/alat)
               b(1) = (  1.000000  0.000000  0.000000 )  
               b(2) = (  0.000000  1.000000  0.000000 )  
               b(3) = (  0.000000  0.000000  1.000000 )  


     PseudoPot. # 1 for C  read from file:
     //group///packages/espresso/pseudo/psl_1.0.0/pslibrary.1.0.0/pbe/PSEUDOPOTENTIALS/C.pbe-n-kjpaw_psl.1.0.0.UPF
     MD5 check sum: 5459cf7f2c8c37df2f7cde8914797f4d
     Pseudo is Projector augmented-wave + core cor, Zval =  4.0
     Generated using 'atomic' code by A. Dal Corso  v.7.1
     Shape of augmentation charge: PSQ
     Using radial grid of 1073 points,  4 beta functions with: 
                l(1) =   0
                l(2) =   0
                l(3) =   1
                l(4) =   1
     Q(r) pseudized with 0 coefficients 


     atomic species   valence    mass     pseudopotential
        C              4.00    12.01100     C ( 1.00)

      6 Sym. Ops. (no inversion) found ( 4 have fractional translation)


                                    s                        frac. trans.

      isym =  1     identity                                     

 cryst.   s( 1) = (     1          0          0      )
                  (     0          1          0      )
                  (     0          0          1      )

 cart.    s( 1) = (  1.0000000  0.0000000  0.0000000 )
                  (  0.0000000  1.0000000  0.0000000 )
                  (  0.0000000  0.0000000  1.0000000 )


      isym =  2     120 deg rotation - cart. axis [1,-1,1]       

 cryst.   s( 2) = (     0          0          1      )    f =( -0.3333333 )
                  (    -1          0          0      )       ( -0.3333333 )
                  (     0         -1          0      )       (  0.0000000 )

 cart.    s( 2) = (  0.0000000 -1.0000000  0.0000000 )    f =( -0.3333333 )
                  (  0.0000000  0.0000000 -1.0000000 )       ( -0.3333333 )
                  (  1.0000000  0.0000000  0.0000000 )       (  0.0000000 )


      isym =  3     120 deg rotation - cart. axis [-1,1,-1]      

 cryst.   s( 3) = (     0         -1          0      )    f =(  0.0000000 )
                  (     0          0         -1      )       ( -0.3333333 )
                  (     1          0          0      )       ( -0.3333333 )

 cart.    s( 3) = (  0.0000000  0.0000000  1.0000000 )    f =(  0.0000000 )
                  ( -1.0000000  0.0000000  0.0000000 )       ( -0.3333333 )
                  (  0.0000000 -1.0000000  0.0000000 )       ( -0.3333333 )


      isym =  4     inv. 180 deg rotation - cart. axis [1,1,0]   

 cryst.   s( 4) = (     0         -1          0      )    f =( -0.3333333 )
                  (    -1          0          0      )       ( -0.3333333 )
                  (     0          0          1      )       (  0.0000000 )

 cart.    s( 4) = (  0.0000000 -1.0000000  0.0000000 )    f =( -0.3333333 )
                  ( -1.0000000  0.0000000  0.0000000 )       ( -0.3333333 )
                  (  0.0000000  0.0000000  1.0000000 )       (  0.0000000 )


      isym =  5     inv. 180 deg rotation - cart. axis [-1,0,1]  

 cryst.   s( 5) = (     0          0          1      )
                  (     0          1          0      )
                  (     1          0          0      )

 cart.    s( 5) = (  0.0000000  0.0000000  1.0000000 )
                  (  0.0000000  1.0000000  0.0000000 )
                  (  1.0000000  0.0000000  0.0000000 )


      isym =  6     inv. 180 deg rotation - cart. axis [0,1,1]   

 cryst.   s( 6) = (     1          0          0      )    f =(  0.0000000 )
                  (     0          0         -1      )       ( -0.3333333 )
                  (     0         -1          0      )       ( -0.3333333 )

 cart.    s( 6) = (  1.0000000  0.0000000  0.0000000 )    f =(  0.0000000 )
                  (  0.0000000  0.0000000 -1.0000000 )       ( -0.3333333 )
                  (  0.0000000 -1.0000000  0.0000000 )       ( -0.3333333 )


     point group C_3v (3m)  
     there are  3 classes
     the character table:

       E     2C3   3s_v 
A_1    1.00  1.00  1.00
A_2    1.00  1.00 -1.00
E      2.00 -1.00  0.00

     the symmetry operations in each class and the name of the first element:

     E        1
          identity                                               
     2C3      2    3
          120 deg rotation - cart. axis [1,-1,1]                 
     3s_v     4    5    6
          inv. 180 deg rotation - cart. axis [1,1,0]             

   Cartesian axes

     site n.     atom                  positions (alat units)
         1           C   tau(   1) = (   0.0833353   0.2499980   0.4166687  )
         2           C   tau(   2) = (   0.0833353   0.2499980   0.7500020  )
         3           C   tau(   3) = (   0.0833353   0.5833313   0.0833353  )
         4           C   tau(   4) = (   0.0833353   0.5833313   0.4166687  )
         5           C   tau(   5) = (   0.0833353   0.5833313   0.7500020  )
         6           C   tau(   6) = (   0.0833353   0.9166647   0.0833353  )
         7           C   tau(   7) = (   0.0833353   0.9166647   0.4166687  )
         8           C   tau(   8) = (   0.0833353   0.9166647   0.7500020  )
         9           C   tau(   9) = (   0.4166687   0.2499980   0.0833353  )
        10           C   tau(  10) = (   0.4166687   0.2499980   0.4166687  )
        11           C   tau(  11) = (   0.4166687   0.2499980   0.7500020  )
        12           C   tau(  12) = (   0.4166687   0.5833313   0.0833353  )
        13           C   tau(  13) = (   0.4166687   0.5833313   0.4166687  )
        14           C   tau(  14) = (   0.4166687   0.5833313   0.7500020  )
        15           C   tau(  15) = (   0.4166687   0.9166647   0.0833353  )
        16           C   tau(  16) = (   0.4166687   0.9166647   0.4166687  )
        17           C   tau(  17) = (   0.4166687   0.9166647   0.7500020  )
        18           C   tau(  18) = (   0.7500020   0.2499980   0.0833353  )
        19           C   tau(  19) = (   0.7500020   0.2499980   0.4166687  )
        20           C   tau(  20) = (   0.7500020   0.2499980   0.7500020  )
        21           C   tau(  21) = (   0.7500020   0.5833313   0.0833353  )
        22           C   tau(  22) = (   0.7500020   0.5833313   0.4166687  )
        23           C   tau(  23) = (   0.7500020   0.5833313   0.7500020  )
        24           C   tau(  24) = (   0.7500020   0.9166647   0.0833353  )
        25           C   tau(  25) = (   0.7500020   0.9166647   0.4166687  )
        26           C   tau(  26) = (   0.7500020   0.9166647   0.7500020  )
        27           C   tau(  27) = (   0.0000000   0.0000000   0.1666667  )
        28           C   tau(  28) = (   0.0000000   0.0000000   0.5000000  )
        29           C   tau(  29) = (   0.0000000   0.0000000   0.8333333  )
        30           C   tau(  30) = (   0.0000000   0.3333333   0.1666667  )
        31           C   tau(  31) = (   0.0000000   0.3333333   0.5000000  )
        32           C   tau(  32) = (   0.0000000   0.3333333   0.8333333  )
        33           C   tau(  33) = (   0.0000000   0.6666667   0.1666667  )
        34           C   tau(  34) = (   0.0000000   0.6666667   0.5000000  )
        35           C   tau(  35) = (   0.0000000   0.6666667   0.8333333  )
        36           C   tau(  36) = (   0.3333333   0.0000000   0.1666667  )
        37           C   tau(  37) = (   0.3333333   0.0000000   0.5000000  )
        38           C   tau(  38) = (   0.3333333   0.0000000   0.8333333  )
        39           C   tau(  39) = (   0.3333333   0.3333333   0.1666667  )
        40           C   tau(  40) = (   0.3333333   0.3333333   0.5000000  )
        41           C   tau(  41) = (   0.3333333   0.3333333   0.8333333  )
        42           C   tau(  42) = (   0.3333333   0.6666667   0.1666667  )
        43           C   tau(  43) = (   0.3333333   0.6666667   0.5000000  )
        44           C   tau(  44) = (   0.3333333   0.6666667   0.8333333  )
        45           C   tau(  45) = (   0.6666667   0.0000000   0.1666667  )
        46           C   tau(  46) = (   0.6666667   0.0000000   0.5000000  )
        47           C   tau(  47) = (   0.6666667   0.0000000   0.8333333  )
        48           C   tau(  48) = (   0.6666667   0.3333333   0.1666667  )
        49           C   tau(  49) = (   0.6666667   0.3333333   0.5000000  )
        50           C   tau(  50) = (   0.6666667   0.3333333   0.8333333  )
        51           C   tau(  51) = (   0.6666667   0.6666667   0.1666667  )
        52           C   tau(  52) = (   0.6666667   0.6666667   0.5000000  )
        53           C   tau(  53) = (   0.6666667   0.6666667   0.8333333  )
        54           C   tau(  54) = (   0.0833353   0.0833353   0.2499980  )
        55           C   tau(  55) = (   0.0833353   0.0833353   0.5833313  )
        56           C   tau(  56) = (   0.0833353   0.0833353   0.9166647  )
        57           C   tau(  57) = (   0.0833353   0.4166687   0.2499980  )
        58           C   tau(  58) = (   0.0833353   0.4166687   0.5833313  )
        59           C   tau(  59) = (   0.0833353   0.4166687   0.9166647  )
        60           C   tau(  60) = (   0.0833353   0.7500020   0.2499980  )
        61           C   tau(  61) = (   0.0833353   0.7500020   0.5833313  )
        62           C   tau(  62) = (   0.0833353   0.7500020   0.9166647  )
        63           C   tau(  63) = (   0.4166687   0.0833353   0.2499980  )
        64           C   tau(  64) = (   0.4166687   0.0833353   0.5833313  )
        65           C   tau(  65) = (   0.4166687   0.0833353   0.9166647  )
        66           C   tau(  66) = (   0.4166687   0.4166687   0.2499980  )
        67           C   tau(  67) = (   0.4166687   0.4166687   0.5833313  )
        68           C   tau(  68) = (   0.4166687   0.4166687   0.9166647  )
        69           C   tau(  69) = (   0.4166687   0.7500020   0.2499980  )
        70           C   tau(  70) = (   0.4166687   0.7500020   0.5833313  )
        71           C   tau(  71) = (   0.4166687   0.7500020   0.9166647  )
        72           C   tau(  72) = (   0.7500020   0.0833353   0.2499980  )
        73           C   tau(  73) = (   0.7500020   0.0833353   0.5833313  )
        74           C   tau(  74) = (   0.7500020   0.0833353   0.9166647  )
        75           C   tau(  75) = (   0.7500020   0.4166687   0.2499980  )
        76           C   tau(  76) = (   0.7500020   0.4166687   0.5833313  )
        77           C   tau(  77) = (   0.7500020   0.4166687   0.9166647  )
        78           C   tau(  78) = (   0.7500020   0.7500020   0.2499980  )
        79           C   tau(  79) = (   0.7500020   0.7500020   0.5833313  )
        80           C   tau(  80) = (   0.7500020   0.7500020   0.9166647  )
        81           C   tau(  81) = (   0.0000000   0.1666667   0.0000000  )
        82           C   tau(  82) = (   0.0000000   0.1666667   0.3333333  )
        83           C   tau(  83) = (   0.0000000   0.1666667   0.6666667  )
        84           C   tau(  84) = (   0.0000000   0.5000000   0.0000000  )
        85           C   tau(  85) = (   0.0000000   0.5000000   0.3333333  )
        86           C   tau(  86) = (   0.0000000   0.5000000   0.6666667  )
        87           C   tau(  87) = (   0.0000000   0.8333333   0.0000000  )
        88           C   tau(  88) = (   0.0000000   0.8333333   0.3333333  )
        89           C   tau(  89) = (   0.0000000   0.8333333   0.6666667  )
        90           C   tau(  90) = (   0.3333333   0.1666667   0.0000000  )
        91           C   tau(  91) = (   0.3333333   0.1666667   0.3333333  )
        92           C   tau(  92) = (   0.3333333   0.1666667   0.6666667  )
        93           C   tau(  93) = (   0.3333333   0.5000000   0.0000000  )
        94           C   tau(  94) = (   0.3333333   0.5000000   0.3333333  )
        95           C   tau(  95) = (   0.3333333   0.5000000   0.6666667  )
        96           C   tau(  96) = (   0.3333333   0.8333333   0.0000000  )
        97           C   tau(  97) = (   0.3333333   0.8333333   0.3333333  )
        98           C   tau(  98) = (   0.3333333   0.8333333   0.6666667  )
        99           C   tau(  99) = (   0.6666667   0.1666667   0.0000000  )
       100           C   tau( 100) = (   0.6666667   0.1666667   0.3333333  )
       101           C   tau( 101) = (   0.6666667   0.1666667   0.6666667  )
       102           C   tau( 102) = (   0.6666667   0.5000000   0.0000000  )
       103           C   tau( 103) = (   0.6666667   0.5000000   0.3333333  )
       104           C   tau( 104) = (   0.6666667   0.5000000   0.6666667  )
       105           C   tau( 105) = (   0.6666667   0.8333333   0.0000000  )
       106           C   tau( 106) = (   0.6666667   0.8333333   0.3333333  )
       107           C   tau( 107) = (   0.6666667   0.8333333   0.6666667  )
       108           C   tau( 108) = (   0.2499980   0.2499980   0.2499980  )
       109           C   tau( 109) = (   0.2499980   0.2499980   0.5833313  )
       110           C   tau( 110) = (   0.2499980   0.2499980   0.9166647  )
       111           C   tau( 111) = (   0.2499980   0.5833313   0.2499980  )
       112           C   tau( 112) = (   0.2499980   0.5833313   0.5833313  )
       113           C   tau( 113) = (   0.2499980   0.5833313   0.9166647  )
       114           C   tau( 114) = (   0.2499980   0.9166647   0.2499980  )
       115           C   tau( 115) = (   0.2499980   0.9166647   0.5833313  )
       116           C   tau( 116) = (   0.2499980   0.9166647   0.9166647  )
       117           C   tau( 117) = (   0.5833313   0.2499980   0.2499980  )
       118           C   tau( 118) = (   0.5833313   0.2499980   0.5833313  )
       119           C   tau( 119) = (   0.5833313   0.2499980   0.9166647  )
       120           C   tau( 120) = (   0.5833313   0.5833313   0.2499980  )
       121           C   tau( 121) = (   0.5833313   0.5833313   0.5833313  )
       122           C   tau( 122) = (   0.5833313   0.5833313   0.9166647  )
       123           C   tau( 123) = (   0.5833313   0.9166647   0.2499980  )
       124           C   tau( 124) = (   0.5833313   0.9166647   0.5833313  )
       125           C   tau( 125) = (   0.5833313   0.9166647   0.9166647  )
       126           C   tau( 126) = (   0.9166647   0.2499980   0.2499980  )
       127           C   tau( 127) = (   0.9166647   0.2499980   0.5833313  )
       128           C   tau( 128) = (   0.9166647   0.2499980   0.9166647  )
       129           C   tau( 129) = (   0.9166647   0.5833313   0.2499980  )
       130           C   tau( 130) = (   0.9166647   0.5833313   0.5833313  )
       131           C   tau( 131) = (   0.9166647   0.5833313   0.9166647  )
       132           C   tau( 132) = (   0.9166647   0.9166647   0.2499980  )
       133           C   tau( 133) = (   0.9166647   0.9166647   0.5833313  )
       134           C   tau( 134) = (   0.9166647   0.9166647   0.9166647  )
       135           C   tau( 135) = (   0.1666667   0.0000000   0.0000000  )
       136           C   tau( 136) = (   0.1666667   0.0000000   0.3333333  )
       137           C   tau( 137) = (   0.1666667   0.0000000   0.6666667  )
       138           C   tau( 138) = (   0.1666667   0.3333333   0.0000000  )
       139           C   tau( 139) = (   0.1666667   0.3333333   0.3333333  )
       140           C   tau( 140) = (   0.1666667   0.3333333   0.6666667  )
       141           C   tau( 141) = (   0.1666667   0.6666667   0.0000000  )
       142           C   tau( 142) = (   0.1666667   0.6666667   0.3333333  )
       143           C   tau( 143) = (   0.1666667   0.6666667   0.6666667  )
       144           C   tau( 144) = (   0.5000000   0.0000000   0.0000000  )
       145           C   tau( 145) = (   0.5000000   0.0000000   0.3333333  )
       146           C   tau( 146) = (   0.5000000   0.0000000   0.6666667  )
       147           C   tau( 147) = (   0.5000000   0.3333333   0.0000000  )
       148           C   tau( 148) = (   0.5000000   0.3333333   0.3333333  )
       149           C   tau( 149) = (   0.5000000   0.3333333   0.6666667  )
       150           C   tau( 150) = (   0.5000000   0.6666667   0.0000000  )
       151           C   tau( 151) = (   0.5000000   0.6666667   0.3333333  )
       152           C   tau( 152) = (   0.5000000   0.6666667   0.6666667  )
       153           C   tau( 153) = (   0.8333333   0.0000000   0.0000000  )
       154           C   tau( 154) = (   0.8333333   0.0000000   0.3333333  )
       155           C   tau( 155) = (   0.8333333   0.0000000   0.6666667  )
       156           C   tau( 156) = (   0.8333333   0.3333333   0.0000000  )
       157           C   tau( 157) = (   0.8333333   0.3333333   0.3333333  )
       158           C   tau( 158) = (   0.8333333   0.3333333   0.6666667  )
       159           C   tau( 159) = (   0.8333333   0.6666667   0.0000000  )
       160           C   tau( 160) = (   0.8333333   0.6666667   0.3333333  )
       161           C   tau( 161) = (   0.8333333   0.6666667   0.6666667  )
       162           C   tau( 162) = (   0.2499980   0.0833353   0.0833353  )
       163           C   tau( 163) = (   0.2499980   0.0833353   0.4166687  )
       164           C   tau( 164) = (   0.2499980   0.0833353   0.7500020  )
       165           C   tau( 165) = (   0.2499980   0.4166687   0.0833353  )
       166           C   tau( 166) = (   0.2499980   0.4166687   0.4166687  )
       167           C   tau( 167) = (   0.2499980   0.4166687   0.7500020  )
       168           C   tau( 168) = (   0.2499980   0.7500020   0.0833353  )
       169           C   tau( 169) = (   0.2499980   0.7500020   0.4166687  )
       170           C   tau( 170) = (   0.2499980   0.7500020   0.7500020  )
       171           C   tau( 171) = (   0.5833313   0.0833353   0.0833353  )
       172           C   tau( 172) = (   0.5833313   0.0833353   0.4166687  )
       173           C   tau( 173) = (   0.5833313   0.0833353   0.7500020  )
       174           C   tau( 174) = (   0.5833313   0.4166687   0.0833353  )
       175           C   tau( 175) = (   0.5833313   0.4166687   0.4166687  )
       176           C   tau( 176) = (   0.5833313   0.4166687   0.7500020  )
       177           C   tau( 177) = (   0.5833313   0.7500020   0.0833353  )
       178           C   tau( 178) = (   0.5833313   0.7500020   0.4166687  )
       179           C   tau( 179) = (   0.5833313   0.7500020   0.7500020  )
       180           C   tau( 180) = (   0.9166647   0.0833353   0.0833353  )
       181           C   tau( 181) = (   0.9166647   0.0833353   0.4166687  )
       182           C   tau( 182) = (   0.9166647   0.0833353   0.7500020  )
       183           C   tau( 183) = (   0.9166647   0.4166687   0.0833353  )
       184           C   tau( 184) = (   0.9166647   0.4166687   0.4166687  )
       185           C   tau( 185) = (   0.9166647   0.4166687   0.7500020  )
       186           C   tau( 186) = (   0.9166647   0.7500020   0.0833353  )
       187           C   tau( 187) = (   0.9166647   0.7500020   0.4166687  )
       188           C   tau( 188) = (   0.9166647   0.7500020   0.7500020  )
       189           C   tau( 189) = (   0.1666667   0.1666667   0.1666667  )
       190           C   tau( 190) = (   0.1666667   0.1666667   0.5000000  )
       191           C   tau( 191) = (   0.1666667   0.1666667   0.8333333  )
       192           C   tau( 192) = (   0.1666667   0.5000000   0.1666667  )
       193           C   tau( 193) = (   0.1666667   0.5000000   0.5000000  )
       194           C   tau( 194) = (   0.1666667   0.5000000   0.8333333  )
       195           C   tau( 195) = (   0.1666667   0.8333333   0.1666667  )
       196           C   tau( 196) = (   0.1666667   0.8333333   0.5000000  )
       197           C   tau( 197) = (   0.1666667   0.8333333   0.8333333  )
       198           C   tau( 198) = (   0.5000000   0.1666667   0.1666667  )
       199           C   tau( 199) = (   0.5000000   0.1666667   0.5000000  )
       200           C   tau( 200) = (   0.5000000   0.1666667   0.8333333  )
       201           C   tau( 201) = (   0.5000000   0.5000000   0.1666667  )
       202           C   tau( 202) = (   0.5000000   0.5000000   0.5000000  )
       203           C   tau( 203) = (   0.5000000   0.5000000   0.8333333  )
       204           C   tau( 204) = (   0.5000000   0.8333333   0.1666667  )
       205           C   tau( 205) = (   0.5000000   0.8333333   0.5000000  )
       206           C   tau( 206) = (   0.5000000   0.8333333   0.8333333  )
       207           C   tau( 207) = (   0.8333333   0.1666667   0.1666667  )
       208           C   tau( 208) = (   0.8333333   0.1666667   0.5000000  )
       209           C   tau( 209) = (   0.8333333   0.1666667   0.8333333  )
       210           C   tau( 210) = (   0.8333333   0.5000000   0.1666667  )
       211           C   tau( 211) = (   0.8333333   0.5000000   0.5000000  )
       212           C   tau( 212) = (   0.8333333   0.5000000   0.8333333  )
       213           C   tau( 213) = (   0.8333333   0.8333333   0.1666667  )
       214           C   tau( 214) = (   0.8333333   0.8333333   0.5000000  )
       215           C   tau( 215) = (   0.8333333   0.8333333   0.8333333  )

   Crystallographic axes

     site n.     atom                  positions (cryst. coord.)
         1           C   tau(   1) = (  0.0833353  0.2499980  0.4166687  )
         2           C   tau(   2) = (  0.0833353  0.2499980  0.7500020  )
         3           C   tau(   3) = (  0.0833353  0.5833313  0.0833353  )
         4           C   tau(   4) = (  0.0833353  0.5833313  0.4166687  )
         5           C   tau(   5) = (  0.0833353  0.5833313  0.7500020  )
         6           C   tau(   6) = (  0.0833353  0.9166647  0.0833353  )
         7           C   tau(   7) = (  0.0833353  0.9166647  0.4166687  )
         8           C   tau(   8) = (  0.0833353  0.9166647  0.7500020  )
         9           C   tau(   9) = (  0.4166687  0.2499980  0.0833353  )
        10           C   tau(  10) = (  0.4166687  0.2499980  0.4166687  )
        11           C   tau(  11) = (  0.4166687  0.2499980  0.7500020  )
        12           C   tau(  12) = (  0.4166687  0.5833313  0.0833353  )
        13           C   tau(  13) = (  0.4166687  0.5833313  0.4166687  )
        14           C   tau(  14) = (  0.4166687  0.5833313  0.7500020  )
        15           C   tau(  15) = (  0.4166687  0.9166647  0.0833353  )
        16           C   tau(  16) = (  0.4166687  0.9166647  0.4166687  )
        17           C   tau(  17) = (  0.4166687  0.9166647  0.7500020  )
        18           C   tau(  18) = (  0.7500020  0.2499980  0.0833353  )
        19           C   tau(  19) = (  0.7500020  0.2499980  0.4166687  )
        20           C   tau(  20) = (  0.7500020  0.2499980  0.7500020  )
        21           C   tau(  21) = (  0.7500020  0.5833313  0.0833353  )
        22           C   tau(  22) = (  0.7500020  0.5833313  0.4166687  )
        23           C   tau(  23) = (  0.7500020  0.5833313  0.7500020  )
        24           C   tau(  24) = (  0.7500020  0.9166647  0.0833353  )
        25           C   tau(  25) = (  0.7500020  0.9166647  0.4166687  )
        26           C   tau(  26) = (  0.7500020  0.9166647  0.7500020  )
        27           C   tau(  27) = (  0.0000000  0.0000000  0.1666667  )
        28           C   tau(  28) = (  0.0000000  0.0000000  0.5000000  )
        29           C   tau(  29) = (  0.0000000  0.0000000  0.8333333  )
        30           C   tau(  30) = (  0.0000000  0.3333333  0.1666667  )
        31           C   tau(  31) = (  0.0000000  0.3333333  0.5000000  )
        32           C   tau(  32) = (  0.0000000  0.3333333  0.8333333  )
        33           C   tau(  33) = (  0.0000000  0.6666667  0.1666667  )
        34           C   tau(  34) = (  0.0000000  0.6666667  0.5000000  )
        35           C   tau(  35) = (  0.0000000  0.6666667  0.8333333  )
        36           C   tau(  36) = (  0.3333333  0.0000000  0.1666667  )
        37           C   tau(  37) = (  0.3333333  0.0000000  0.5000000  )
        38           C   tau(  38) = (  0.3333333  0.0000000  0.8333333  )
        39           C   tau(  39) = (  0.3333333  0.3333333  0.1666667  )
        40           C   tau(  40) = (  0.3333333  0.3333333  0.5000000  )
        41           C   tau(  41) = (  0.3333333  0.3333333  0.8333333  )
        42           C   tau(  42) = (  0.3333333  0.6666667  0.1666667  )
        43           C   tau(  43) = (  0.3333333  0.6666667  0.5000000  )
        44           C   tau(  44) = (  0.3333333  0.6666667  0.8333333  )
        45           C   tau(  45) = (  0.6666667  0.0000000  0.1666667  )
        46           C   tau(  46) = (  0.6666667  0.0000000  0.5000000  )
        47           C   tau(  47) = (  0.6666667  0.0000000  0.8333333  )
        48           C   tau(  48) = (  0.6666667  0.3333333  0.1666667  )
        49           C   tau(  49) = (  0.6666667  0.3333333  0.5000000  )
        50           C   tau(  50) = (  0.6666667  0.3333333  0.8333333  )
        51           C   tau(  51) = (  0.6666667  0.6666667  0.1666667  )
        52           C   tau(  52) = (  0.6666667  0.6666667  0.5000000  )
        53           C   tau(  53) = (  0.6666667  0.6666667  0.8333333  )
        54           C   tau(  54) = (  0.0833353  0.0833353  0.2499980  )
        55           C   tau(  55) = (  0.0833353  0.0833353  0.5833313  )
        56           C   tau(  56) = (  0.0833353  0.0833353  0.9166647  )
        57           C   tau(  57) = (  0.0833353  0.4166687  0.2499980  )
        58           C   tau(  58) = (  0.0833353  0.4166687  0.5833313  )
        59           C   tau(  59) = (  0.0833353  0.4166687  0.9166647  )
        60           C   tau(  60) = (  0.0833353  0.7500020  0.2499980  )
        61           C   tau(  61) = (  0.0833353  0.7500020  0.5833313  )
        62           C   tau(  62) = (  0.0833353  0.7500020  0.9166647  )
        63           C   tau(  63) = (  0.4166687  0.0833353  0.2499980  )
        64           C   tau(  64) = (  0.4166687  0.0833353  0.5833313  )
        65           C   tau(  65) = (  0.4166687  0.0833353  0.9166647  )
        66           C   tau(  66) = (  0.4166687  0.4166687  0.2499980  )
        67           C   tau(  67) = (  0.4166687  0.4166687  0.5833313  )
        68           C   tau(  68) = (  0.4166687  0.4166687  0.9166647  )
        69           C   tau(  69) = (  0.4166687  0.7500020  0.2499980  )
        70           C   tau(  70) = (  0.4166687  0.7500020  0.5833313  )
        71           C   tau(  71) = (  0.4166687  0.7500020  0.9166647  )
        72           C   tau(  72) = (  0.7500020  0.0833353  0.2499980  )
        73           C   tau(  73) = (  0.7500020  0.0833353  0.5833313  )
        74           C   tau(  74) = (  0.7500020  0.0833353  0.9166647  )
        75           C   tau(  75) = (  0.7500020  0.4166687  0.2499980  )
        76           C   tau(  76) = (  0.7500020  0.4166687  0.5833313  )
        77           C   tau(  77) = (  0.7500020  0.4166687  0.9166647  )
        78           C   tau(  78) = (  0.7500020  0.7500020  0.2499980  )
        79           C   tau(  79) = (  0.7500020  0.7500020  0.5833313  )
        80           C   tau(  80) = (  0.7500020  0.7500020  0.9166647  )
        81           C   tau(  81) = (  0.0000000  0.1666667  0.0000000  )
        82           C   tau(  82) = (  0.0000000  0.1666667  0.3333333  )
        83           C   tau(  83) = (  0.0000000  0.1666667  0.6666667  )
        84           C   tau(  84) = (  0.0000000  0.5000000  0.0000000  )
        85           C   tau(  85) = (  0.0000000  0.5000000  0.3333333  )
        86           C   tau(  86) = (  0.0000000  0.5000000  0.6666667  )
        87           C   tau(  87) = (  0.0000000  0.8333333  0.0000000  )
        88           C   tau(  88) = (  0.0000000  0.8333333  0.3333333  )
        89           C   tau(  89) = (  0.0000000  0.8333333  0.6666667  )
        90           C   tau(  90) = (  0.3333333  0.1666667  0.0000000  )
        91           C   tau(  91) = (  0.3333333  0.1666667  0.3333333  )
        92           C   tau(  92) = (  0.3333333  0.1666667  0.6666667  )
        93           C   tau(  93) = (  0.3333333  0.5000000  0.0000000  )
        94           C   tau(  94) = (  0.3333333  0.5000000  0.3333333  )
        95           C   tau(  95) = (  0.3333333  0.5000000  0.6666667  )
        96           C   tau(  96) = (  0.3333333  0.8333333  0.0000000  )
        97           C   tau(  97) = (  0.3333333  0.8333333  0.3333333  )
        98           C   tau(  98) = (  0.3333333  0.8333333  0.6666667  )
        99           C   tau(  99) = (  0.6666667  0.1666667  0.0000000  )
       100           C   tau( 100) = (  0.6666667  0.1666667  0.3333333  )
       101           C   tau( 101) = (  0.6666667  0.1666667  0.6666667  )
       102           C   tau( 102) = (  0.6666667  0.5000000  0.0000000  )
       103           C   tau( 103) = (  0.6666667  0.5000000  0.3333333  )
       104           C   tau( 104) = (  0.6666667  0.5000000  0.6666667  )
       105           C   tau( 105) = (  0.6666667  0.8333333  0.0000000  )
       106           C   tau( 106) = (  0.6666667  0.8333333  0.3333333  )
       107           C   tau( 107) = (  0.6666667  0.8333333  0.6666667  )
       108           C   tau( 108) = (  0.2499980  0.2499980  0.2499980  )
       109           C   tau( 109) = (  0.2499980  0.2499980  0.5833313  )
       110           C   tau( 110) = (  0.2499980  0.2499980  0.9166647  )
       111           C   tau( 111) = (  0.2499980  0.5833313  0.2499980  )
       112           C   tau( 112) = (  0.2499980  0.5833313  0.5833313  )
       113           C   tau( 113) = (  0.2499980  0.5833313  0.9166647  )
       114           C   tau( 114) = (  0.2499980  0.9166647  0.2499980  )
       115           C   tau( 115) = (  0.2499980  0.9166647  0.5833313  )
       116           C   tau( 116) = (  0.2499980  0.9166647  0.9166647  )
       117           C   tau( 117) = (  0.5833313  0.2499980  0.2499980  )
       118           C   tau( 118) = (  0.5833313  0.2499980  0.5833313  )
       119           C   tau( 119) = (  0.5833313  0.2499980  0.9166647  )
       120           C   tau( 120) = (  0.5833313  0.5833313  0.2499980  )
       121           C   tau( 121) = (  0.5833313  0.5833313  0.5833313  )
       122           C   tau( 122) = (  0.5833313  0.5833313  0.9166647  )
       123           C   tau( 123) = (  0.5833313  0.9166647  0.2499980  )
       124           C   tau( 124) = (  0.5833313  0.9166647  0.5833313  )
       125           C   tau( 125) = (  0.5833313  0.9166647  0.9166647  )
       126           C   tau( 126) = (  0.9166647  0.2499980  0.2499980  )
       127           C   tau( 127) = (  0.9166647  0.2499980  0.5833313  )
       128           C   tau( 128) = (  0.9166647  0.2499980  0.9166647  )
       129           C   tau( 129) = (  0.9166647  0.5833313  0.2499980  )
       130           C   tau( 130) = (  0.9166647  0.5833313  0.5833313  )
       131           C   tau( 131) = (  0.9166647  0.5833313  0.9166647  )
       132           C   tau( 132) = (  0.9166647  0.9166647  0.2499980  )
       133           C   tau( 133) = (  0.9166647  0.9166647  0.5833313  )
       134           C   tau( 134) = (  0.9166647  0.9166647  0.9166647  )
       135           C   tau( 135) = (  0.1666667  0.0000000  0.0000000  )
       136           C   tau( 136) = (  0.1666667  0.0000000  0.3333333  )
       137           C   tau( 137) = (  0.1666667  0.0000000  0.6666667  )
       138           C   tau( 138) = (  0.1666667  0.3333333  0.0000000  )
       139           C   tau( 139) = (  0.1666667  0.3333333  0.3333333  )
       140           C   tau( 140) = (  0.1666667  0.3333333  0.6666667  )
       141           C   tau( 141) = (  0.1666667  0.6666667  0.0000000  )
       142           C   tau( 142) = (  0.1666667  0.6666667  0.3333333  )
       143           C   tau( 143) = (  0.1666667  0.6666667  0.6666667  )
       144           C   tau( 144) = (  0.5000000  0.0000000  0.0000000  )
       145           C   tau( 145) = (  0.5000000  0.0000000  0.3333333  )
       146           C   tau( 146) = (  0.5000000  0.0000000  0.6666667  )
       147           C   tau( 147) = (  0.5000000  0.3333333  0.0000000  )
       148           C   tau( 148) = (  0.5000000  0.3333333  0.3333333  )
       149           C   tau( 149) = (  0.5000000  0.3333333  0.6666667  )
       150           C   tau( 150) = (  0.5000000  0.6666667  0.0000000  )
       151           C   tau( 151) = (  0.5000000  0.6666667  0.3333333  )
       152           C   tau( 152) = (  0.5000000  0.6666667  0.6666667  )
       153           C   tau( 153) = (  0.8333333  0.0000000  0.0000000  )
       154           C   tau( 154) = (  0.8333333  0.0000000  0.3333333  )
       155           C   tau( 155) = (  0.8333333  0.0000000  0.6666667  )
       156           C   tau( 156) = (  0.8333333  0.3333333  0.0000000  )
       157           C   tau( 157) = (  0.8333333  0.3333333  0.3333333  )
       158           C   tau( 158) = (  0.8333333  0.3333333  0.6666667  )
       159           C   tau( 159) = (  0.8333333  0.6666667  0.0000000  )
       160           C   tau( 160) = (  0.8333333  0.6666667  0.3333333  )
       161           C   tau( 161) = (  0.8333333  0.6666667  0.6666667  )
       162           C   tau( 162) = (  0.2499980  0.0833353  0.0833353  )
       163           C   tau( 163) = (  0.2499980  0.0833353  0.4166687  )
       164           C   tau( 164) = (  0.2499980  0.0833353  0.7500020  )
       165           C   tau( 165) = (  0.2499980  0.4166687  0.0833353  )
       166           C   tau( 166) = (  0.2499980  0.4166687  0.4166687  )
       167           C   tau( 167) = (  0.2499980  0.4166687  0.7500020  )
       168           C   tau( 168) = (  0.2499980  0.7500020  0.0833353  )
       169           C   tau( 169) = (  0.2499980  0.7500020  0.4166687  )
       170           C   tau( 170) = (  0.2499980  0.7500020  0.7500020  )
       171           C   tau( 171) = (  0.5833313  0.0833353  0.0833353  )
       172           C   tau( 172) = (  0.5833313  0.0833353  0.4166687  )
       173           C   tau( 173) = (  0.5833313  0.0833353  0.7500020  )
       174           C   tau( 174) = (  0.5833313  0.4166687  0.0833353  )
       175           C   tau( 175) = (  0.5833313  0.4166687  0.4166687  )
       176           C   tau( 176) = (  0.5833313  0.4166687  0.7500020  )
       177           C   tau( 177) = (  0.5833313  0.7500020  0.0833353  )
       178           C   tau( 178) = (  0.5833313  0.7500020  0.4166687  )
       179           C   tau( 179) = (  0.5833313  0.7500020  0.7500020  )
       180           C   tau( 180) = (  0.9166647  0.0833353  0.0833353  )
       181           C   tau( 181) = (  0.9166647  0.0833353  0.4166687  )
       182           C   tau( 182) = (  0.9166647  0.0833353  0.7500020  )
       183           C   tau( 183) = (  0.9166647  0.4166687  0.0833353  )
       184           C   tau( 184) = (  0.9166647  0.4166687  0.4166687  )
       185           C   tau( 185) = (  0.9166647  0.4166687  0.7500020  )
       186           C   tau( 186) = (  0.9166647  0.7500020  0.0833353  )
       187           C   tau( 187) = (  0.9166647  0.7500020  0.4166687  )
       188           C   tau( 188) = (  0.9166647  0.7500020  0.7500020  )
       189           C   tau( 189) = (  0.1666667  0.1666667  0.1666667  )
       190           C   tau( 190) = (  0.1666667  0.1666667  0.5000000  )
       191           C   tau( 191) = (  0.1666667  0.1666667  0.8333333  )
       192           C   tau( 192) = (  0.1666667  0.5000000  0.1666667  )
       193           C   tau( 193) = (  0.1666667  0.5000000  0.5000000  )
       194           C   tau( 194) = (  0.1666667  0.5000000  0.8333333  )
       195           C   tau( 195) = (  0.1666667  0.8333333  0.1666667  )
       196           C   tau( 196) = (  0.1666667  0.8333333  0.5000000  )
       197           C   tau( 197) = (  0.1666667  0.8333333  0.8333333  )
       198           C   tau( 198) = (  0.5000000  0.1666667  0.1666667  )
       199           C   tau( 199) = (  0.5000000  0.1666667  0.5000000  )
       200           C   tau( 200) = (  0.5000000  0.1666667  0.8333333  )
       201           C   tau( 201) = (  0.5000000  0.5000000  0.1666667  )
       202           C   tau( 202) = (  0.5000000  0.5000000  0.5000000  )
       203           C   tau( 203) = (  0.5000000  0.5000000  0.8333333  )
       204           C   tau( 204) = (  0.5000000  0.8333333  0.1666667  )
       205           C   tau( 205) = (  0.5000000  0.8333333  0.5000000  )
       206           C   tau( 206) = (  0.5000000  0.8333333  0.8333333  )
       207           C   tau( 207) = (  0.8333333  0.1666667  0.1666667  )
       208           C   tau( 208) = (  0.8333333  0.1666667  0.5000000  )
       209           C   tau( 209) = (  0.8333333  0.1666667  0.8333333  )
       210           C   tau( 210) = (  0.8333333  0.5000000  0.1666667  )
       211           C   tau( 211) = (  0.8333333  0.5000000  0.5000000  )
       212           C   tau( 212) = (  0.8333333  0.5000000  0.8333333  )
       213           C   tau( 213) = (  0.8333333  0.8333333  0.1666667  )
       214           C   tau( 214) = (  0.8333333  0.8333333  0.5000000  )
       215           C   tau( 215) = (  0.8333333  0.8333333  0.8333333  )

     number of k points=     4  Gaussian smearing, width (Ry)=  0.0100
                       cart. coord. in units 2pi/alat
        k(    1) = (   0.0000000   0.0000000   0.0000000), wk =   0.2500000
        k(    2) = (   0.0000000   0.0000000  -0.5000000), wk =   0.7500000
        k(    3) = (   0.0000000  -0.5000000  -0.5000000), wk =   0.7500000
        k(    4) = (  -0.5000000  -0.5000000  -0.5000000), wk =   0.2500000

                       cryst. coord.
        k(    1) = (   0.0000000   0.0000000   0.0000000), wk =   0.2500000
        k(    2) = (   0.0000000   0.0000000  -0.5000000), wk =   0.7500000
        k(    3) = (   0.0000000  -0.5000000  -0.5000000), wk =   0.7500000
        k(    4) = (  -0.5000000  -0.5000000  -0.5000000), wk =   0.2500000

     Dense  grid:   918657 G-vectors     FFT dimensions: ( 135, 135, 135)

     Smooth grid:   656775 G-vectors     FFT dimensions: ( 108, 108, 108)

     Dynamical RAM for                 wfc:      10.12 MB

     Dynamical RAM for     wfc (w. buffer):      10.12 MB

     Dynamical RAM for           str. fact:       0.22 MB

     Dynamical RAM for           local pot:       0.00 MB

     Dynamical RAM for          nlocal pot:      33.67 MB

     Dynamical RAM for                qrad:       0.43 MB

     Dynamical RAM for          rho,v,vnew:       1.91 MB

     Dynamical RAM for               rhoin:       0.64 MB

     Dynamical RAM for            rho*nmix:       3.50 MB

     Dynamical RAM for           G-vectors:       0.90 MB

     Dynamical RAM for          h,s,v(r/c):     195.77 MB

     Dynamical RAM for          <psi|beta>:      13.57 MB

     Dynamical RAM for                 psi:      40.49 MB

     Dynamical RAM for                hpsi:      40.49 MB

     Dynamical RAM for                spsi:      40.49 MB

     Dynamical RAM for      wfcinit/wfcrot:      26.36 MB

     Dynamical RAM for           addusdens:      14.29 MB

     Dynamical RAM for          addusforce:      37.84 MB

     Dynamical RAM for         addusstress:       2.82 MB

     Estimated static dynamical RAM per process >      50.41 MB

     Estimated max dynamical RAM per process >     384.71 MB

     Estimated total dynamical RAM >      95.52 GB

     Atomic positions and unit cell read from directory:
     ./diamond.save/
     Atomic positions from file used, from input discarded
 

     Check: negative core charge=   -0.000014

     The initial density is read from file :
     ./diamond.save/charge-density



     %%%%%%%%%%%%%%%%%%%%%%%%%%%%%%%%%%%%%%%%%%%%%%%%%%%%%%%%%%%%%%%%%%%%%%%%
     %                                                                      %
     % You are using vdW-DF, which was implemented by the Thonhauser group. %
     % Please cite the following two papers that made this development      %
     % possible and the two reviews that describe the various versions:     %
     %                                                                      %
     %   T. Thonhauser et al., PRL 115, 136402 (2015).                      %
     %   T. Thonhauser et al., PRB 76, 125112 (2007).                       %
     %   K. Berland et al., Rep. Prog. Phys. 78, 066501 (2015).             %
     %   D.C. Langreth et al., J. Phys.: Condens. Matter 21, 084203 (2009). %
     %                                                                      %
     % If you are calculating stress with vdW-DF, please also cite:         %
     %                                                                      %
     %   R. Sabatini et al., J. Phys.: Condens. Matter 24, 424209 (2012).   %
     %                                                                      %
     %%%%%%%%%%%%%%%%%%%%%%%%%%%%%%%%%%%%%%%%%%%%%%%%%%%%%%%%%%%%%%%%%%%%%%%%

     %%%%%%%%%%%%%%%%%%%%%%%%%%%%%%%%%%%%%%%%%%%%%%%%%%%%%%%%%%%%%%%%%%%%%%%%
     %                                                                      %
     %  vdW-DF NEWS:                                                        %
     %                                                                      %
     %  * vdW-DF3 is now available. DOI: 10.1021/acs.jctc.0c00471           %
     %    use with input_dft = 'vdW-DF3-opt1' or 'vdW-DF3-opt2'             %
     %                                                                      %
     %  * Unscreened and range-separated vdW-DF hybrid functionals          %
     %    DOI: 10.1063/1.4986522 and 10.1088/1361-648X/ac2ad2               %
     %    use with input_dft = 'vdW-DF-cx0' (etc) and 'vdW-DF-ahcx'         %
     %                                                                      %
     %%%%%%%%%%%%%%%%%%%%%%%%%%%%%%%%%%%%%%%%%%%%%%%%%%%%%%%%%%%%%%%%%%%%%%%%


     Carrying out vdW-DF run using the following parameters:
     Nqs    =  20  Npoints =  1024  r_max =  100.000
     q_mesh =  0.00001000  0.04494208  0.09755937  0.15916263
               0.23128650  0.31572767  0.41458969  0.53033537
               0.66584808  0.82450364  1.01025438  1.22772762
               1.48234092  1.78043706  2.12944203  2.53805004
               3.01644009  3.57652955  4.23227104  5.00000000


     -----------------------------------------------
     Non-local corr. energy    =       7.36169731 Ry
     -----------------------------------------------

     Starting wfcs from file
     Checking if some PAW data can be deallocated... 

     total cpu time spent up to now is        6.0 secs

     Self-consistent Calculation

     iteration #  1     ecut=    70.00 Ry     beta= 0.70
     Davidson diagonalization with overlap

---- Real-time Memory Report at c_bands before calling an iterative solver
           224 MiB given to the printing process from OS
             0 MiB allocation reported by mallinfo(arena+hblkhd)
       1944936 MiB available memory on the node where the printing process lives
------------------
     ethr =  1.00E-05,  avg # of iterations =  1.0

     Threshold (ethr) on eigenvalues was too large:
     Diagonalizing with lowered threshold

     Davidson diagonalization with overlap

---- Real-time Memory Report at c_bands before calling an iterative solver
           441 MiB given to the printing process from OS
             0 MiB allocation reported by mallinfo(arena+hblkhd)
       1937192 MiB available memory on the node where the printing process lives
------------------
     ethr =  9.13E-13,  avg # of iterations = 12.5


     -----------------------------------------------
     Non-local corr. energy    =       7.36169706 Ry
     -----------------------------------------------


     total cpu time spent up to now is       56.6 secs

     End of self-consistent calculation

          k = 0.0000 0.0000 0.0000 ( 82057 PWs)   bands (ev):

    -8.6267  -7.6506  -7.6506  -7.6058  -7.6057  -7.6057  -7.4456  -6.6406
    -6.6406  -6.6401  -6.6401  -6.6401  -6.5980  -6.5980  -6.5980  -6.5105
    -6.5104  -6.5104  -6.2559  -5.6189  -5.5819  -5.5819  -5.5819  -5.5574
    -5.5574  -5.5573  -5.2575  -4.6263  -4.6263  -4.6186  -4.6186  -4.6186
    -4.5541  -3.7708  -3.7573  -3.7573  -3.7572  -3.7285  -3.7285  -3.7226
    -3.7226  -3.7226  -3.7201  -3.7199  -3.7199  -3.6731  -3.6731  -3.6729
    -3.6712  -3.6712  -3.6712  -3.6389  -3.6389  -3.5564  -3.5564  -3.5562
    -3.3942  -2.9999  -2.9996  -2.9996  -2.9769  -2.9769  -2.9766  -2.9616
    -2.9616  -2.9568  -2.9306  -2.9304  -2.9304  -2.8790  -2.8790  -2.8474
    -2.8474  -2.8471  -2.8039  -2.8039  -2.8038  -2.5973  -2.5973  -2.5973
    -1.8208  -1.2813  -1.2813  -1.2811  -1.2713  -1.2713  -1.2387  -1.2387
    -1.2387  -1.1841  -1.1840  -1.1840  -0.5624   0.0083   0.0083   0.0111
     0.0117   0.0117   0.0414   0.4392   0.4549   0.4549   0.4553   0.4791
     0.4791   0.4791   0.5105   0.5105   0.5344   0.5347   0.5347   0.6218
     0.6218   0.6220   0.6606   0.6606   0.6608   0.6897   0.6897   0.7459
     0.7460   0.7460   0.7769   0.8201   0.8201   0.8204   0.8204   0.8205
     0.8278   0.8280   0.8280   0.8865   0.8865   0.8867   0.9125   0.9126
     0.9126   0.9325   0.9325   0.9332   0.9332   0.9336   0.9861   1.3144
     1.3144   1.3144   1.6054   1.8746   1.8746   1.8746   1.8999   1.9001
     1.9001   1.9161   1.9161   2.0992   2.0992   2.0994   3.2123   3.4918
     3.5138   3.5138   3.5139   3.5301   3.5302   3.5302   3.5454   3.5816
     3.5816   3.5817   3.5846   3.5846   3.5846   3.6155   3.6155   3.7099
     3.7336   3.7336   3.7337   4.0423   4.0624   4.0624   4.0627   4.0731
     4.0733   4.0733   4.0858   4.0858   4.0869   4.0869   4.0870   4.1302
     4.1302   4.1422   4.1423   4.1423   4.1461   4.1463   4.1463   4.4022
     4.4022   4.4022   5.0151   5.0213   5.0214   5.0214   5.0445   5.0445
     5.0483   5.0483   5.0485   5.0769   5.0771   5.0771   5.1712   5.1712
     5.1712   5.1850   5.1850   5.1853   5.1892   5.2505   5.2505   5.2851
     5.2851   5.2854   5.3312   5.5687   5.5690   5.5690   5.5765   5.5765
     5.5941   5.6028   5.6030   5.6030   5.6044   5.6061   5.6062   5.6062
     5.6131   5.6131   5.6134   5.6300   5.6300   5.6558   5.6559   5.6559
     5.7102   5.7102   5.7105   5.7212   5.7213   6.1160   6.1160   6.1163
     6.6201   6.6202   6.6202   6.6818   6.6818   6.6819   6.8322   7.1057
     7.1057   7.1111   7.1112   7.1112   7.1343   7.1343   7.1343   7.2269
     7.2270   7.2270   7.5616   7.5616   7.5616   7.5687   7.5688   7.5688
     7.6028   7.6112   7.6112   7.6113   7.6456   7.6458   7.6458   7.7397
     7.7398   7.7398   7.7608   7.7626   7.7626   7.7790   7.7790   7.7791
     7.7883   7.7887   7.7887   7.8591   7.8593   7.8594   7.8728   7.8728
     7.8730   7.8866   7.8866   7.9005   7.9005   7.9007   7.9805   7.9980
     7.9982   7.9982   7.9987   8.0219   8.0219   8.0260   8.0260   8.0261
     8.0448   8.0448   8.0448   8.0656   8.0658   8.0658   8.0660   8.0660
     8.0902   8.0903   8.0903   8.0983   8.0983   8.1080   8.1101   8.1101
     8.1105   8.1252   8.1252   8.1253   8.1715   8.1718   8.1718   8.2350
     8.2350   8.2351   8.2651   8.2652   8.2652   8.2741   8.2840   8.2840
     8.2841   8.4538   8.4538   8.6073   8.6073   8.6074   8.8154   8.8216
     8.8216   8.8217   8.8930   8.8930   8.8930   8.9078   8.9078   8.9080
     8.9499   8.9499   8.9499   8.9535   8.9535   8.9985   8.9985   9.0276
     9.1051   9.1054   9.1054   9.9529   9.9529   9.9532  10.2559  10.2559
    10.2560  10.2696  10.2698  10.2698  10.2782  10.3270  10.3271  10.3271
    10.3585  10.3586  10.3586  10.4750  10.4750  10.5137  10.5137  10.5138
    10.5213  10.5213  10.5213  10.5541  10.5541  10.5670  10.5670  10.5670
    10.5684  10.5684  10.6148  10.6149  10.6149  11.2124  11.2124  11.2124
    11.4111  11.4489  11.4489  11.4491  11.4946  11.4949  11.4949  11.6138
    11.6138  12.5988  12.7172  12.7172  12.7173  15.6394  15.6394  15.6394
    17.1114  17.1114  17.1526  17.1526  17.1527  17.1826  17.8117  17.8117
    17.8128  17.8159  17.8159  17.8627  17.8768  17.8768  17.9669  17.9669
    17.9672  18.0385  18.6173  18.6174  18.6174  19.3257  19.3258  19.3258
    19.3614  19.3614  19.3616  19.3730  19.3730  19.3763  19.3765  19.3765
    19.4081  20.0021  20.0021  20.0222  20.0222  20.0228  20.0266  20.0272
    20.0272  20.0358  20.0358  20.0362  20.0780  20.0785  20.0785  20.1099
    20.1249  20.1249  20.1251  20.1436  20.1436  20.1440  20.1735  20.1922
    20.1922  20.4091  20.4383  20.4384  20.4384  20.4423  20.4423  20.4423
    20.4726  20.4726  20.4726  20.4812  20.4812  20.5774  20.5774  20.5941
    20.5946  20.5946  20.6349  20.6557  20.6557  20.6559  20.6653  20.6653
    20.6653  20.6676  20.6676  20.6677  20.7278

     occupation numbers 
     1.0000   1.0000   1.0000   1.0000   1.0000   1.0000   1.0000   1.0000
     1.0000   1.0000   1.0000   1.0000   1.0000   1.0000   1.0000   1.0000
     1.0000   1.0000   1.0000   1.0000   1.0000   1.0000   1.0000   1.0000
     1.0000   1.0000   1.0000   1.0000   1.0000   1.0000   1.0000   1.0000
     1.0000   1.0000   1.0000   1.0000   1.0000   1.0000   1.0000   1.0000
     1.0000   1.0000   1.0000   1.0000   1.0000   1.0000   1.0000   1.0000
     1.0000   1.0000   1.0000   1.0000   1.0000   1.0000   1.0000   1.0000
     1.0000   1.0000   1.0000   1.0000   1.0000   1.0000   1.0000   1.0000
     1.0000   1.0000   1.0000   1.0000   1.0000   1.0000   1.0000   1.0000
     1.0000   1.0000   1.0000   1.0000   1.0000   1.0000   1.0000   1.0000
     1.0000   1.0000   1.0000   1.0000   1.0000   1.0000   1.0000   1.0000
     1.0000   1.0000   1.0000   1.0000   1.0000   1.0000   1.0000   1.0000
     1.0000   1.0000   1.0000   1.0000   1.0000   1.0000   1.0000   1.0000
     1.0000   1.0000   1.0000   1.0000   1.0000   1.0000   1.0000   1.0000
     1.0000   1.0000   1.0000   1.0000   1.0000   1.0000   1.0000   1.0000
     1.0000   1.0000   1.0000   1.0000   1.0000   1.0000   1.0000   1.0000
     1.0000   1.0000   1.0000   1.0000   1.0000   1.0000   1.0000   1.0000
     1.0000   1.0000   1.0000   1.0000   1.0000   1.0000   1.0000   1.0000
     1.0000   1.0000   1.0000   1.0000   1.0000   1.0000   1.0000   1.0000
     1.0000   1.0000   1.0000   1.0000   1.0000   1.0000   1.0000   1.0000
     1.0000   1.0000   1.0000   1.0000   1.0000   1.0000   1.0000   1.0000
     1.0000   1.0000   1.0000   1.0000   1.0000   1.0000   1.0000   1.0000
     1.0000   1.0000   1.0000   1.0000   1.0000   1.0000   1.0000   1.0000
     1.0000   1.0000   1.0000   1.0000   1.0000   1.0000   1.0000   1.0000
     1.0000   1.0000   1.0000   1.0000   1.0000   1.0000   1.0000   1.0000
     1.0000   1.0000   1.0000   1.0000   1.0000   1.0000   1.0000   1.0000
     1.0000   1.0000   1.0000   1.0000   1.0000   1.0000   1.0000   1.0000
     1.0000   1.0000   1.0000   1.0000   1.0000   1.0000   1.0000   1.0000
     1.0000   1.0000   1.0000   1.0000   1.0000   1.0000   1.0000   1.0000
     1.0000   1.0000   1.0000   1.0000   1.0000   1.0000   1.0000   1.0000
     1.0000   1.0000   1.0000   1.0000   1.0000   1.0000   1.0000   1.0000
     1.0000   1.0000   1.0000   1.0000   1.0000   1.0000   1.0000   1.0000
     1.0000   1.0000   1.0000   1.0000   1.0000   1.0000   1.0000   1.0000
     1.0000   1.0000   1.0000   1.0000   1.0000   1.0000   1.0000   1.0000
     1.0000   1.0000   1.0000   1.0000   1.0000   1.0000   1.0000   1.0000
     1.0000   1.0000   1.0000   1.0000   1.0000   1.0000   1.0000   1.0000
     1.0000   1.0000   1.0000   1.0000   1.0000   1.0000   1.0000   1.0000
     1.0000   1.0000   1.0000   1.0000   1.0000   1.0000   1.0000   1.0000
     1.0000   1.0000   1.0000   1.0000   1.0000   1.0000   1.0000   1.0000
     1.0000   1.0000   1.0000   1.0000   1.0000   1.0000   1.0000   1.0000
     1.0000   1.0000   1.0000   1.0000   1.0000   1.0000   1.0000   1.0000
     1.0000   1.0000   1.0000   1.0000   1.0000   1.0000   1.0000   1.0000
     1.0000   1.0000   1.0000   1.0000   1.0000   1.0000   1.0000   1.0000
     1.0000   1.0000   1.0000   1.0000   1.0000   1.0000   1.0000   1.0000
     1.0000   1.0000   1.0000   1.0000   1.0000   1.0000   1.0000   1.0000
     1.0000   1.0000   1.0000   1.0000   1.0000   1.0000   1.0000   1.0000
     1.0000   1.0000   1.0000   1.0000   1.0000   1.0000   1.0000   1.0000
     1.0000   1.0000   1.0000   1.0000   1.0000   1.0000   1.0000   1.0000
     1.0000   1.0000   1.0000   1.0000   1.0000   1.0000   1.0000   1.0000
     1.0000   1.0000   1.0000   1.0000   1.0000   1.0000   1.0000   1.0000
     1.0000   1.0000   1.0000   1.0000   1.0000   1.0000   1.0000   1.0000
     1.0000   1.0000   1.0000   1.0000   1.0000   1.0000   1.0000   1.0000
     1.0000   1.0000   1.0000   1.0000   1.0000   1.0000   1.0000   1.0000
     1.0000   1.0000   1.0000   1.0000   1.0000   0.5017   0.5017   0.5017
     0.0000   0.0000   0.0000   0.0000   0.0000   0.0000   0.0000   0.0000
     0.0000   0.0000   0.0000   0.0000   0.0000   0.0000   0.0000   0.0000
     0.0000   0.0000   0.0000   0.0000   0.0000   0.0000   0.0000   0.0000
     0.0000   0.0000   0.0000   0.0000   0.0000   0.0000   0.0000   0.0000
     0.0000   0.0000   0.0000   0.0000   0.0000   0.0000   0.0000   0.0000
     0.0000   0.0000   0.0000   0.0000   0.0000   0.0000   0.0000   0.0000
     0.0000   0.0000   0.0000   0.0000   0.0000   0.0000   0.0000   0.0000
     0.0000   0.0000   0.0000   0.0000   0.0000   0.0000   0.0000   0.0000
     0.0000   0.0000   0.0000   0.0000   0.0000   0.0000   0.0000   0.0000
     0.0000   0.0000   0.0000   0.0000   0.0000   0.0000   0.0000   0.0000
     0.0000   0.0000   0.0000   0.0000   0.0000

          k = 0.0000 0.0000-0.5000 ( 81982 PWs)   bands (ev):

    -8.4466  -8.2816  -7.4570  -7.4294  -7.4293  -7.3927  -7.3298  -7.2605
    -7.2604  -7.0790  -6.4308  -6.4281  -6.4211  -6.4210  -6.3568  -6.3327
    -6.2482  -6.2029  -6.2029  -5.9761  -5.4177  -5.4101  -5.3650  -5.3647
    -5.3556  -5.3554  -5.2448  -5.1452  -4.4817  -4.4732  -4.4732  -4.4638
    -4.4390  -4.4208  -4.4207  -4.4169  -4.3855  -4.3853  -4.3571  -4.3144
    -4.3016  -4.2676  -4.2675  -4.0463  -3.5817  -3.5803  -3.5802  -3.5774
    -3.5473  -3.5451  -3.5450  -3.5399  -3.4270  -3.4182  -3.4179  -3.3715
    -3.3413  -3.2125  -3.2125  -3.0234  -2.6805  -2.6753  -2.6750  -2.6606
    -2.6445  -2.6149  -2.6106  -2.6103  -2.4761  -2.4732  -2.4647  -2.4279
    -2.4276  -2.3539  -2.3437  -2.2728  -2.2727  -1.8863  -1.7423  -1.7422
    -1.7390  -1.7288  -1.7099  -1.7099  -1.7093  -1.7078  -1.5871  -1.5706
    -1.5107  -1.5106  -1.4118  -1.4118  -1.2282  -0.6083  -0.1214  -0.1108
    -0.1108  -0.1107  -0.0998  -0.0998  -0.0934  -0.0197   0.0040   0.0130
     0.0132   0.0177   0.0975   0.0976   0.1125   0.1144   0.1149   0.1284
     0.1288   0.1471   0.3312   0.3530   0.3531   0.5256   0.8185   0.8189
     0.8212   0.8299   0.8301   0.8357   0.8357   0.8468   0.9010   0.9011
     0.9340   0.9593   1.1196   1.1197   1.1224   1.1603   1.1609   1.2780
     1.2781   1.7713   1.9365   1.9424   1.9424   1.9435   2.0128   2.0249
     2.0249   2.1584   2.5179   2.5184   2.5358   2.5560   2.5697   2.5698
     2.5733   2.5733   2.5801   2.5845   2.5917   2.5918   2.6272   2.6283
     2.6414   2.6488   2.6489   2.6539   2.6764   2.6765   2.7575   2.7812
     2.7812   2.7834   2.8901   2.9059   2.9061   2.9153   2.9281   2.9518
     3.1677   3.1677   3.2511   3.7737   3.7801   3.7801   3.7904   3.7915
     3.8363   3.8364   3.8578   4.2857   4.3437   4.3461   4.3503   4.3503
     4.3742   4.3793   4.3794   4.7194   4.7328   4.7496   4.7529   4.7531
     5.0161   5.0161   5.0309   5.0388   5.0619   5.0966   5.0968   5.0968
     5.1089   5.1122   5.1122   5.1224   5.2272   5.2607   5.2608   5.3013
     5.3596   5.3597   5.3724   5.3945   5.3974   5.3976   5.4013   5.4048
     5.4323   5.4364   5.4535   5.4537   5.4875   5.4881   5.4881   5.5050
     5.5197   5.5245   5.5750   5.5751   5.7127   5.7128   5.7781   5.9935
     6.0117   6.0118   6.0371   6.1155   6.1288   6.1288   6.1361   6.1656
     6.1656   6.1703   6.1801   6.2549   6.2550   6.2643   6.2933   6.5466
     6.6495   6.6591   6.6591   6.6608   6.6922   6.6923   6.7346   6.7379
     6.7732   6.7732   6.8037   6.8099   6.8101   6.8118   6.8317   6.8319
     6.8369   6.8480   6.8536   6.8571   6.8682   6.8682   6.8769   6.8771
     6.8879   6.8879   6.9065   6.9065   6.9069   6.9504   6.9519   6.9522
     6.9849   6.9892   7.0103   7.0436   7.0437   7.0832   7.0833   7.1184
     7.4125   7.4127   7.4363   7.6413   7.6952   7.6952   7.7030   7.8129
     7.8502   7.8504   7.9262   7.9694   8.0732   8.0740   8.0756   8.0759
     8.0813   8.1014   8.1017   8.1875   8.1877   8.1979   8.2095   8.2115
     8.2313   8.2327   8.2807   8.2811   8.2902   8.2932   8.3027   8.3029
     8.3260   8.3344   8.3344   8.3411   8.3557   8.3654   8.3820   8.3823
     8.4159   8.4465   8.4465   8.4797   8.4798   8.4812   8.4945   8.5048
     8.5738   8.6988   8.7128   8.7324   8.7372   8.7373   8.7568   8.7569
     8.7857   8.7859   8.8048   8.8269   8.8622   8.8624   8.9849   9.1195
     9.1196   9.1712   9.1771   9.1969   9.1971   9.2745   9.3459   9.3460
     9.3699   9.4191   9.4616   9.4971   9.5006   9.5006   9.5073   9.5074
     9.5246   9.5713   9.5831   9.6287   9.6352   9.6354   9.6454   9.6678
     9.6679   9.6746   9.6961   9.6962   9.7199   9.7531   9.7760   9.7761
     9.8048   9.8050   9.8789   9.9426   9.9671   9.9673  10.0629  10.0735
    10.0738  10.1426  10.1628  10.2121  10.2124  10.3057  10.9647  10.9650
    11.1377  11.1452  11.1453  11.1465  11.2524  11.2882  11.3087  11.3894
    11.3895  11.4106  11.4597  11.4955  11.4956  11.6253  11.8464  11.8465
    11.9247  11.9247  12.0766  12.1193  12.7502  15.5439  15.6103  15.6103
    17.1912  17.1955  17.4854  17.5277  18.0768  18.0983  18.0991  18.0991
    18.2091  18.2238  18.2519  18.2520  18.2826  18.4765  18.6980  18.7072
    18.7080  18.7381  18.7573  18.8017  18.8019  18.8723  18.8779  18.8786
    18.9031  18.9037  18.9580  18.9837  18.9989  19.0487  19.0489  19.0608
    19.4544  19.4631  19.4631  19.4638  19.5149  19.5190  19.5191  19.5309
    19.5752  19.5752  19.5818  19.5818  19.5818  19.6069  19.6488  19.6490
    19.6995  19.7717  19.7830  19.7830  19.9963  20.0111  20.0113  20.0160
    20.0293  20.0298  20.0418  20.0633  20.1517  20.1521  20.1582  20.2002
    20.2259  20.2705  20.2709  20.3575  20.5789  20.5798  20.5858  20.5858
    20.5878  20.5954  20.5954  20.5955  20.6129  20.6129  20.6406  20.6507
    20.6763  20.6764  20.6860  20.7010  20.7011

     occupation numbers 
     1.0000   1.0000   1.0000   1.0000   1.0000   1.0000   1.0000   1.0000
     1.0000   1.0000   1.0000   1.0000   1.0000   1.0000   1.0000   1.0000
     1.0000   1.0000   1.0000   1.0000   1.0000   1.0000   1.0000   1.0000
     1.0000   1.0000   1.0000   1.0000   1.0000   1.0000   1.0000   1.0000
     1.0000   1.0000   1.0000   1.0000   1.0000   1.0000   1.0000   1.0000
     1.0000   1.0000   1.0000   1.0000   1.0000   1.0000   1.0000   1.0000
     1.0000   1.0000   1.0000   1.0000   1.0000   1.0000   1.0000   1.0000
     1.0000   1.0000   1.0000   1.0000   1.0000   1.0000   1.0000   1.0000
     1.0000   1.0000   1.0000   1.0000   1.0000   1.0000   1.0000   1.0000
     1.0000   1.0000   1.0000   1.0000   1.0000   1.0000   1.0000   1.0000
     1.0000   1.0000   1.0000   1.0000   1.0000   1.0000   1.0000   1.0000
     1.0000   1.0000   1.0000   1.0000   1.0000   1.0000   1.0000   1.0000
     1.0000   1.0000   1.0000   1.0000   1.0000   1.0000   1.0000   1.0000
     1.0000   1.0000   1.0000   1.0000   1.0000   1.0000   1.0000   1.0000
     1.0000   1.0000   1.0000   1.0000   1.0000   1.0000   1.0000   1.0000
     1.0000   1.0000   1.0000   1.0000   1.0000   1.0000   1.0000   1.0000
     1.0000   1.0000   1.0000   1.0000   1.0000   1.0000   1.0000   1.0000
     1.0000   1.0000   1.0000   1.0000   1.0000   1.0000   1.0000   1.0000
     1.0000   1.0000   1.0000   1.0000   1.0000   1.0000   1.0000   1.0000
     1.0000   1.0000   1.0000   1.0000   1.0000   1.0000   1.0000   1.0000
     1.0000   1.0000   1.0000   1.0000   1.0000   1.0000   1.0000   1.0000
     1.0000   1.0000   1.0000   1.0000   1.0000   1.0000   1.0000   1.0000
     1.0000   1.0000   1.0000   1.0000   1.0000   1.0000   1.0000   1.0000
     1.0000   1.0000   1.0000   1.0000   1.0000   1.0000   1.0000   1.0000
     1.0000   1.0000   1.0000   1.0000   1.0000   1.0000   1.0000   1.0000
     1.0000   1.0000   1.0000   1.0000   1.0000   1.0000   1.0000   1.0000
     1.0000   1.0000   1.0000   1.0000   1.0000   1.0000   1.0000   1.0000
     1.0000   1.0000   1.0000   1.0000   1.0000   1.0000   1.0000   1.0000
     1.0000   1.0000   1.0000   1.0000   1.0000   1.0000   1.0000   1.0000
     1.0000   1.0000   1.0000   1.0000   1.0000   1.0000   1.0000   1.0000
     1.0000   1.0000   1.0000   1.0000   1.0000   1.0000   1.0000   1.0000
     1.0000   1.0000   1.0000   1.0000   1.0000   1.0000   1.0000   1.0000
     1.0000   1.0000   1.0000   1.0000   1.0000   1.0000   1.0000   1.0000
     1.0000   1.0000   1.0000   1.0000   1.0000   1.0000   1.0000   1.0000
     1.0000   1.0000   1.0000   1.0000   1.0000   1.0000   1.0000   1.0000
     1.0000   1.0000   1.0000   1.0000   1.0000   1.0000   1.0000   1.0000
     1.0000   1.0000   1.0000   1.0000   1.0000   1.0000   1.0000   1.0000
     1.0000   1.0000   1.0000   1.0000   1.0000   1.0000   1.0000   1.0000
     1.0000   1.0000   1.0000   1.0000   1.0000   1.0000   1.0000   1.0000
     1.0000   1.0000   1.0000   1.0000   1.0000   1.0000   1.0000   1.0000
     1.0000   1.0000   1.0000   1.0000   1.0000   1.0000   1.0000   1.0000
     1.0000   1.0000   1.0000   1.0000   1.0000   1.0000   1.0000   1.0000
     1.0000   1.0000   1.0000   1.0000   1.0000   1.0000   1.0000   1.0000
     1.0000   1.0000   1.0000   1.0000   1.0000   1.0000   1.0000   1.0000
     1.0000   1.0000   1.0000   1.0000   1.0000   1.0000   1.0000   1.0000
     1.0000   1.0000   1.0000   1.0000   1.0000   1.0000   1.0000   1.0000
     1.0000   1.0000   1.0000   1.0000   1.0000   1.0000   1.0000   1.0000
     1.0000   1.0000   1.0000   1.0000   1.0000   1.0000   1.0000   1.0000
     1.0000   1.0000   1.0000   1.0000   1.0000   1.0000   1.0000   1.0000
     1.0000   1.0000   1.0000   1.0000   1.0000   1.0000   1.0000   1.0000
     1.0000   1.0000   1.0000   1.0000   1.0000   1.0000   1.0000   1.0000
     1.0000   1.0000   1.0000   1.0000   1.0000   1.0000   1.0000   1.0000
     1.0000   1.0000   1.0000   1.0000   1.0000   1.0000   1.0000   1.0000
     1.0000   1.0000   1.0000   1.0000   1.0000   0.8407   0.6204   0.6204
     0.0000   0.0000   0.0000   0.0000   0.0000   0.0000   0.0000   0.0000
     0.0000   0.0000   0.0000   0.0000   0.0000   0.0000   0.0000   0.0000
     0.0000   0.0000   0.0000   0.0000   0.0000   0.0000   0.0000   0.0000
     0.0000   0.0000   0.0000   0.0000   0.0000   0.0000   0.0000   0.0000
     0.0000   0.0000   0.0000   0.0000   0.0000   0.0000   0.0000   0.0000
     0.0000   0.0000   0.0000   0.0000   0.0000   0.0000   0.0000   0.0000
     0.0000   0.0000   0.0000   0.0000   0.0000   0.0000   0.0000   0.0000
     0.0000   0.0000   0.0000   0.0000   0.0000   0.0000   0.0000   0.0000
     0.0000   0.0000   0.0000   0.0000   0.0000   0.0000   0.0000   0.0000
     0.0000   0.0000   0.0000   0.0000   0.0000   0.0000   0.0000   0.0000
     0.0000   0.0000   0.0000   0.0000   0.0000

          k = 0.0000-0.5000-0.5000 ( 82212 PWs)   bands (ev):

    -8.2446  -8.1322  -8.1322  -7.8877  -7.2332  -7.2316  -7.1151  -7.1151
    -7.1066  -7.1066  -6.8588  -6.6968  -6.2022  -6.1869  -6.1869  -6.1534
    -6.0432  -5.9866  -5.9866  -5.8716  -5.2320  -5.2296  -5.2173  -5.2172
    -5.2102  -5.2102  -5.1865  -5.1671  -5.0527  -5.0460  -5.0120  -5.0119
    -4.9774  -4.9291  -4.9290  -4.6321  -4.2956  -4.2908  -4.1748  -4.1748
    -4.1705  -4.1673  -4.1673  -4.1517  -4.1516  -4.1365  -3.8502  -3.7483
    -3.4365  -3.4253  -3.3902  -3.3901  -3.2947  -3.2945  -3.2881  -3.1009
    -2.5910  -2.5793  -2.5695  -2.5695  -2.5564  -2.5564  -2.5249  -2.4913
    -2.4249  -2.4193  -2.3681  -2.3680  -2.3453  -2.3423  -2.3354  -2.3352
    -2.3086  -2.3085  -2.2320  -2.2007  -2.1709  -2.1582  -2.1582  -1.8937
    -1.6622  -1.6619  -1.6587  -1.6504  -1.5976  -1.5903  -1.5822  -1.5819
    -1.4939  -1.4687  -1.4686  -1.4543  -1.3103  -1.2396  -1.2392  -0.9625
    -0.8195  -0.8170  -0.8155  -0.8155  -0.7376  -0.6999  -0.6999  -0.0846
     0.1089   0.1092   0.1092   0.2374   0.4349   0.4350   0.4427   0.4506
     0.4836   0.4836   0.5359   0.5396   0.5682   0.5684   0.7286   0.9865
     1.2599   1.2681   1.2689   1.2689   1.2857   1.2858   1.3015   1.3108
     1.3204   1.3446   1.3447   1.3893   1.4157   1.4544   1.4544   1.5307
     1.6815   1.6819   1.6883   1.6899   1.6899   1.6931   1.7124   1.7125
     1.8391   1.8392   1.8418   1.8500   1.8769   1.8911   1.8940   1.8951
     1.9005   1.9007   1.9277   1.9280   2.1431   2.1431   2.2234   2.6226
     2.7220   2.7224   2.7225   2.7540   2.9130   3.0011   3.0013   3.5572
     3.7980   3.8051   3.8148   3.8148   3.8187   3.8187   3.8447   3.8508
     3.8544   3.8708   3.8945   3.8945   3.9338   3.9339   3.9479   3.9791
     3.9876   3.9895   3.9896   4.0012   4.0394   4.0593   4.0712   4.0712
     4.1208   4.1289   4.1640   4.1640   4.1954   4.2068   4.2068   4.2111
     4.3334   4.3335   4.5052   4.7160   4.7364   4.7954   4.7955   4.8362
     4.8689   4.8690   4.8718   4.8779   4.8859   4.8911   4.8912   4.9370
     5.0242   5.0304   5.0306   5.1035   5.1205   5.1976   5.1976   5.3099
     5.4165   5.4169   5.4305   5.8492   6.1031   6.1141   6.1154   6.1155
     6.1227   6.1284   6.1284   6.1385   6.1412   6.1567   6.1568   6.1618
     6.1655   6.1689   6.1691   6.1748   6.1824   6.2045   6.2047   6.2915
     6.2992   6.2993   6.3049   6.3396   6.3519   6.3520   6.3609   6.3824
     6.4059   6.4200   6.4200   6.5571   6.5817   6.5817   6.5951   6.6530
     6.7426   6.7426   6.7638   6.8374   6.9782   7.0138   7.0317   7.0317
     7.0431   7.0459   7.0488   7.0524   7.0525   7.0625   7.0659   7.0911
     7.0912   7.0990   7.1006   7.1006   7.1193   7.1195   7.1202   7.1445
     7.1689   7.1700   7.1701   7.1745   7.1747   7.1903   7.2376   7.2407
     7.2554   7.2652   7.2749   7.2750   7.3036   7.3058   7.3058   7.3297
     7.3347   7.3513   7.3514   7.5097   7.6638   7.6639   7.7676   7.8960
     7.9046   7.9137   7.9267   7.9577   7.9637   7.9838   7.9839   8.0050
     8.0052   8.1125   8.1279   8.1279   8.1426   8.1586   8.1641   8.1642
     8.2686   8.2686   8.2700   8.2812   8.3095   8.3096   8.3175   8.3285
     8.3340   8.3636   8.3637   8.3900   8.4696   8.4697   8.4984   8.5132
     8.5170   8.5170   8.5184   8.5224   8.5284   8.5905   8.5906   8.7007
     8.7008   8.7092   8.7546   8.8136   8.9826   9.0753   9.0789   9.0790
     9.1315   9.1744   9.1746   9.2711   9.4287   9.4288   9.5334   9.5345
     9.5778   9.5901   9.5995   9.5996   9.6611   9.6612   9.7738   9.7780
     9.8114   9.8234   9.8238   9.9122   9.9125   9.9299   9.9405   9.9736
     9.9736   9.9949  10.0071  10.0071  10.0158  10.0346  10.0400  10.0794
    10.1142  10.1151  10.1725  10.1726  10.2057  10.2057  10.2153  10.2993
    10.3755  10.3755  10.4078  10.4141  10.4495  10.4792  10.4854  10.4854
    10.4938  10.5839  10.5839  10.5870  10.9575  10.9654  11.0644  11.0644
    11.1474  11.1545  11.1732  11.1734  11.2158  11.2713  11.2715  11.3749
    12.3276  12.3277  12.4858  12.5028  12.7069  15.5309  15.6086  15.6086
    18.1396  18.1398  18.1519  18.1584  18.1585  18.1610  18.2032  18.2040
    18.2725  18.2726  18.2760  18.2870  18.3688  18.3689  18.3820  18.4223
    18.4374  18.4863  18.5096  18.5096  18.5315  18.5316  18.5596  18.6475
    18.6538  18.6540  18.8542  18.9141  18.9902  19.0107  19.1267  19.1267
    19.3265  19.3380  19.4251  19.4251  19.4628  19.4628  19.5779  19.5843
    19.5847  19.5884  19.5904  19.5909  19.5915  19.6017  19.7073  19.7075
    19.7109  19.7532  19.7536  19.7560  19.7713  19.7735  19.7840  19.7845
    19.8070  19.8348  19.8390  19.8398  19.8570  19.9335  19.9335  20.0133
    20.0428  20.1424  20.1428  20.1578  20.1579  20.1678  20.2245  20.4562
    20.4605  20.4627  20.4627  20.4758  20.4759  20.4815  20.5007  20.5018
    20.6107  20.6569  20.6570  20.6707  20.7553

     occupation numbers 
     1.0000   1.0000   1.0000   1.0000   1.0000   1.0000   1.0000   1.0000
     1.0000   1.0000   1.0000   1.0000   1.0000   1.0000   1.0000   1.0000
     1.0000   1.0000   1.0000   1.0000   1.0000   1.0000   1.0000   1.0000
     1.0000   1.0000   1.0000   1.0000   1.0000   1.0000   1.0000   1.0000
     1.0000   1.0000   1.0000   1.0000   1.0000   1.0000   1.0000   1.0000
     1.0000   1.0000   1.0000   1.0000   1.0000   1.0000   1.0000   1.0000
     1.0000   1.0000   1.0000   1.0000   1.0000   1.0000   1.0000   1.0000
     1.0000   1.0000   1.0000   1.0000   1.0000   1.0000   1.0000   1.0000
     1.0000   1.0000   1.0000   1.0000   1.0000   1.0000   1.0000   1.0000
     1.0000   1.0000   1.0000   1.0000   1.0000   1.0000   1.0000   1.0000
     1.0000   1.0000   1.0000   1.0000   1.0000   1.0000   1.0000   1.0000
     1.0000   1.0000   1.0000   1.0000   1.0000   1.0000   1.0000   1.0000
     1.0000   1.0000   1.0000   1.0000   1.0000   1.0000   1.0000   1.0000
     1.0000   1.0000   1.0000   1.0000   1.0000   1.0000   1.0000   1.0000
     1.0000   1.0000   1.0000   1.0000   1.0000   1.0000   1.0000   1.0000
     1.0000   1.0000   1.0000   1.0000   1.0000   1.0000   1.0000   1.0000
     1.0000   1.0000   1.0000   1.0000   1.0000   1.0000   1.0000   1.0000
     1.0000   1.0000   1.0000   1.0000   1.0000   1.0000   1.0000   1.0000
     1.0000   1.0000   1.0000   1.0000   1.0000   1.0000   1.0000   1.0000
     1.0000   1.0000   1.0000   1.0000   1.0000   1.0000   1.0000   1.0000
     1.0000   1.0000   1.0000   1.0000   1.0000   1.0000   1.0000   1.0000
     1.0000   1.0000   1.0000   1.0000   1.0000   1.0000   1.0000   1.0000
     1.0000   1.0000   1.0000   1.0000   1.0000   1.0000   1.0000   1.0000
     1.0000   1.0000   1.0000   1.0000   1.0000   1.0000   1.0000   1.0000
     1.0000   1.0000   1.0000   1.0000   1.0000   1.0000   1.0000   1.0000
     1.0000   1.0000   1.0000   1.0000   1.0000   1.0000   1.0000   1.0000
     1.0000   1.0000   1.0000   1.0000   1.0000   1.0000   1.0000   1.0000
     1.0000   1.0000   1.0000   1.0000   1.0000   1.0000   1.0000   1.0000
     1.0000   1.0000   1.0000   1.0000   1.0000   1.0000   1.0000   1.0000
     1.0000   1.0000   1.0000   1.0000   1.0000   1.0000   1.0000   1.0000
     1.0000   1.0000   1.0000   1.0000   1.0000   1.0000   1.0000   1.0000
     1.0000   1.0000   1.0000   1.0000   1.0000   1.0000   1.0000   1.0000
     1.0000   1.0000   1.0000   1.0000   1.0000   1.0000   1.0000   1.0000
     1.0000   1.0000   1.0000   1.0000   1.0000   1.0000   1.0000   1.0000
     1.0000   1.0000   1.0000   1.0000   1.0000   1.0000   1.0000   1.0000
     1.0000   1.0000   1.0000   1.0000   1.0000   1.0000   1.0000   1.0000
     1.0000   1.0000   1.0000   1.0000   1.0000   1.0000   1.0000   1.0000
     1.0000   1.0000   1.0000   1.0000   1.0000   1.0000   1.0000   1.0000
     1.0000   1.0000   1.0000   1.0000   1.0000   1.0000   1.0000   1.0000
     1.0000   1.0000   1.0000   1.0000   1.0000   1.0000   1.0000   1.0000
     1.0000   1.0000   1.0000   1.0000   1.0000   1.0000   1.0000   1.0000
     1.0000   1.0000   1.0000   1.0000   1.0000   1.0000   1.0000   1.0000
     1.0000   1.0000   1.0000   1.0000   1.0000   1.0000   1.0000   1.0000
     1.0000   1.0000   1.0000   1.0000   1.0000   1.0000   1.0000   1.0000
     1.0000   1.0000   1.0000   1.0000   1.0000   1.0000   1.0000   1.0000
     1.0000   1.0000   1.0000   1.0000   1.0000   1.0000   1.0000   1.0000
     1.0000   1.0000   1.0000   1.0000   1.0000   1.0000   1.0000   1.0000
     1.0000   1.0000   1.0000   1.0000   1.0000   1.0000   1.0000   1.0000
     1.0000   1.0000   1.0000   1.0000   1.0000   1.0000   1.0000   1.0000
     1.0000   1.0000   1.0000   1.0000   1.0000   1.0000   1.0000   1.0000
     1.0000   1.0000   1.0000   1.0000   1.0000   1.0000   1.0000   1.0000
     1.0000   1.0000   1.0000   1.0000   1.0000   1.0000   1.0000   1.0000
     1.0000   1.0000   1.0000   1.0000   1.0000   1.0000   1.0000   1.0000
     1.0000   1.0000   1.0000   1.0000   1.0000   0.8711   0.6273   0.6272
     0.0000   0.0000   0.0000   0.0000   0.0000   0.0000   0.0000   0.0000
     0.0000   0.0000   0.0000   0.0000   0.0000   0.0000   0.0000   0.0000
     0.0000   0.0000   0.0000   0.0000   0.0000   0.0000   0.0000   0.0000
     0.0000   0.0000   0.0000   0.0000   0.0000   0.0000   0.0000   0.0000
     0.0000   0.0000   0.0000   0.0000   0.0000   0.0000   0.0000   0.0000
     0.0000   0.0000   0.0000   0.0000   0.0000   0.0000   0.0000   0.0000
     0.0000   0.0000   0.0000   0.0000   0.0000   0.0000   0.0000   0.0000
     0.0000   0.0000   0.0000   0.0000   0.0000   0.0000   0.0000   0.0000
     0.0000   0.0000   0.0000   0.0000   0.0000   0.0000   0.0000   0.0000
     0.0000   0.0000   0.0000   0.0000   0.0000   0.0000   0.0000   0.0000
     0.0000   0.0000   0.0000   0.0000   0.0000

          k =-0.5000-0.5000-0.5000 ( 82136 PWs)   bands (ev):

    -8.0312  -7.9467  -7.9467  -7.9467  -7.7952  -7.7952  -7.7952  -7.3444
    -6.0024  -6.0024  -5.9975  -5.9975  -5.9975  -5.9618  -5.9076  -5.9076
    -5.9076  -5.8874  -5.8874  -5.8873  -5.8751  -5.8751  -5.8751  -5.8255
    -5.8254  -5.8254  -5.6790  -5.6790  -5.5475  -5.5475  -5.5474  -5.0792
    -4.0793  -4.0793  -4.0792  -4.0605  -4.0605  -4.0578  -4.0578  -4.0576
    -4.0318  -4.0314  -4.0314  -4.0034  -3.9189  -3.9189  -3.8674  -3.8674
    -3.8671  -3.8299  -3.8299  -3.8299  -3.7265  -3.7265  -3.7263  -3.3503
    -2.8609  -2.8605  -2.8605  -2.6704  -2.2060  -2.2056  -2.2056  -2.2025
    -2.2025  -2.2005  -2.0935  -2.0933  -2.0933  -2.0896  -2.0895  -2.0895
    -2.0851  -2.0851  -2.0849  -2.0842  -2.0842  -2.0840  -1.8156  -1.8156
    -1.7667  -1.7667  -1.7665  -1.6308  -1.2738  -1.2654  -1.2654  -1.2650
    -1.2462  -1.2462  -1.2462  -1.1908  -1.1908  -1.1815  -1.1813  -1.1813
    -1.1174  -1.1174  -1.1172  -1.0742  -1.0742  -0.9743  -0.9743  -0.9742
    -0.8440  -0.8440  -0.8436  -0.4317  -0.3702  -0.3702  -0.3698   0.5788
     1.1121   1.1291   1.1292   1.1292   1.1305   1.1305   1.1305   1.1411
     1.1411   1.1419   1.1419   1.1419   1.1885   1.1887   1.1887   1.2003
     1.2003   1.2050   1.2050   1.2053   1.3555   1.3555   1.3557   1.7041
     2.2863   2.2863   2.2864   2.3021   2.3022   2.3022   2.3081   2.3081
     2.3383   2.3383   2.3383   2.3446   2.3448   2.3448   2.3473   2.3473
     2.3526   2.4020   2.4020   2.4020   2.4360   2.4363   2.4363   2.4379
     2.4726   2.4726   2.4729   2.5217   2.5217   2.5218   2.5484   2.5486
     2.5486   2.5567   2.5567   2.5567   2.5904   2.5904   2.5905   2.6478
     2.6479   2.6479   2.7652   2.7652   3.1704   3.1704   3.1705   4.5806
     5.0130   5.0130   5.0168   5.0168   5.0170   5.0204   5.0205   5.0205
     5.0215   5.0215   5.0216   5.0250   5.0251   5.0251   5.0293   5.0293
     5.0313   5.0570   5.0570   5.0571   5.0635   5.0635   5.0637   5.0993
     5.2065   5.2065   5.2066   5.2228   5.2228   5.2400   5.2401   5.2401
     5.2823   5.2823   5.2823   5.3356   5.3608   5.3608   5.3608   5.3745
     5.3745   5.3745   5.4697   5.4697   5.4902   5.5202   5.5203   5.5203
     5.5752   5.5752   5.5895   5.5895   5.5896   5.6194   5.6196   5.6196
     5.6209   5.6211   5.6211   5.6361   5.6361   5.6364   5.6407   5.6437
     5.6437   5.7604   5.7604   5.7604   6.0965   6.0966   6.0966   6.8206
     6.8685   6.8685   6.8720   6.8720   6.8720   6.8805   6.8805   6.8807
     6.8856   6.8857   6.8857   6.9283   6.9814   6.9815   6.9815   6.9838
     7.0038   7.0038   7.0038   7.0297   7.0297   7.0301   7.0502   7.0502
     7.1174   7.1174   7.1327   7.1327   7.1327   7.1339   7.1339   7.1340
     7.1444   7.1618   7.1619   7.1619   7.1780   7.1780   7.1784   7.1865
     7.1865   7.1872   7.2043   7.2044   7.2044   7.2271   7.2272   7.2272
[...]
              0.390220973757280E+02
              0.844593731761259E+01
              0.120836832417593E+03
              0.155429445381253E+02
             -0.209026164020127E+02
              0.224712832678822E+02
             -0.200027913978860E+02
              0.920337181376062E+02
              0.572172442023128E+01
              0.145185687331383E+02
              0.665514122690016E+02
              0.218199674182429E+02
             -0.416863284852424E+02
             -0.779866177655948E+02
              0.432930960097224E+00
             -0.914916181058836E+02
              0.311885001358744E+02
             -0.102812577988328E+02
             -0.314750526616172E+02
              0.287998954138528E+02
              0.139268664610223E+02
              0.328543501842776E+02
             -0.907885016404776E+00
              0.484355916689387E+02
             -0.884072648597380E+02
             -0.415224784344650E+01
             -0.802420688313368E+02
              0.257506744186621E+02
              0.391974293131742E+02
             -0.747500838781076E+01
             -0.233366549839102E+02
              0.684574006002111E+02
             -0.309224742289406E+02
              0.215439209724526E+02
             -0.144616091410855E+02
              0.538636836459360E+02
              0.447559266073509E+02
             -0.203400280823441E+02
              0.462437943856056E+02
              0.173096267718487E+02
             -0.474508699168414E+02
             -0.236045045298126E+02
              0.725256780780835E+02
              0.343637161517757E+02
              0.213943623381624E+00
             -0.944930895723815E+01
              0.114915883308539E+03
              0.658502709368539E+02
              0.212853326385093E+02
             -0.817527207057950E+02
              0.113598088923853E+03
             -0.597839589515609E+02
             -0.702339477662990E+02
             -0.954464047572946E+02
              0.474503932567115E+02
             -0.843501738140340E+02
              0.377739026391528E+02
              0.736829063706031E+02
              0.468084870982847E+02
              0.230544945434866E+02
              0.296703347460253E+02
             -0.751094153460856E+02
             -0.249901152556048E+02
             -0.211240252839673E+02
              0.404043213773091E+02
              0.684664106233520E+02
              0.797304194284830E+02
              0.665957006819972E+02
             -0.162937811524655E+02
              0.161339024536435E+02
             -0.640492569777490E+01
             -0.243770435456874E+02
              0.264217193922326E+02
              0.276055883995774E+02
             -0.387660668885300E+02
             -0.520316694815089E+02
             -0.183152481342023E+02
              0.660581900412847E+02
              0.328743292892426E+02
             -0.428737965460502E+02
             -0.568400695505130E+02
             -0.741647173307116E+02
             -0.328812713837203E+01
              0.159220220910348E+02
             -0.312885843657000E+02
              0.111935020891313E+03
              0.960884436644909E+01
             -0.133737918520489E+03
              0.299538218722938E+02
              0.651589958183897E+02
             -0.281845997124009E+02
              0.617723624165117E+01
             -0.428386347653164E+02
              0.526254705232087E+02
              0.200186539788191E+02
             -0.674327288095246E+02
              0.824439557529195E+02
             -0.739247302074932E+01
             -0.447564387309817E+02
             -0.428952795735349E+02
              0.155487589647348E+03
              0.751913616316090E+02
             -0.166032699542815E+02
              0.445264463496142E+02
             -0.587631518332840E+02
             -0.904002777483754E+01
             -0.701814086802406E+02
              0.302410125143642E+02
              0.401956722280938E+02
              0.545286638054081E+02
             -0.233655543280909E+02
              0.693627678194605E+01
              0.604719597553942E+02
              0.300374602226695E+02
              0.393369427743074E+02
              0.183181408393086E+02
             -0.149144787773553E+02
             -0.165825633212992E+01
             -0.105490006968487E+02
              0.155909511656274E+02
              0.623656004023064E+01
             -0.496504529776917E+02
              0.923745158103949E+02
              0.391379375292126E+02
             -0.600958240837707E+02
             -0.411378635519193E+02
             -0.673460802221034E+02
             -0.342570596852628E+02
             -0.216061403280531E+02
             -0.529201144425098E+02
             -0.535510589430014E+02
              0.825887146613505E+02
              0.559292867346006E+02
             -0.131067013332855E+02
              0.730310846968351E+02
              0.197011200081783E+02
             -0.126959506773677E+03
              0.653289048336491E+02
              0.192683143297364E+02
              0.596745508947508E+02
              0.153525113247190E+02
              0.160942067932681E+02
              0.139061341386275E+02
              0.363465981615762E+02
             -0.471197018344193E+02
             -0.270879282837707E+02
             -0.411550455873921E+02
             -0.290389111834237E+02
              0.175266328934845E+02
             -0.451510824359888E+02
              0.176666857016208E+02
              0.257290701264091E+02
             -0.307742638122472E+02
             -0.124312938137785E+02
             -0.343478553508675E+01
              0.795934674455576E+02
              0.606842356179288E+01
              0.861926515070273E+02
              0.223163203967518E+02
             -0.983859883462949E+02
             -0.381460155313447E+02
              0.334127075345210E+02
              0.651181200860655E+02
              0.245093164455303E+02
              0.256271500432918E+02
              0.692537563760075E+02
             -0.472493294666045E+02
             -0.733194894371982E+02
              0.860405304471749E+02
             -0.884268043872657E+01
             -0.980127647290848E+02
              0.329255131662585E+02
              0.635080315539776E+02
             -0.100591757297033E+02
             -0.499526756141132E+02
             -0.246571450820011E+01
              0.784042992061222E+01
             -0.300802585552041E+02
              0.163368169975769E+02
             -0.117947496488067E+02
              0.130329474643133E+03
              0.296302673446624E+02
             -0.653309120217616E+02
              0.190653986458639E+02
              0.871713087280248E+02
             -0.486509853279498E+02
             -0.257091267552479E+02
             -0.470514689982855E+02
              0.306692509071655E+02
              0.210522401910564E+02
              0.192685773876896E+02
             -0.809009693624887E+00
              0.930047698151459E+02
             -0.607873223061581E+02
             -0.461998917697109E+02
             -0.441297740959645E+02
              0.458072919518245E+02
              0.884227516596453E+02
             -0.279787795162767E+01
              0.380184795262139E+02
             -0.471542116452910E+02
             -0.452676792395033E+01
             -0.128554059895411E+02
             -0.188870505071113E+02
             -0.234137330048723E+02
             -0.243492995319405E+02
             -0.157358247854801E+02
              0.238790019867323E+02
              0.233869336636284E+02
             -0.661635737454183E+02
              0.463125391679358E+02
             -0.735792365973382E+02
              0.533653960418725E+02
             -0.725516102751194E+02
              0.109024939205331E+03
              0.538517875871385E+02
              0.533933688010819E+02
              0.111849512227003E+02
              0.652235229560642E+01
             -0.136768167519570E+03
              0.267024071975288E+02
              0.770763259032753E+01
              0.295302460131552E+01
             -0.170833775421466E+02
              0.978704112476984E+02
             -0.443036151626404E+02
             -0.354095613332530E+02
             -0.107024622337025E+03
             -0.363040881333434E+02
             -0.426519936571597E+02
             -0.450044057191753E+02
             -0.108539796359919E+02
             -0.193463219567878E+02
             -0.280006960038647E+02
             -0.452020161723145E+02
              0.340500040011495E+02
              0.107074753360229E+03
              0.929225774656183E+02
             -0.310430133944789E+02
             -0.115846525709489E+03
             -0.458763709756557E+02
              0.293388451246836E+02
              0.204127491057618E+02
              0.280123436524030E+02
              0.291431157628081E+02
              0.897443311162385E+01
              0.943374419118908E+02
             -0.248212778285770E+02
              0.560953506953427E+02
              0.181657856846972E+02
             -0.351985437720570E+02
             -0.246180110319567E+02
              0.475396173245152E+02
             -0.203045966236398E+02
             -0.235831400603083E+02
             -0.127709385580198E+02
              0.606470786594728E+02
             -0.756637146689866E+02
             -0.174645015164452E+02
             -0.660361522242156E+02
             -0.143381816154379E+03
              0.684486140551132E+01
             -0.146603491180269E+02
              0.502920176167091E+02
              0.536836532144581E+02
              0.813202541843341E+02
             -0.495965051845852E+02
              0.843970388892830E+02
              0.197899580965962E+02
             -0.160098312740774E+02
              0.175835041743943E+02
             -0.335196701035085E+02
             -0.217139886347368E+02
              0.412520280502853E+02
             -0.460943504366275E+02
              0.106100230876041E+03
             -0.261467534570934E+02
             -0.578990691300938E+02
              0.104780008684305E+03
             -0.612304788900666E+02
             -0.144471463311675E+02
              0.108369195181349E+02
              0.304134831455698E+02
             -0.488309031304849E+02
             -0.378203725545579E+02
              0.494966483654774E+02
             -0.945396301160183E+02
              0.625367552641083E+02
              0.112347347523407E+02
              0.493666307064530E+02
              0.682012364561729E+02
              0.905093866764484E+01
             -0.801921969074366E+02
             -0.402273828121969E+02
             -0.681471618359834E+02
             -0.403055833262451E+02
             -0.260149768917863E+02
              0.106417198717692E+02
             -0.222739259460378E+02
              0.594323984376888E+01
             -0.116282107773854E+03
             -0.412345298035802E+01
             -0.678699562250267E+02
              0.619181613380709E+02
             -0.264506252749036E+02
             -0.823298481492584E+01
              0.471145184419829E+02
              0.234511251435895E+01
              0.513120072629909E+02
             -0.799071131574110E+02
              0.197560513944430E+02
              0.111992127174619E+02
              0.264397794190110E+02
              0.642244190505331E+02
             -0.496807217485429E+01
             -0.751561696469501E+02
             -0.374844716986738E+02
             -0.270208725938429E+02
             -0.150822422122858E+02
              0.620054874426294E+02
              0.416587942398762E+02
             -0.325320519815253E+02
             -0.420146699834766E+02
              0.349422770058939E+02
              0.315812207934769E+02
             -0.802487146194042E+02
              0.253469125369038E+02
              0.603461730852614E+02
             -0.469339541089668E+01
              0.683497732026636E+02
              0.401900903747693E+02
              0.524037544142950E+02
              0.744430831692703E+02
              0.274020760695417E+01
             -0.122339860228278E+03
              0.111521827859057E+02
              0.132824670349511E+03
              0.884891687947779E+02
             -0.623913172646826E+02
              0.469012793778899E+01
              0.736539427363268E+02
              0.680562350593759E+02
              0.290289365571883E+02
             -0.208765501732312E+02
              0.322440682747314E+02
              0.799274338568788E+02
             -0.274059747217493E+02
             -0.263517353610001E+02
              0.458625989930478E+02
             -0.694230172671922E+01
              0.369473869116010E+02
              0.505250686579046E-01
              0.879928105097528E+02
             -0.297739754632551E+02
              0.122841595616410E+02
             -0.476884848702233E+02
              0.429293964412138E+02
             -0.531279267516379E+01
              0.684918929448136E+02
              0.478643085026567E+01
              0.190586965987352E+02
             -0.457151441747557E+02
             -0.250514966615834E+02
             -0.140260302762366E+02
             -0.576333809402198E+01
              0.721889879578910E+02
              0.205756675219076E+02
              0.954246009514572E+02
              0.564228383326613E+02
              0.890079079350630E+01
              0.725485814037086E-02
              0.866678051745394E+02
              0.453631996066009E+02
              0.560457934278065E+01
              0.801253149911635E+02
             -0.713108027638486E+02
              0.298521428627322E+02
             -0.379298098692414E+02
             -0.288099847900182E+02
              0.103962559294137E+03
             -0.169080285012802E+02
              0.995508332545114E+00
             -0.165220954229526E+02
              0.868068957211163E+02
             -0.243059429414899E+02
             -0.243158834556382E+01
              0.179944286204103E+03
             -0.647695073144861E+02
             -0.526518603485151E+02
             -0.675638234071573E+02
             -0.318369372786924E+02
              0.369419865409415E+02
             -0.168817255965268E+02
              0.156332003186619E+02
              0.638664645873746E+00
              0.225813475398239E+02
              0.364629589620137E+02
              0.344583461606999E+02
              0.733018271113848E+02
              0.300184634445562E+02
              0.511072760625651E+02
             -0.731890676214732E+02
             -0.570574884279063E+02
             -0.232024995017437E+02
             -0.627264047916341E+02
              0.113044302482412E+03
              0.969802386167003E+02
              0.421456309669700E+02
              0.114329301548005E+03
             -0.613338779469831E+02
             -0.295001878089141E+02
             -0.304399300549348E+02
              0.902070592069786E+02
 
 BEEF-vdW xc energy contributions
            1 :    -881.8632147264410     
            2 :     778.2723149299993     
            3 :    -599.5689294102668     
            4 :     391.9892981200720     
            5 :    -202.7962591909617     
            6 :     64.69593475761940     
            7 :     12.36349918524263     
            8 :    -39.49482469613542     
            9 :     39.34570959874964     
           10 :    -34.01909809798315     
           11 :     36.12667145495345     
           12 :    -46.35356784054841     
           13 :     57.30503211249595     
           14 :    -60.42955825372280     
           15 :     51.87280457076383     
           16 :    -34.41576719552233     
           17 :     15.21047004137154     
           18 :    -1.329234277025876     
           19 :    -3.998608704365324     
           20 :     2.433570564571028     
           21 :     1.328417932981097     
           22 :    -2.816928041664482     
           23 :    0.3674767480932815     
           24 :     4.377666030942237     
           25 :    -8.040723922827851     
           26 :     7.924888657794213     
           27 :    -3.706995815087680     
           28 :    -2.531585197431355     
           29 :     7.757675578929366     
           30 :    -9.864845962248523     
           31 :    -115.3790330766495     
           32 :    -83.75923239883878     

     Writing all to output data dir ./diamond.save/
 
     init_run     :      2.57s CPU      4.56s WALL (       1 calls)
     electrons    :     48.85s CPU     50.72s WALL (       1 calls)
     forces       :      2.35s CPU      2.46s WALL (       1 calls)
     stress       :     29.30s CPU     29.63s WALL (       1 calls)

     Called by init_run:
     wfcinit      :      0.97s CPU      2.76s WALL (       1 calls)
     potinit      :      0.51s CPU      0.65s WALL (       1 calls)
     hinit0       :      0.56s CPU      0.59s WALL (       1 calls)

     Called by electrons:
     c_bands      :     46.52s CPU     48.18s WALL (       2 calls)
     sum_band     :      1.58s CPU      1.62s WALL (       2 calls)
     v_of_rho     :      0.71s CPU      0.79s WALL (       2 calls)
     v_h          :      0.01s CPU      0.01s WALL (       2 calls)
     v_xc         :     10.22s CPU     11.33s WALL (      38 calls)
     newd         :      0.06s CPU      0.08s WALL (       2 calls)
     PAW_pot      :      0.12s CPU      0.13s WALL (       2 calls)
     mix_rho      :      0.00s CPU      0.00s WALL (       2 calls)
     vdW_kernel   :      0.16s CPU      0.17s WALL (       1 calls)

     Called by c_bands:
     init_us_2    :      0.09s CPU      0.09s WALL (       4 calls)
     init_us_2:cp :      0.09s CPU      0.09s WALL (       4 calls)
     cegterg      :     41.01s CPU     41.59s WALL (       2 calls)

     Called by sum_band:
     sum_band:wei :      0.01s CPU      0.01s WALL (       2 calls)
     sum_band:loo :      1.37s CPU      1.40s WALL (       2 calls)
     sum_band:buf :      0.00s CPU      0.00s WALL (       2 calls)
     sum_band:ini :      0.08s CPU      0.08s WALL (       2 calls)
     sum_band:cal :      0.76s CPU      0.77s WALL (       2 calls)
     sum_band:bec :      0.02s CPU      0.02s WALL (       2 calls)
     addusdens    :      0.07s CPU      0.07s WALL (       2 calls)
     addusd:skk   :      0.02s CPU      0.02s WALL (       2 calls)
     addusd:dgemm :      0.02s CPU      0.03s WALL (       2 calls)
     addusd:qvan2 :      0.00s CPU      0.00s WALL (       2 calls)

     Called by *egterg:
     cdiaghg      :     27.94s CPU     28.11s WALL (      13 calls)
     cegterg:over :      2.04s CPU      2.13s WALL (      13 calls)
     cegterg:upda :      1.14s CPU      1.18s WALL (      13 calls)
     cegterg:last :      0.52s CPU      0.52s WALL (       2 calls)
     h_psi        :      6.63s CPU      6.77s WALL (      15 calls)
     s_psi        :      1.85s CPU      1.87s WALL (      15 calls)
     g_psi        :      0.01s CPU      0.01s WALL (      13 calls)

     Called by h_psi:
     h_psi:calbec :      2.09s CPU      2.11s WALL (      15 calls)
     vloc_psi     :      2.64s CPU      2.69s WALL (      15 calls)
     add_vuspsi   :      1.86s CPU      1.89s WALL (      15 calls)

     General routines
     calbec       :      4.77s CPU      4.81s WALL (      22 calls)
     fft          :      5.27s CPU      5.35s WALL (    2232 calls)
     ffts         :      0.01s CPU      0.01s WALL (       4 calls)
     fftw         :      2.98s CPU      3.04s WALL (    6318 calls)
     interpolate  :      0.01s CPU      0.01s WALL (       2 calls)
 
     Parallel routines

     PAW routines
     PAW_pot      :      0.12s CPU      0.13s WALL (       2 calls)
     PAW_symme    :      0.01s CPU      0.01s WALL (       3 calls)
 
     PWSCF        :   1m36.81s CPU   1m45.48s WALL

 
   This run was terminated on:  16:34: 5  19Feb2024            

=------------------------------------------------------------------------------=
   JOB DONE.
=------------------------------------------------------------------------------=
