
     Program PWSCF v.7.1 starts on 29Sep2023 at 13:52:58 

     This program is part of the open-source Quantum ESPRESSO suite
     for quantum simulation of materials; please cite
         "P. Giannozzi et al., J. Phys.:Condens. Matter 21 395502 (2009);
         "P. Giannozzi et al., J. Phys.:Condens. Matter 29 465901 (2017);
         "P. Giannozzi et al., J. Chem. Phys. 152 154105 (2020);
          URL http://www.quantum-espresso.org", 
     in publications or presentations arising from this work. More details at
     http://www.quantum-espresso.org/quote

     Parallel version (MPI & OpenMP), running on     256 processor cores
     Number of MPI processes:               256
     Threads/MPI process:                     1

     MPI processes distributed on     2 nodes
     1841012 MiB available memory on the printing compute node when the environment starts
 
     Reading input from espresso.pwi
Warning: card &CELL ignored
Warning: card    CELL_DYNAMICS    = 'BFGS' ignored
Warning: card / ignored

     Current dimensions of program PWSCF are:
     Max number of different atomic species (ntypx) = 10
     Max number of k-points (npk) =  40000
     Max angular momentum in pseudopotentials (lmaxx) =  4
     file C.pbe-n-kjpaw_psl.1.0.0.UPF: wavefunction(s)  2S 2P renormalized

     **************************************************************************
     Initializing libbeef V0.1.2 with the BEEF-vdW functional.
     Citation: Wellendorff et al., PRB 85, 235149 (2012).
     **************************************************************************


     IMPORTANT: XC functional enforced from input :
     Exchange-correlation= BEEF-VDW
                           (   1   4  43  14   2   0   0)
     Any further DFT definition will be discarded
     Please, verify this is what you really want

 
     K-points division:     npool     =       4
     R & G space division:  proc/nbgrp/npool/nimage =      64
     Subspace diagonalization in iterative solution of the eigenvalue problem:
     a serial algorithm will be used

 
     Parallelization info
     --------------------
     sticks:   dense  smooth     PW     G-vecs:    dense   smooth      PW
     Min         178     142     38                14350    10258    1410
     Max         179     143     39                14357    10265    1416
     Sum       11433    9133   2433               918657   656775   90447
 
     Using Slab Decomposition
 


     bravais-lattice index     =            1
     lattice parameter (alat)  =      20.2520  a.u.
     unit-cell volume          =    8306.2556 (a.u.)^3
     number of atoms/cell      =          215
     number of atomic types    =            1
     number of electrons       =       862.00
     number of Kohn-Sham states=          517
     kinetic-energy cutoff     =      70.0000  Ry
     charge density cutoff     =     350.0000  Ry
     scf convergence threshold =      1.0E-08
     mixing beta               =       0.7000
     number of iterations used =            8  plain     mixing
     energy convergence thresh.=      1.0E-04
     force convergence thresh. =      1.0E-03
     Exchange-correlation= BEEF-VDW
                           (   1   4  43  14   2   0   0)
     nstep                     =           50


     celldm(1)=  20.252024  celldm(2)=   0.000000  celldm(3)=   0.000000
     celldm(4)=   0.000000  celldm(5)=   0.000000  celldm(6)=   0.000000

     crystal axes: (cart. coord. in units of alat)
               a(1) = (   1.000000   0.000000   0.000000 )  
               a(2) = (   0.000000   1.000000   0.000000 )  
               a(3) = (   0.000000   0.000000   1.000000 )  

     reciprocal axes: (cart. coord. in units 2 pi/alat)
               b(1) = (  1.000000  0.000000  0.000000 )  
               b(2) = (  0.000000  1.000000  0.000000 )  
               b(3) = (  0.000000  0.000000  1.000000 )  


     PseudoPot. # 1 for C  read from file:
     //group///packages/espresso/pseudo/psl_1.0.0/pslibrary.1.0.0/pbe/PSEUDOPOTENTIALS/C.pbe-n-kjpaw_psl.1.0.0.UPF
     MD5 check sum: 5459cf7f2c8c37df2f7cde8914797f4d
     Pseudo is Projector augmented-wave + core cor, Zval =  4.0
     Generated using 'atomic' code by A. Dal Corso  v.7.1
     Shape of augmentation charge: PSQ
     Using radial grid of 1073 points,  4 beta functions with: 
                l(1) =   0
                l(2) =   0
                l(3) =   1
                l(4) =   1
     Q(r) pseudized with 0 coefficients 


     atomic species   valence    mass     pseudopotential
        C              4.00    12.01100     C ( 1.00)

      6 Sym. Ops. (no inversion) found ( 4 have fractional translation)


                                    s                        frac. trans.

      isym =  1     identity                                     

 cryst.   s( 1) = (     1          0          0      )
                  (     0          1          0      )
                  (     0          0          1      )

 cart.    s( 1) = (  1.0000000  0.0000000  0.0000000 )
                  (  0.0000000  1.0000000  0.0000000 )
                  (  0.0000000  0.0000000  1.0000000 )


      isym =  2     120 deg rotation - cart. axis [1,-1,1]       

 cryst.   s( 2) = (     0          0          1      )    f =( -0.3333333 )
                  (    -1          0          0      )       ( -0.3333333 )
                  (     0         -1          0      )       (  0.0000000 )

 cart.    s( 2) = (  0.0000000 -1.0000000  0.0000000 )    f =( -0.3333333 )
                  (  0.0000000  0.0000000 -1.0000000 )       ( -0.3333333 )
                  (  1.0000000  0.0000000  0.0000000 )       (  0.0000000 )


      isym =  3     120 deg rotation - cart. axis [-1,1,-1]      

 cryst.   s( 3) = (     0         -1          0      )    f =(  0.0000000 )
                  (     0          0         -1      )       ( -0.3333333 )
                  (     1          0          0      )       ( -0.3333333 )

 cart.    s( 3) = (  0.0000000  0.0000000  1.0000000 )    f =(  0.0000000 )
                  ( -1.0000000  0.0000000  0.0000000 )       ( -0.3333333 )
                  (  0.0000000 -1.0000000  0.0000000 )       ( -0.3333333 )


      isym =  4     inv. 180 deg rotation - cart. axis [1,1,0]   

 cryst.   s( 4) = (     0         -1          0      )    f =( -0.3333333 )
                  (    -1          0          0      )       ( -0.3333333 )
                  (     0          0          1      )       (  0.0000000 )

 cart.    s( 4) = (  0.0000000 -1.0000000  0.0000000 )    f =( -0.3333333 )
                  ( -1.0000000  0.0000000  0.0000000 )       ( -0.3333333 )
                  (  0.0000000  0.0000000  1.0000000 )       (  0.0000000 )


      isym =  5     inv. 180 deg rotation - cart. axis [-1,0,1]  

 cryst.   s( 5) = (     0          0          1      )
                  (     0          1          0      )
                  (     1          0          0      )

 cart.    s( 5) = (  0.0000000  0.0000000  1.0000000 )
                  (  0.0000000  1.0000000  0.0000000 )
                  (  1.0000000  0.0000000  0.0000000 )


      isym =  6     inv. 180 deg rotation - cart. axis [0,1,1]   

 cryst.   s( 6) = (     1          0          0      )    f =(  0.0000000 )
                  (     0          0         -1      )       ( -0.3333333 )
                  (     0         -1          0      )       ( -0.3333333 )

 cart.    s( 6) = (  1.0000000  0.0000000  0.0000000 )    f =(  0.0000000 )
                  (  0.0000000  0.0000000 -1.0000000 )       ( -0.3333333 )
                  (  0.0000000 -1.0000000  0.0000000 )       ( -0.3333333 )


     point group C_3v (3m)  
     there are  3 classes
     the character table:

       E     2C3   3s_v 
A_1    1.00  1.00  1.00
A_2    1.00  1.00 -1.00
E      2.00 -1.00  0.00

     the symmetry operations in each class and the name of the first element:

     E        1
          identity                                               
     2C3      2    3
          120 deg rotation - cart. axis [1,-1,1]                 
     3s_v     4    5    6
          inv. 180 deg rotation - cart. axis [1,1,0]             

   Cartesian axes

     site n.     atom                  positions (alat units)
         1           C   tau(   1) = (   0.0833353   0.2499980   0.4166687  )
         2           C   tau(   2) = (   0.0833353   0.2499980   0.7500020  )
         3           C   tau(   3) = (   0.0833353   0.5833313   0.0833353  )
         4           C   tau(   4) = (   0.0833353   0.5833313   0.4166687  )
         5           C   tau(   5) = (   0.0833353   0.5833313   0.7500020  )
         6           C   tau(   6) = (   0.0833353   0.9166647   0.0833353  )
         7           C   tau(   7) = (   0.0833353   0.9166647   0.4166687  )
         8           C   tau(   8) = (   0.0833353   0.9166647   0.7500020  )
         9           C   tau(   9) = (   0.4166687   0.2499980   0.0833353  )
        10           C   tau(  10) = (   0.4166687   0.2499980   0.4166687  )
        11           C   tau(  11) = (   0.4166687   0.2499980   0.7500020  )
        12           C   tau(  12) = (   0.4166687   0.5833313   0.0833353  )
        13           C   tau(  13) = (   0.4166687   0.5833313   0.4166687  )
        14           C   tau(  14) = (   0.4166687   0.5833313   0.7500020  )
        15           C   tau(  15) = (   0.4166687   0.9166647   0.0833353  )
        16           C   tau(  16) = (   0.4166687   0.9166647   0.4166687  )
        17           C   tau(  17) = (   0.4166687   0.9166647   0.7500020  )
        18           C   tau(  18) = (   0.7500020   0.2499980   0.0833353  )
        19           C   tau(  19) = (   0.7500020   0.2499980   0.4166687  )
        20           C   tau(  20) = (   0.7500020   0.2499980   0.7500020  )
        21           C   tau(  21) = (   0.7500020   0.5833313   0.0833353  )
        22           C   tau(  22) = (   0.7500020   0.5833313   0.4166687  )
        23           C   tau(  23) = (   0.7500020   0.5833313   0.7500020  )
        24           C   tau(  24) = (   0.7500020   0.9166647   0.0833353  )
        25           C   tau(  25) = (   0.7500020   0.9166647   0.4166687  )
        26           C   tau(  26) = (   0.7500020   0.9166647   0.7500020  )
        27           C   tau(  27) = (   0.0000000   0.0000000   0.1666667  )
        28           C   tau(  28) = (   0.0000000   0.0000000   0.5000000  )
        29           C   tau(  29) = (   0.0000000   0.0000000   0.8333333  )
        30           C   tau(  30) = (   0.0000000   0.3333333   0.1666667  )
        31           C   tau(  31) = (   0.0000000   0.3333333   0.5000000  )
        32           C   tau(  32) = (   0.0000000   0.3333333   0.8333333  )
        33           C   tau(  33) = (   0.0000000   0.6666667   0.1666667  )
        34           C   tau(  34) = (   0.0000000   0.6666667   0.5000000  )
        35           C   tau(  35) = (   0.0000000   0.6666667   0.8333333  )
        36           C   tau(  36) = (   0.3333333   0.0000000   0.1666667  )
        37           C   tau(  37) = (   0.3333333   0.0000000   0.5000000  )
        38           C   tau(  38) = (   0.3333333   0.0000000   0.8333333  )
        39           C   tau(  39) = (   0.3333333   0.3333333   0.1666667  )
        40           C   tau(  40) = (   0.3333333   0.3333333   0.5000000  )
        41           C   tau(  41) = (   0.3333333   0.3333333   0.8333333  )
        42           C   tau(  42) = (   0.3333333   0.6666667   0.1666667  )
        43           C   tau(  43) = (   0.3333333   0.6666667   0.5000000  )
        44           C   tau(  44) = (   0.3333333   0.6666667   0.8333333  )
        45           C   tau(  45) = (   0.6666667   0.0000000   0.1666667  )
        46           C   tau(  46) = (   0.6666667   0.0000000   0.5000000  )
        47           C   tau(  47) = (   0.6666667   0.0000000   0.8333333  )
        48           C   tau(  48) = (   0.6666667   0.3333333   0.1666667  )
        49           C   tau(  49) = (   0.6666667   0.3333333   0.5000000  )
        50           C   tau(  50) = (   0.6666667   0.3333333   0.8333333  )
        51           C   tau(  51) = (   0.6666667   0.6666667   0.1666667  )
        52           C   tau(  52) = (   0.6666667   0.6666667   0.5000000  )
        53           C   tau(  53) = (   0.6666667   0.6666667   0.8333333  )
        54           C   tau(  54) = (   0.0833353   0.0833353   0.2499980  )
        55           C   tau(  55) = (   0.0833353   0.0833353   0.5833313  )
        56           C   tau(  56) = (   0.0833353   0.0833353   0.9166647  )
        57           C   tau(  57) = (   0.0833353   0.4166687   0.2499980  )
        58           C   tau(  58) = (   0.0833353   0.4166687   0.5833313  )
        59           C   tau(  59) = (   0.0833353   0.4166687   0.9166647  )
        60           C   tau(  60) = (   0.0833353   0.7500020   0.2499980  )
        61           C   tau(  61) = (   0.0833353   0.7500020   0.5833313  )
        62           C   tau(  62) = (   0.0833353   0.7500020   0.9166647  )
        63           C   tau(  63) = (   0.4166687   0.0833353   0.2499980  )
        64           C   tau(  64) = (   0.4166687   0.0833353   0.5833313  )
        65           C   tau(  65) = (   0.4166687   0.0833353   0.9166647  )
        66           C   tau(  66) = (   0.4166687   0.4166687   0.2499980  )
        67           C   tau(  67) = (   0.4166687   0.4166687   0.5833313  )
        68           C   tau(  68) = (   0.4166687   0.4166687   0.9166647  )
        69           C   tau(  69) = (   0.4166687   0.7500020   0.2499980  )
        70           C   tau(  70) = (   0.4166687   0.7500020   0.5833313  )
        71           C   tau(  71) = (   0.4166687   0.7500020   0.9166647  )
        72           C   tau(  72) = (   0.7500020   0.0833353   0.2499980  )
        73           C   tau(  73) = (   0.7500020   0.0833353   0.5833313  )
        74           C   tau(  74) = (   0.7500020   0.0833353   0.9166647  )
        75           C   tau(  75) = (   0.7500020   0.4166687   0.2499980  )
        76           C   tau(  76) = (   0.7500020   0.4166687   0.5833313  )
        77           C   tau(  77) = (   0.7500020   0.4166687   0.9166647  )
        78           C   tau(  78) = (   0.7500020   0.7500020   0.2499980  )
        79           C   tau(  79) = (   0.7500020   0.7500020   0.5833313  )
        80           C   tau(  80) = (   0.7500020   0.7500020   0.9166647  )
        81           C   tau(  81) = (   0.0000000   0.1666667   0.0000000  )
        82           C   tau(  82) = (   0.0000000   0.1666667   0.3333333  )
        83           C   tau(  83) = (   0.0000000   0.1666667   0.6666667  )
        84           C   tau(  84) = (   0.0000000   0.5000000   0.0000000  )
        85           C   tau(  85) = (   0.0000000   0.5000000   0.3333333  )
        86           C   tau(  86) = (   0.0000000   0.5000000   0.6666667  )
        87           C   tau(  87) = (   0.0000000   0.8333333   0.0000000  )
        88           C   tau(  88) = (   0.0000000   0.8333333   0.3333333  )
        89           C   tau(  89) = (   0.0000000   0.8333333   0.6666667  )
        90           C   tau(  90) = (   0.3333333   0.1666667   0.0000000  )
        91           C   tau(  91) = (   0.3333333   0.1666667   0.3333333  )
        92           C   tau(  92) = (   0.3333333   0.1666667   0.6666667  )
        93           C   tau(  93) = (   0.3333333   0.5000000   0.0000000  )
        94           C   tau(  94) = (   0.3333333   0.5000000   0.3333333  )
        95           C   tau(  95) = (   0.3333333   0.5000000   0.6666667  )
        96           C   tau(  96) = (   0.3333333   0.8333333   0.0000000  )
        97           C   tau(  97) = (   0.3333333   0.8333333   0.3333333  )
        98           C   tau(  98) = (   0.3333333   0.8333333   0.6666667  )
        99           C   tau(  99) = (   0.6666667   0.1666667   0.0000000  )
       100           C   tau( 100) = (   0.6666667   0.1666667   0.3333333  )
       101           C   tau( 101) = (   0.6666667   0.1666667   0.6666667  )
       102           C   tau( 102) = (   0.6666667   0.5000000   0.0000000  )
       103           C   tau( 103) = (   0.6666667   0.5000000   0.3333333  )
       104           C   tau( 104) = (   0.6666667   0.5000000   0.6666667  )
       105           C   tau( 105) = (   0.6666667   0.8333333   0.0000000  )
       106           C   tau( 106) = (   0.6666667   0.8333333   0.3333333  )
       107           C   tau( 107) = (   0.6666667   0.8333333   0.6666667  )
       108           C   tau( 108) = (   0.2499980   0.2499980   0.2499980  )
       109           C   tau( 109) = (   0.2499980   0.2499980   0.5833313  )
       110           C   tau( 110) = (   0.2499980   0.2499980   0.9166647  )
       111           C   tau( 111) = (   0.2499980   0.5833313   0.2499980  )
       112           C   tau( 112) = (   0.2499980   0.5833313   0.5833313  )
       113           C   tau( 113) = (   0.2499980   0.5833313   0.9166647  )
       114           C   tau( 114) = (   0.2499980   0.9166647   0.2499980  )
       115           C   tau( 115) = (   0.2499980   0.9166647   0.5833313  )
       116           C   tau( 116) = (   0.2499980   0.9166647   0.9166647  )
       117           C   tau( 117) = (   0.5833313   0.2499980   0.2499980  )
       118           C   tau( 118) = (   0.5833313   0.2499980   0.5833313  )
       119           C   tau( 119) = (   0.5833313   0.2499980   0.9166647  )
       120           C   tau( 120) = (   0.5833313   0.5833313   0.2499980  )
       121           C   tau( 121) = (   0.5833313   0.5833313   0.5833313  )
       122           C   tau( 122) = (   0.5833313   0.5833313   0.9166647  )
       123           C   tau( 123) = (   0.5833313   0.9166647   0.2499980  )
       124           C   tau( 124) = (   0.5833313   0.9166647   0.5833313  )
       125           C   tau( 125) = (   0.5833313   0.9166647   0.9166647  )
       126           C   tau( 126) = (   0.9166647   0.2499980   0.2499980  )
       127           C   tau( 127) = (   0.9166647   0.2499980   0.5833313  )
       128           C   tau( 128) = (   0.9166647   0.2499980   0.9166647  )
       129           C   tau( 129) = (   0.9166647   0.5833313   0.2499980  )
       130           C   tau( 130) = (   0.9166647   0.5833313   0.5833313  )
       131           C   tau( 131) = (   0.9166647   0.5833313   0.9166647  )
       132           C   tau( 132) = (   0.9166647   0.9166647   0.2499980  )
       133           C   tau( 133) = (   0.9166647   0.9166647   0.5833313  )
       134           C   tau( 134) = (   0.9166647   0.9166647   0.9166647  )
       135           C   tau( 135) = (   0.1666667   0.0000000   0.0000000  )
       136           C   tau( 136) = (   0.1666667   0.0000000   0.3333333  )
       137           C   tau( 137) = (   0.1666667   0.0000000   0.6666667  )
       138           C   tau( 138) = (   0.1666667   0.3333333   0.0000000  )
       139           C   tau( 139) = (   0.1666667   0.3333333   0.3333333  )
       140           C   tau( 140) = (   0.1666667   0.3333333   0.6666667  )
       141           C   tau( 141) = (   0.1666667   0.6666667   0.0000000  )
       142           C   tau( 142) = (   0.1666667   0.6666667   0.3333333  )
       143           C   tau( 143) = (   0.1666667   0.6666667   0.6666667  )
       144           C   tau( 144) = (   0.5000000   0.0000000   0.0000000  )
       145           C   tau( 145) = (   0.5000000   0.0000000   0.3333333  )
       146           C   tau( 146) = (   0.5000000   0.0000000   0.6666667  )
       147           C   tau( 147) = (   0.5000000   0.3333333   0.0000000  )
       148           C   tau( 148) = (   0.5000000   0.3333333   0.3333333  )
       149           C   tau( 149) = (   0.5000000   0.3333333   0.6666667  )
       150           C   tau( 150) = (   0.5000000   0.6666667   0.0000000  )
       151           C   tau( 151) = (   0.5000000   0.6666667   0.3333333  )
       152           C   tau( 152) = (   0.5000000   0.6666667   0.6666667  )
       153           C   tau( 153) = (   0.8333333   0.0000000   0.0000000  )
       154           C   tau( 154) = (   0.8333333   0.0000000   0.3333333  )
       155           C   tau( 155) = (   0.8333333   0.0000000   0.6666667  )
       156           C   tau( 156) = (   0.8333333   0.3333333   0.0000000  )
       157           C   tau( 157) = (   0.8333333   0.3333333   0.3333333  )
       158           C   tau( 158) = (   0.8333333   0.3333333   0.6666667  )
       159           C   tau( 159) = (   0.8333333   0.6666667   0.0000000  )
       160           C   tau( 160) = (   0.8333333   0.6666667   0.3333333  )
       161           C   tau( 161) = (   0.8333333   0.6666667   0.6666667  )
       162           C   tau( 162) = (   0.2499980   0.0833353   0.0833353  )
       163           C   tau( 163) = (   0.2499980   0.0833353   0.4166687  )
       164           C   tau( 164) = (   0.2499980   0.0833353   0.7500020  )
       165           C   tau( 165) = (   0.2499980   0.4166687   0.0833353  )
       166           C   tau( 166) = (   0.2499980   0.4166687   0.4166687  )
       167           C   tau( 167) = (   0.2499980   0.4166687   0.7500020  )
       168           C   tau( 168) = (   0.2499980   0.7500020   0.0833353  )
       169           C   tau( 169) = (   0.2499980   0.7500020   0.4166687  )
       170           C   tau( 170) = (   0.2499980   0.7500020   0.7500020  )
       171           C   tau( 171) = (   0.5833313   0.0833353   0.0833353  )
       172           C   tau( 172) = (   0.5833313   0.0833353   0.4166687  )
       173           C   tau( 173) = (   0.5833313   0.0833353   0.7500020  )
       174           C   tau( 174) = (   0.5833313   0.4166687   0.0833353  )
       175           C   tau( 175) = (   0.5833313   0.4166687   0.4166687  )
       176           C   tau( 176) = (   0.5833313   0.4166687   0.7500020  )
       177           C   tau( 177) = (   0.5833313   0.7500020   0.0833353  )
       178           C   tau( 178) = (   0.5833313   0.7500020   0.4166687  )
       179           C   tau( 179) = (   0.5833313   0.7500020   0.7500020  )
       180           C   tau( 180) = (   0.9166647   0.0833353   0.0833353  )
       181           C   tau( 181) = (   0.9166647   0.0833353   0.4166687  )
       182           C   tau( 182) = (   0.9166647   0.0833353   0.7500020  )
       183           C   tau( 183) = (   0.9166647   0.4166687   0.0833353  )
       184           C   tau( 184) = (   0.9166647   0.4166687   0.4166687  )
       185           C   tau( 185) = (   0.9166647   0.4166687   0.7500020  )
       186           C   tau( 186) = (   0.9166647   0.7500020   0.0833353  )
       187           C   tau( 187) = (   0.9166647   0.7500020   0.4166687  )
       188           C   tau( 188) = (   0.9166647   0.7500020   0.7500020  )
       189           C   tau( 189) = (   0.1666667   0.1666667   0.1666667  )
       190           C   tau( 190) = (   0.1666667   0.1666667   0.5000000  )
       191           C   tau( 191) = (   0.1666667   0.1666667   0.8333333  )
       192           C   tau( 192) = (   0.1666667   0.5000000   0.1666667  )
       193           C   tau( 193) = (   0.1666667   0.5000000   0.5000000  )
       194           C   tau( 194) = (   0.1666667   0.5000000   0.8333333  )
       195           C   tau( 195) = (   0.1666667   0.8333333   0.1666667  )
       196           C   tau( 196) = (   0.1666667   0.8333333   0.5000000  )
       197           C   tau( 197) = (   0.1666667   0.8333333   0.8333333  )
       198           C   tau( 198) = (   0.5000000   0.1666667   0.1666667  )
       199           C   tau( 199) = (   0.5000000   0.1666667   0.5000000  )
       200           C   tau( 200) = (   0.5000000   0.1666667   0.8333333  )
       201           C   tau( 201) = (   0.5000000   0.5000000   0.1666667  )
       202           C   tau( 202) = (   0.5000000   0.5000000   0.5000000  )
       203           C   tau( 203) = (   0.5000000   0.5000000   0.8333333  )
       204           C   tau( 204) = (   0.5000000   0.8333333   0.1666667  )
       205           C   tau( 205) = (   0.5000000   0.8333333   0.5000000  )
       206           C   tau( 206) = (   0.5000000   0.8333333   0.8333333  )
       207           C   tau( 207) = (   0.8333333   0.1666667   0.1666667  )
       208           C   tau( 208) = (   0.8333333   0.1666667   0.5000000  )
       209           C   tau( 209) = (   0.8333333   0.1666667   0.8333333  )
       210           C   tau( 210) = (   0.8333333   0.5000000   0.1666667  )
       211           C   tau( 211) = (   0.8333333   0.5000000   0.5000000  )
       212           C   tau( 212) = (   0.8333333   0.5000000   0.8333333  )
       213           C   tau( 213) = (   0.8333333   0.8333333   0.1666667  )
       214           C   tau( 214) = (   0.8333333   0.8333333   0.5000000  )
       215           C   tau( 215) = (   0.8333333   0.8333333   0.8333333  )

   Crystallographic axes

     site n.     atom                  positions (cryst. coord.)
         1           C   tau(   1) = (  0.0833353  0.2499980  0.4166687  )
         2           C   tau(   2) = (  0.0833353  0.2499980  0.7500020  )
         3           C   tau(   3) = (  0.0833353  0.5833313  0.0833353  )
         4           C   tau(   4) = (  0.0833353  0.5833313  0.4166687  )
         5           C   tau(   5) = (  0.0833353  0.5833313  0.7500020  )
         6           C   tau(   6) = (  0.0833353  0.9166647  0.0833353  )
         7           C   tau(   7) = (  0.0833353  0.9166647  0.4166687  )
         8           C   tau(   8) = (  0.0833353  0.9166647  0.7500020  )
         9           C   tau(   9) = (  0.4166687  0.2499980  0.0833353  )
        10           C   tau(  10) = (  0.4166687  0.2499980  0.4166687  )
        11           C   tau(  11) = (  0.4166687  0.2499980  0.7500020  )
        12           C   tau(  12) = (  0.4166687  0.5833313  0.0833353  )
        13           C   tau(  13) = (  0.4166687  0.5833313  0.4166687  )
        14           C   tau(  14) = (  0.4166687  0.5833313  0.7500020  )
        15           C   tau(  15) = (  0.4166687  0.9166647  0.0833353  )
        16           C   tau(  16) = (  0.4166687  0.9166647  0.4166687  )
        17           C   tau(  17) = (  0.4166687  0.9166647  0.7500020  )
        18           C   tau(  18) = (  0.7500020  0.2499980  0.0833353  )
        19           C   tau(  19) = (  0.7500020  0.2499980  0.4166687  )
        20           C   tau(  20) = (  0.7500020  0.2499980  0.7500020  )
        21           C   tau(  21) = (  0.7500020  0.5833313  0.0833353  )
        22           C   tau(  22) = (  0.7500020  0.5833313  0.4166687  )
        23           C   tau(  23) = (  0.7500020  0.5833313  0.7500020  )
        24           C   tau(  24) = (  0.7500020  0.9166647  0.0833353  )
        25           C   tau(  25) = (  0.7500020  0.9166647  0.4166687  )
        26           C   tau(  26) = (  0.7500020  0.9166647  0.7500020  )
        27           C   tau(  27) = (  0.0000000  0.0000000  0.1666667  )
        28           C   tau(  28) = (  0.0000000  0.0000000  0.5000000  )
        29           C   tau(  29) = (  0.0000000  0.0000000  0.8333333  )
        30           C   tau(  30) = (  0.0000000  0.3333333  0.1666667  )
        31           C   tau(  31) = (  0.0000000  0.3333333  0.5000000  )
        32           C   tau(  32) = (  0.0000000  0.3333333  0.8333333  )
        33           C   tau(  33) = (  0.0000000  0.6666667  0.1666667  )
        34           C   tau(  34) = (  0.0000000  0.6666667  0.5000000  )
        35           C   tau(  35) = (  0.0000000  0.6666667  0.8333333  )
        36           C   tau(  36) = (  0.3333333  0.0000000  0.1666667  )
        37           C   tau(  37) = (  0.3333333  0.0000000  0.5000000  )
        38           C   tau(  38) = (  0.3333333  0.0000000  0.8333333  )
        39           C   tau(  39) = (  0.3333333  0.3333333  0.1666667  )
        40           C   tau(  40) = (  0.3333333  0.3333333  0.5000000  )
        41           C   tau(  41) = (  0.3333333  0.3333333  0.8333333  )
        42           C   tau(  42) = (  0.3333333  0.6666667  0.1666667  )
        43           C   tau(  43) = (  0.3333333  0.6666667  0.5000000  )
        44           C   tau(  44) = (  0.3333333  0.6666667  0.8333333  )
        45           C   tau(  45) = (  0.6666667  0.0000000  0.1666667  )
        46           C   tau(  46) = (  0.6666667  0.0000000  0.5000000  )
        47           C   tau(  47) = (  0.6666667  0.0000000  0.8333333  )
        48           C   tau(  48) = (  0.6666667  0.3333333  0.1666667  )
        49           C   tau(  49) = (  0.6666667  0.3333333  0.5000000  )
        50           C   tau(  50) = (  0.6666667  0.3333333  0.8333333  )
        51           C   tau(  51) = (  0.6666667  0.6666667  0.1666667  )
        52           C   tau(  52) = (  0.6666667  0.6666667  0.5000000  )
        53           C   tau(  53) = (  0.6666667  0.6666667  0.8333333  )
        54           C   tau(  54) = (  0.0833353  0.0833353  0.2499980  )
        55           C   tau(  55) = (  0.0833353  0.0833353  0.5833313  )
        56           C   tau(  56) = (  0.0833353  0.0833353  0.9166647  )
        57           C   tau(  57) = (  0.0833353  0.4166687  0.2499980  )
        58           C   tau(  58) = (  0.0833353  0.4166687  0.5833313  )
        59           C   tau(  59) = (  0.0833353  0.4166687  0.9166647  )
        60           C   tau(  60) = (  0.0833353  0.7500020  0.2499980  )
        61           C   tau(  61) = (  0.0833353  0.7500020  0.5833313  )
        62           C   tau(  62) = (  0.0833353  0.7500020  0.9166647  )
        63           C   tau(  63) = (  0.4166687  0.0833353  0.2499980  )
        64           C   tau(  64) = (  0.4166687  0.0833353  0.5833313  )
        65           C   tau(  65) = (  0.4166687  0.0833353  0.9166647  )
        66           C   tau(  66) = (  0.4166687  0.4166687  0.2499980  )
        67           C   tau(  67) = (  0.4166687  0.4166687  0.5833313  )
        68           C   tau(  68) = (  0.4166687  0.4166687  0.9166647  )
        69           C   tau(  69) = (  0.4166687  0.7500020  0.2499980  )
        70           C   tau(  70) = (  0.4166687  0.7500020  0.5833313  )
        71           C   tau(  71) = (  0.4166687  0.7500020  0.9166647  )
        72           C   tau(  72) = (  0.7500020  0.0833353  0.2499980  )
        73           C   tau(  73) = (  0.7500020  0.0833353  0.5833313  )
        74           C   tau(  74) = (  0.7500020  0.0833353  0.9166647  )
        75           C   tau(  75) = (  0.7500020  0.4166687  0.2499980  )
        76           C   tau(  76) = (  0.7500020  0.4166687  0.5833313  )
        77           C   tau(  77) = (  0.7500020  0.4166687  0.9166647  )
        78           C   tau(  78) = (  0.7500020  0.7500020  0.2499980  )
        79           C   tau(  79) = (  0.7500020  0.7500020  0.5833313  )
        80           C   tau(  80) = (  0.7500020  0.7500020  0.9166647  )
        81           C   tau(  81) = (  0.0000000  0.1666667  0.0000000  )
        82           C   tau(  82) = (  0.0000000  0.1666667  0.3333333  )
        83           C   tau(  83) = (  0.0000000  0.1666667  0.6666667  )
        84           C   tau(  84) = (  0.0000000  0.5000000  0.0000000  )
        85           C   tau(  85) = (  0.0000000  0.5000000  0.3333333  )
        86           C   tau(  86) = (  0.0000000  0.5000000  0.6666667  )
        87           C   tau(  87) = (  0.0000000  0.8333333  0.0000000  )
        88           C   tau(  88) = (  0.0000000  0.8333333  0.3333333  )
        89           C   tau(  89) = (  0.0000000  0.8333333  0.6666667  )
        90           C   tau(  90) = (  0.3333333  0.1666667  0.0000000  )
        91           C   tau(  91) = (  0.3333333  0.1666667  0.3333333  )
        92           C   tau(  92) = (  0.3333333  0.1666667  0.6666667  )
        93           C   tau(  93) = (  0.3333333  0.5000000  0.0000000  )
        94           C   tau(  94) = (  0.3333333  0.5000000  0.3333333  )
        95           C   tau(  95) = (  0.3333333  0.5000000  0.6666667  )
        96           C   tau(  96) = (  0.3333333  0.8333333  0.0000000  )
        97           C   tau(  97) = (  0.3333333  0.8333333  0.3333333  )
        98           C   tau(  98) = (  0.3333333  0.8333333  0.6666667  )
        99           C   tau(  99) = (  0.6666667  0.1666667  0.0000000  )
       100           C   tau( 100) = (  0.6666667  0.1666667  0.3333333  )
       101           C   tau( 101) = (  0.6666667  0.1666667  0.6666667  )
       102           C   tau( 102) = (  0.6666667  0.5000000  0.0000000  )
       103           C   tau( 103) = (  0.6666667  0.5000000  0.3333333  )
       104           C   tau( 104) = (  0.6666667  0.5000000  0.6666667  )
       105           C   tau( 105) = (  0.6666667  0.8333333  0.0000000  )
       106           C   tau( 106) = (  0.6666667  0.8333333  0.3333333  )
       107           C   tau( 107) = (  0.6666667  0.8333333  0.6666667  )
       108           C   tau( 108) = (  0.2499980  0.2499980  0.2499980  )
       109           C   tau( 109) = (  0.2499980  0.2499980  0.5833313  )
       110           C   tau( 110) = (  0.2499980  0.2499980  0.9166647  )
       111           C   tau( 111) = (  0.2499980  0.5833313  0.2499980  )
       112           C   tau( 112) = (  0.2499980  0.5833313  0.5833313  )
       113           C   tau( 113) = (  0.2499980  0.5833313  0.9166647  )
       114           C   tau( 114) = (  0.2499980  0.9166647  0.2499980  )
       115           C   tau( 115) = (  0.2499980  0.9166647  0.5833313  )
       116           C   tau( 116) = (  0.2499980  0.9166647  0.9166647  )
       117           C   tau( 117) = (  0.5833313  0.2499980  0.2499980  )
       118           C   tau( 118) = (  0.5833313  0.2499980  0.5833313  )
       119           C   tau( 119) = (  0.5833313  0.2499980  0.9166647  )
       120           C   tau( 120) = (  0.5833313  0.5833313  0.2499980  )
       121           C   tau( 121) = (  0.5833313  0.5833313  0.5833313  )
       122           C   tau( 122) = (  0.5833313  0.5833313  0.9166647  )
       123           C   tau( 123) = (  0.5833313  0.9166647  0.2499980  )
       124           C   tau( 124) = (  0.5833313  0.9166647  0.5833313  )
       125           C   tau( 125) = (  0.5833313  0.9166647  0.9166647  )
       126           C   tau( 126) = (  0.9166647  0.2499980  0.2499980  )
       127           C   tau( 127) = (  0.9166647  0.2499980  0.5833313  )
       128           C   tau( 128) = (  0.9166647  0.2499980  0.9166647  )
       129           C   tau( 129) = (  0.9166647  0.5833313  0.2499980  )
       130           C   tau( 130) = (  0.9166647  0.5833313  0.5833313  )
       131           C   tau( 131) = (  0.9166647  0.5833313  0.9166647  )
       132           C   tau( 132) = (  0.9166647  0.9166647  0.2499980  )
       133           C   tau( 133) = (  0.9166647  0.9166647  0.5833313  )
       134           C   tau( 134) = (  0.9166647  0.9166647  0.9166647  )
       135           C   tau( 135) = (  0.1666667  0.0000000  0.0000000  )
       136           C   tau( 136) = (  0.1666667  0.0000000  0.3333333  )
       137           C   tau( 137) = (  0.1666667  0.0000000  0.6666667  )
       138           C   tau( 138) = (  0.1666667  0.3333333  0.0000000  )
       139           C   tau( 139) = (  0.1666667  0.3333333  0.3333333  )
       140           C   tau( 140) = (  0.1666667  0.3333333  0.6666667  )
       141           C   tau( 141) = (  0.1666667  0.6666667  0.0000000  )
       142           C   tau( 142) = (  0.1666667  0.6666667  0.3333333  )
       143           C   tau( 143) = (  0.1666667  0.6666667  0.6666667  )
       144           C   tau( 144) = (  0.5000000  0.0000000  0.0000000  )
       145           C   tau( 145) = (  0.5000000  0.0000000  0.3333333  )
       146           C   tau( 146) = (  0.5000000  0.0000000  0.6666667  )
       147           C   tau( 147) = (  0.5000000  0.3333333  0.0000000  )
       148           C   tau( 148) = (  0.5000000  0.3333333  0.3333333  )
       149           C   tau( 149) = (  0.5000000  0.3333333  0.6666667  )
       150           C   tau( 150) = (  0.5000000  0.6666667  0.0000000  )
       151           C   tau( 151) = (  0.5000000  0.6666667  0.3333333  )
       152           C   tau( 152) = (  0.5000000  0.6666667  0.6666667  )
       153           C   tau( 153) = (  0.8333333  0.0000000  0.0000000  )
       154           C   tau( 154) = (  0.8333333  0.0000000  0.3333333  )
       155           C   tau( 155) = (  0.8333333  0.0000000  0.6666667  )
       156           C   tau( 156) = (  0.8333333  0.3333333  0.0000000  )
       157           C   tau( 157) = (  0.8333333  0.3333333  0.3333333  )
       158           C   tau( 158) = (  0.8333333  0.3333333  0.6666667  )
       159           C   tau( 159) = (  0.8333333  0.6666667  0.0000000  )
       160           C   tau( 160) = (  0.8333333  0.6666667  0.3333333  )
       161           C   tau( 161) = (  0.8333333  0.6666667  0.6666667  )
       162           C   tau( 162) = (  0.2499980  0.0833353  0.0833353  )
       163           C   tau( 163) = (  0.2499980  0.0833353  0.4166687  )
       164           C   tau( 164) = (  0.2499980  0.0833353  0.7500020  )
       165           C   tau( 165) = (  0.2499980  0.4166687  0.0833353  )
       166           C   tau( 166) = (  0.2499980  0.4166687  0.4166687  )
       167           C   tau( 167) = (  0.2499980  0.4166687  0.7500020  )
       168           C   tau( 168) = (  0.2499980  0.7500020  0.0833353  )
       169           C   tau( 169) = (  0.2499980  0.7500020  0.4166687  )
       170           C   tau( 170) = (  0.2499980  0.7500020  0.7500020  )
       171           C   tau( 171) = (  0.5833313  0.0833353  0.0833353  )
       172           C   tau( 172) = (  0.5833313  0.0833353  0.4166687  )
       173           C   tau( 173) = (  0.5833313  0.0833353  0.7500020  )
       174           C   tau( 174) = (  0.5833313  0.4166687  0.0833353  )
       175           C   tau( 175) = (  0.5833313  0.4166687  0.4166687  )
       176           C   tau( 176) = (  0.5833313  0.4166687  0.7500020  )
       177           C   tau( 177) = (  0.5833313  0.7500020  0.0833353  )
       178           C   tau( 178) = (  0.5833313  0.7500020  0.4166687  )
       179           C   tau( 179) = (  0.5833313  0.7500020  0.7500020  )
       180           C   tau( 180) = (  0.9166647  0.0833353  0.0833353  )
       181           C   tau( 181) = (  0.9166647  0.0833353  0.4166687  )
       182           C   tau( 182) = (  0.9166647  0.0833353  0.7500020  )
       183           C   tau( 183) = (  0.9166647  0.4166687  0.0833353  )
       184           C   tau( 184) = (  0.9166647  0.4166687  0.4166687  )
       185           C   tau( 185) = (  0.9166647  0.4166687  0.7500020  )
       186           C   tau( 186) = (  0.9166647  0.7500020  0.0833353  )
       187           C   tau( 187) = (  0.9166647  0.7500020  0.4166687  )
       188           C   tau( 188) = (  0.9166647  0.7500020  0.7500020  )
       189           C   tau( 189) = (  0.1666667  0.1666667  0.1666667  )
       190           C   tau( 190) = (  0.1666667  0.1666667  0.5000000  )
       191           C   tau( 191) = (  0.1666667  0.1666667  0.8333333  )
       192           C   tau( 192) = (  0.1666667  0.5000000  0.1666667  )
       193           C   tau( 193) = (  0.1666667  0.5000000  0.5000000  )
       194           C   tau( 194) = (  0.1666667  0.5000000  0.8333333  )
       195           C   tau( 195) = (  0.1666667  0.8333333  0.1666667  )
       196           C   tau( 196) = (  0.1666667  0.8333333  0.5000000  )
       197           C   tau( 197) = (  0.1666667  0.8333333  0.8333333  )
       198           C   tau( 198) = (  0.5000000  0.1666667  0.1666667  )
       199           C   tau( 199) = (  0.5000000  0.1666667  0.5000000  )
       200           C   tau( 200) = (  0.5000000  0.1666667  0.8333333  )
       201           C   tau( 201) = (  0.5000000  0.5000000  0.1666667  )
       202           C   tau( 202) = (  0.5000000  0.5000000  0.5000000  )
       203           C   tau( 203) = (  0.5000000  0.5000000  0.8333333  )
       204           C   tau( 204) = (  0.5000000  0.8333333  0.1666667  )
       205           C   tau( 205) = (  0.5000000  0.8333333  0.5000000  )
       206           C   tau( 206) = (  0.5000000  0.8333333  0.8333333  )
       207           C   tau( 207) = (  0.8333333  0.1666667  0.1666667  )
       208           C   tau( 208) = (  0.8333333  0.1666667  0.5000000  )
       209           C   tau( 209) = (  0.8333333  0.1666667  0.8333333  )
       210           C   tau( 210) = (  0.8333333  0.5000000  0.1666667  )
       211           C   tau( 211) = (  0.8333333  0.5000000  0.5000000  )
       212           C   tau( 212) = (  0.8333333  0.5000000  0.8333333  )
       213           C   tau( 213) = (  0.8333333  0.8333333  0.1666667  )
       214           C   tau( 214) = (  0.8333333  0.8333333  0.5000000  )
       215           C   tau( 215) = (  0.8333333  0.8333333  0.8333333  )

     number of k points=     4  Gaussian smearing, width (Ry)=  0.0100
                       cart. coord. in units 2pi/alat
        k(    1) = (   0.0000000   0.0000000   0.0000000), wk =   0.2500000
        k(    2) = (   0.0000000   0.0000000  -0.5000000), wk =   0.7500000
        k(    3) = (   0.0000000  -0.5000000  -0.5000000), wk =   0.7500000
        k(    4) = (  -0.5000000  -0.5000000  -0.5000000), wk =   0.2500000

                       cryst. coord.
        k(    1) = (   0.0000000   0.0000000   0.0000000), wk =   0.2500000
        k(    2) = (   0.0000000   0.0000000  -0.5000000), wk =   0.7500000
        k(    3) = (   0.0000000  -0.5000000  -0.5000000), wk =   0.7500000
        k(    4) = (  -0.5000000  -0.5000000  -0.5000000), wk =   0.2500000

     Dense  grid:   918657 G-vectors     FFT dimensions: ( 135, 135, 135)

     Smooth grid:   656775 G-vectors     FFT dimensions: ( 108, 108, 108)

     Dynamical RAM for                 wfc:      10.12 MB

     Dynamical RAM for     wfc (w. buffer):      10.12 MB

     Dynamical RAM for           str. fact:       0.22 MB

     Dynamical RAM for           local pot:       0.00 MB

     Dynamical RAM for          nlocal pot:      33.67 MB

     Dynamical RAM for                qrad:       0.43 MB

     Dynamical RAM for          rho,v,vnew:       1.91 MB

     Dynamical RAM for               rhoin:       0.64 MB

     Dynamical RAM for            rho*nmix:       3.50 MB

     Dynamical RAM for           G-vectors:       0.90 MB

     Dynamical RAM for          h,s,v(r/c):     195.77 MB

     Dynamical RAM for          <psi|beta>:      13.57 MB

     Dynamical RAM for                 psi:      40.49 MB

     Dynamical RAM for                hpsi:      40.49 MB

     Dynamical RAM for                spsi:      40.49 MB

     Dynamical RAM for      wfcinit/wfcrot:      50.61 MB

     Dynamical RAM for           addusdens:      14.29 MB

     Dynamical RAM for          addusforce:      37.84 MB

     Dynamical RAM for         addusstress:       2.82 MB

     Estimated static dynamical RAM per process >      50.41 MB

     Estimated max dynamical RAM per process >     384.71 MB

     Estimated total dynamical RAM >      95.52 GB

     Check: negative core charge=   -0.000014

     Initial potential from superposition of free atoms

     starting charge     859.9911, renormalised to     862.0000


     %%%%%%%%%%%%%%%%%%%%%%%%%%%%%%%%%%%%%%%%%%%%%%%%%%%%%%%%%%%%%%%%%%%%%%%%
     %                                                                      %
     % You are using vdW-DF, which was implemented by the Thonhauser group. %
     % Please cite the following two papers that made this development      %
     % possible and the two reviews that describe the various versions:     %
     %                                                                      %
     %   T. Thonhauser et al., PRL 115, 136402 (2015).                      %
     %   T. Thonhauser et al., PRB 76, 125112 (2007).                       %
     %   K. Berland et al., Rep. Prog. Phys. 78, 066501 (2015).             %
     %   D.C. Langreth et al., J. Phys.: Condens. Matter 21, 084203 (2009). %
     %                                                                      %
     % If you are calculating stress with vdW-DF, please also cite:         %
     %                                                                      %
     %   R. Sabatini et al., J. Phys.: Condens. Matter 24, 424209 (2012).   %
     %                                                                      %
     %%%%%%%%%%%%%%%%%%%%%%%%%%%%%%%%%%%%%%%%%%%%%%%%%%%%%%%%%%%%%%%%%%%%%%%%

     %%%%%%%%%%%%%%%%%%%%%%%%%%%%%%%%%%%%%%%%%%%%%%%%%%%%%%%%%%%%%%%%%%%%%%%%
     %                                                                      %
     %  vdW-DF NEWS:                                                        %
     %                                                                      %
     %  * vdW-DF3 is now available. DOI: 10.1021/acs.jctc.0c00471           %
     %    use with input_dft = 'vdW-DF3-opt1' or 'vdW-DF3-opt2'             %
     %                                                                      %
     %  * Unscreened and range-separated vdW-DF hybrid functionals          %
     %    DOI: 10.1063/1.4986522 and 10.1088/1361-648X/ac2ad2               %
     %    use with input_dft = 'vdW-DF-cx0' (etc) and 'vdW-DF-ahcx'         %
     %                                                                      %
     %%%%%%%%%%%%%%%%%%%%%%%%%%%%%%%%%%%%%%%%%%%%%%%%%%%%%%%%%%%%%%%%%%%%%%%%


     Carrying out vdW-DF run using the following parameters:
     Nqs    =  20  Npoints =  1024  r_max =  100.000
     q_mesh =  0.00001000  0.04494208  0.09755937  0.15916263
               0.23128650  0.31572767  0.41458969  0.53033537
               0.66584808  0.82450364  1.01025438  1.22772762
               1.48234092  1.78043706  2.12944203  2.53805004
               3.01644009  3.57652955  4.23227104  5.00000000


     -----------------------------------------------
     Non-local corr. energy    =       5.43350871 Ry
     -----------------------------------------------

     Starting wfcs are  860 randomized atomic wfcs
     Checking if some PAW data can be deallocated... 

     total cpu time spent up to now is        6.2 secs

     Self-consistent Calculation

     iteration #  1     ecut=    70.00 Ry     beta= 0.70
     Davidson diagonalization with overlap

---- Real-time Memory Report at c_bands before calling an iterative solver
           337 MiB given to the printing process from OS
             0 MiB allocation reported by mallinfo(arena+hblkhd)
       1829198 MiB available memory on the node where the printing process lives
------------------
     ethr =  1.00E-02,  avg # of iterations =  3.0


     -----------------------------------------------
     Non-local corr. energy    =       6.95047649 Ry
     -----------------------------------------------


     total cpu time spent up to now is       21.7 secs

     total energy              =   -4079.69845761 Ry
     estimated scf accuracy    <      12.92630192 Ry

     iteration #  2     ecut=    70.00 Ry     beta= 0.70
     Davidson diagonalization with overlap

---- Real-time Memory Report at c_bands before calling an iterative solver
           476 MiB given to the printing process from OS
             0 MiB allocation reported by mallinfo(arena+hblkhd)
       1825957 MiB available memory on the node where the printing process lives
------------------
     ethr =  1.50E-03,  avg # of iterations = 10.3


     -----------------------------------------------
     Non-local corr. energy    =       7.11236330 Ry
     -----------------------------------------------


     total cpu time spent up to now is       52.4 secs

     total energy              =   -4076.13257058 Ry
     estimated scf accuracy    <       8.68073396 Ry

     iteration #  3     ecut=    70.00 Ry     beta= 0.70
     Davidson diagonalization with overlap

---- Real-time Memory Report at c_bands before calling an iterative solver
           476 MiB given to the printing process from OS
             0 MiB allocation reported by mallinfo(arena+hblkhd)
       1825895 MiB available memory on the node where the printing process lives
------------------
     ethr =  1.01E-03,  avg # of iterations =  7.3


     -----------------------------------------------
     Non-local corr. energy    =       7.27829062 Ry
     -----------------------------------------------


     total cpu time spent up to now is       89.9 secs

     total energy              =   -4078.36479676 Ry
     estimated scf accuracy    <      25.51837720 Ry

     iteration #  4     ecut=    70.00 Ry     beta= 0.70
     Davidson diagonalization with overlap

---- Real-time Memory Report at c_bands before calling an iterative solver
           537 MiB given to the printing process from OS
             0 MiB allocation reported by mallinfo(arena+hblkhd)
       1825840 MiB available memory on the node where the printing process lives
------------------
     ethr =  1.01E-03,  avg # of iterations = 10.8


     -----------------------------------------------
     Non-local corr. energy    =       7.29886736 Ry
     -----------------------------------------------


     total cpu time spent up to now is      130.2 secs

     total energy              =   -4080.67820436 Ry
     estimated scf accuracy    <       0.95492228 Ry

     iteration #  5     ecut=    70.00 Ry     beta= 0.70
     Davidson diagonalization with overlap

---- Real-time Memory Report at c_bands before calling an iterative solver
           537 MiB given to the printing process from OS
             0 MiB allocation reported by mallinfo(arena+hblkhd)
       1825771 MiB available memory on the node where the printing process lives
------------------
     ethr =  1.11E-04,  avg # of iterations = 10.3


     -----------------------------------------------
     Non-local corr. energy    =       7.31922641 Ry
     -----------------------------------------------


     total cpu time spent up to now is      165.4 secs

     total energy              =   -4080.70130755 Ry
     estimated scf accuracy    <       0.35523874 Ry

     iteration #  6     ecut=    70.00 Ry     beta= 0.70
     Davidson diagonalization with overlap

---- Real-time Memory Report at c_bands before calling an iterative solver
           537 MiB given to the printing process from OS
             0 MiB allocation reported by mallinfo(arena+hblkhd)
       1825721 MiB available memory on the node where the printing process lives
------------------
     c_bands:  1 eigenvalues not converged
     ethr =  4.12E-05,  avg # of iterations = 18.3


     -----------------------------------------------
     Non-local corr. energy    =       7.33090350 Ry
     -----------------------------------------------


     total cpu time spent up to now is      235.1 secs

     total energy              =   -4080.68942690 Ry
     estimated scf accuracy    <       0.28916334 Ry

     iteration #  7     ecut=    70.00 Ry     beta= 0.70
     Davidson diagonalization with overlap

---- Real-time Memory Report at c_bands before calling an iterative solver
           537 MiB given to the printing process from OS
             0 MiB allocation reported by mallinfo(arena+hblkhd)
       1825660 MiB available memory on the node where the printing process lives
------------------
     ethr =  3.35E-05,  avg # of iterations =  9.5


     -----------------------------------------------
     Non-local corr. energy    =       7.34830238 Ry
     -----------------------------------------------


     total cpu time spent up to now is      269.7 secs

     total energy              =   -4080.68011737 Ry
     estimated scf accuracy    <       0.08561340 Ry

     iteration #  8     ecut=    70.00 Ry     beta= 0.70
     Davidson diagonalization with overlap

---- Real-time Memory Report at c_bands before calling an iterative solver
           537 MiB given to the printing process from OS
             0 MiB allocation reported by mallinfo(arena+hblkhd)
       1825605 MiB available memory on the node where the printing process lives
------------------
     ethr =  9.93E-06,  avg # of iterations = 15.5


     -----------------------------------------------
     Non-local corr. energy    =       7.35274667 Ry
     -----------------------------------------------


     total cpu time spent up to now is      320.1 secs

     total energy              =   -4080.68748212 Ry
     estimated scf accuracy    <       0.01457943 Ry

     iteration #  9     ecut=    70.00 Ry     beta= 0.70
     Davidson diagonalization with overlap

---- Real-time Memory Report at c_bands before calling an iterative solver
           537 MiB given to the printing process from OS
             0 MiB allocation reported by mallinfo(arena+hblkhd)
       1825572 MiB available memory on the node where the printing process lives
------------------
     ethr =  1.69E-06,  avg # of iterations =  9.3


     -----------------------------------------------
     Non-local corr. energy    =       7.35393648 Ry
     -----------------------------------------------


     total cpu time spent up to now is      351.0 secs

     total energy              =   -4080.68895812 Ry
     estimated scf accuracy    <       0.00049068 Ry

     iteration # 10     ecut=    70.00 Ry     beta= 0.70
     Davidson diagonalization with overlap

---- Real-time Memory Report at c_bands before calling an iterative solver
           537 MiB given to the printing process from OS
             0 MiB allocation reported by mallinfo(arena+hblkhd)
       1825514 MiB available memory on the node where the printing process lives
------------------
     ethr =  5.69E-08,  avg # of iterations = 16.8


     -----------------------------------------------
     Non-local corr. energy    =       7.35463486 Ry
     -----------------------------------------------


     total cpu time spent up to now is      426.0 secs

     total energy              =   -4080.68902611 Ry
     estimated scf accuracy    <       0.00039300 Ry

     iteration # 11     ecut=    70.00 Ry     beta= 0.70
     Davidson diagonalization with overlap

---- Real-time Memory Report at c_bands before calling an iterative solver
           542 MiB given to the printing process from OS
             0 MiB allocation reported by mallinfo(arena+hblkhd)
       1825467 MiB available memory on the node where the printing process lives
------------------
     ethr =  4.56E-08,  avg # of iterations = 12.8


     -----------------------------------------------
     Non-local corr. energy    =       7.35479069 Ry
     -----------------------------------------------


     total cpu time spent up to now is      463.5 secs

     total energy              =   -4080.68906354 Ry
     estimated scf accuracy    <       0.00003095 Ry

     iteration # 12     ecut=    70.00 Ry     beta= 0.70
     Davidson diagonalization with overlap

---- Real-time Memory Report at c_bands before calling an iterative solver
           542 MiB given to the printing process from OS
             0 MiB allocation reported by mallinfo(arena+hblkhd)
       1825456 MiB available memory on the node where the printing process lives
------------------
     ethr =  3.59E-09,  avg # of iterations = 12.8


     -----------------------------------------------
     Non-local corr. energy    =       7.35493026 Ry
     -----------------------------------------------


     total cpu time spent up to now is      509.7 secs

     total energy              =   -4080.68906800 Ry
     estimated scf accuracy    <       0.00000455 Ry

     iteration # 13     ecut=    70.00 Ry     beta= 0.70
     Davidson diagonalization with overlap

---- Real-time Memory Report at c_bands before calling an iterative solver
           542 MiB given to the printing process from OS
             0 MiB allocation reported by mallinfo(arena+hblkhd)
       1825451 MiB available memory on the node where the printing process lives
------------------
     c_bands:  1 eigenvalues not converged
     ethr =  5.27E-10,  avg # of iterations = 14.0


     -----------------------------------------------
     Non-local corr. energy    =       7.35497237 Ry
     -----------------------------------------------


     total cpu time spent up to now is      581.0 secs

     total energy              =   -4080.68906884 Ry
     estimated scf accuracy    <       0.00000097 Ry

     iteration # 14     ecut=    70.00 Ry     beta= 0.70
     Davidson diagonalization with overlap

---- Real-time Memory Report at c_bands before calling an iterative solver
           542 MiB given to the printing process from OS
             0 MiB allocation reported by mallinfo(arena+hblkhd)
       1825427 MiB available memory on the node where the printing process lives
------------------
     c_bands:  1 eigenvalues not converged
     ethr =  1.13E-10,  avg # of iterations = 16.3


     -----------------------------------------------
     Non-local corr. energy    =       7.35499473 Ry
     -----------------------------------------------


     total cpu time spent up to now is      645.9 secs

     total energy              =   -4080.68906899 Ry
     estimated scf accuracy    <       0.00000008 Ry

     iteration # 15     ecut=    70.00 Ry     beta= 0.70
     Davidson diagonalization with overlap

---- Real-time Memory Report at c_bands before calling an iterative solver
           542 MiB given to the printing process from OS
             0 MiB allocation reported by mallinfo(arena+hblkhd)
       1825423 MiB available memory on the node where the printing process lives
------------------
     ethr =  9.86E-12,  avg # of iterations = 16.0


     -----------------------------------------------
     Non-local corr. energy    =       7.35501086 Ry
     -----------------------------------------------


     total cpu time spent up to now is      712.3 secs

     total energy              =   -4080.68906900 Ry
     estimated scf accuracy    <       0.00000007 Ry

     iteration # 16     ecut=    70.00 Ry     beta= 0.70
     Davidson diagonalization with overlap

---- Real-time Memory Report at c_bands before calling an iterative solver
           542 MiB given to the printing process from OS
             0 MiB allocation reported by mallinfo(arena+hblkhd)
       1825396 MiB available memory on the node where the printing process lives
------------------
     ethr =  8.12E-12,  avg # of iterations = 12.5


     -----------------------------------------------
     Non-local corr. energy    =       7.35501545 Ry
     -----------------------------------------------


     total cpu time spent up to now is      751.3 secs

     End of self-consistent calculation

          k = 0.0000 0.0000 0.0000 ( 82057 PWs)   bands (ev):

    -8.6303  -7.6500  -7.6500  -7.6126  -7.6126  -7.6126  -7.4423  -6.6455
    -6.6454  -6.6454  -6.6394  -6.6394  -6.6095  -6.6095  -6.6095  -6.4988
    -6.4988  -6.4988  -6.2124  -5.6354  -5.5850  -5.5850  -5.5850  -5.5351
    -5.5351  -5.5351  -5.2091  -4.6280  -4.6280  -4.6143  -4.6143  -4.6143
    -4.5386  -3.7803  -3.7575  -3.7575  -3.7575  -3.7321  -3.7321  -3.7321
    -3.7293  -3.7293  -3.7271  -3.7271  -3.7271  -3.6823  -3.6823  -3.6822
    -3.6672  -3.6672  -3.6672  -3.6137  -3.6137  -3.5294  -3.5293  -3.5293
    -3.3884  -2.9989  -2.9988  -2.9988  -2.9881  -2.9881  -2.9880  -2.9682
    -2.9528  -2.9528  -2.9179  -2.9178  -2.9178  -2.8839  -2.8839  -2.8572
    -2.8572  -2.8571  -2.7859  -2.7858  -2.7858  -2.4779  -2.4778  -2.4778
    -1.7753  -1.2871  -1.2871  -1.2871  -1.2765  -1.2765  -1.2263  -1.2263
    -1.2263  -1.1306  -1.1306  -1.1306  -0.4617   0.0049   0.0049   0.0092
     0.0095   0.0095   0.0366   0.4304   0.4489   0.4489   0.4491   0.4776
     0.4776   0.4776   0.5116   0.5116   0.5246   0.5248   0.5248   0.6136
     0.6136   0.6138   0.6544   0.6544   0.6544   0.7282   0.7282   0.7687
     0.7687   0.7687   0.7765   0.8175   0.8175   0.8176   0.8294   0.8294
     0.8386   0.8386   0.8386   0.8900   0.8900   0.8900   0.9234   0.9234
     0.9234   0.9336   0.9336   1.0044   1.0044   1.0044   1.0664   1.3375
     1.3375   1.3375   1.6176   1.8753   1.8753   1.8753   1.9112   1.9112
     1.9392   1.9392   1.9392   2.1490   2.1490   2.1490   3.1399   3.5027
     3.5122   3.5122   3.5122   3.5201   3.5201   3.5201   3.5623   3.5772
     3.5772   3.5772   3.5958   3.5958   3.5958   3.6433   3.6433   3.7106
     3.7519   3.7519   3.7519   4.0236   4.0496   4.0496   4.0497   4.0743
     4.0744   4.0744   4.0856   4.0856   4.0856   4.0953   4.0953   4.1307
     4.1307   4.1800   4.1800   4.1800   4.1862   4.1862   4.1864   4.4270
     4.4271   4.4271   5.0141   5.0142   5.0142   5.0211   5.0395   5.0395
     5.0549   5.0549   5.0551   5.0713   5.0714   5.0714   5.1648   5.1923
     5.1923   5.1924   5.2048   5.2050   5.2050   5.2427   5.2427   5.2728
     5.2728   5.2730   5.2986   5.5604   5.5606   5.5606   5.5762   5.5762
     5.5981   5.6197   5.6197   5.6197   5.6265   5.6265   5.6314   5.6314
     5.6317   5.6350   5.6352   5.6352   5.6541   5.6543   5.6543   5.6707
     5.7389   5.7389   5.7391   5.7975   5.7975   6.1090   6.1090   6.1092
     6.6211   6.6212   6.6212   6.7014   6.7014   6.7015   6.7702   7.1048
     7.1048   7.1075   7.1075   7.1075   7.1628   7.1628   7.1628   7.2330
     7.2331   7.2331   7.5596   7.5597   7.5597   7.5776   7.5776   7.5777
     7.6238   7.6247   7.6247   7.6247   7.6690   7.6690   7.6690   7.7367
     7.7368   7.7368   7.7546   7.7546   7.7575   7.7688   7.7688   7.7688
     7.7815   7.7815   7.7815   7.8608   7.8609   7.8609   7.8707   7.8707
     7.8707   7.8919   7.8919   7.9108   7.9108   7.9108   7.9777   7.9956
     7.9988   7.9988   7.9990   8.0132   8.0132   8.0247   8.0247   8.0248
     8.0349   8.0349   8.0349   8.0614   8.0615   8.0615   8.0758   8.0758
     8.0864   8.0865   8.0865   8.1070   8.1070   8.1071   8.1113   8.1113
     8.1418   8.1418   8.1419   8.1490   8.2052   8.2054   8.2054   8.2392
     8.2392   8.2393   8.2572   8.3202   8.3202   8.3202   8.3560   8.3562
     8.3562   8.4631   8.4631   8.6153   8.6153   8.6153   8.8064   8.8307
     8.8309   8.8309   8.9047   8.9048   8.9048   8.9307   8.9307   8.9308
     8.9495   8.9495   8.9562   8.9564   8.9564   9.0093   9.1618   9.1618
     9.2188   9.2190   9.2190   9.9741   9.9741   9.9742  10.1793  10.2552
    10.2552  10.2552  10.2706  10.2707  10.2707  10.3410  10.3410  10.3410
    10.3834  10.3834  10.3834  10.4750  10.4750  10.5140  10.5140  10.5140
    10.5188  10.5188  10.5188  10.5516  10.5516  10.6527  10.6527  10.6527
    10.6538  10.6538  10.6599  10.6599  10.6599  11.2370  11.2370  11.2371
    11.4024  11.4485  11.4485  11.4485  11.5493  11.5494  11.5494  11.6703
    11.6703  12.0195  12.7283  12.7283  12.7283  15.7723  15.7724  15.7724
    17.1232  17.1232  17.1392  17.1392  17.1392  17.1598  17.8150  17.8150
    17.8169  17.8169  17.8177  17.8372  17.8932  17.8932  17.9407  17.9407
    17.9410  18.0280  18.5978  18.5978  18.5978  19.3423  19.3423  19.3423
    19.3520  19.3520  19.3520  19.3663  19.3663  19.3765  19.3765  19.3765
    19.3939  20.0090  20.0090  20.0162  20.0162  20.0166  20.0320  20.0322
    20.0322  20.0458  20.0458  20.0461  20.0836  20.1050  20.1053  20.1053
    20.1154  20.1154  20.1157  20.1517  20.1760  20.1760  20.1763  20.1786
    20.1786  20.4243  20.4330  20.4330  20.4330  20.4467  20.4467  20.4467
    20.4673  20.4673  20.4769  20.4769  20.4770  20.5892  20.5892  20.5892
    20.5894  20.5894  20.6349  20.6483  20.6483  20.6483  20.6775  20.6775
    20.6777  20.6903  20.6904  20.6904  20.7325

     occupation numbers 
     1.0000   1.0000   1.0000   1.0000   1.0000   1.0000   1.0000   1.0000
     1.0000   1.0000   1.0000   1.0000   1.0000   1.0000   1.0000   1.0000
     1.0000   1.0000   1.0000   1.0000   1.0000   1.0000   1.0000   1.0000
     1.0000   1.0000   1.0000   1.0000   1.0000   1.0000   1.0000   1.0000
     1.0000   1.0000   1.0000   1.0000   1.0000   1.0000   1.0000   1.0000
     1.0000   1.0000   1.0000   1.0000   1.0000   1.0000   1.0000   1.0000
     1.0000   1.0000   1.0000   1.0000   1.0000   1.0000   1.0000   1.0000
     1.0000   1.0000   1.0000   1.0000   1.0000   1.0000   1.0000   1.0000
     1.0000   1.0000   1.0000   1.0000   1.0000   1.0000   1.0000   1.0000
     1.0000   1.0000   1.0000   1.0000   1.0000   1.0000   1.0000   1.0000
     1.0000   1.0000   1.0000   1.0000   1.0000   1.0000   1.0000   1.0000
     1.0000   1.0000   1.0000   1.0000   1.0000   1.0000   1.0000   1.0000
     1.0000   1.0000   1.0000   1.0000   1.0000   1.0000   1.0000   1.0000
     1.0000   1.0000   1.0000   1.0000   1.0000   1.0000   1.0000   1.0000
     1.0000   1.0000   1.0000   1.0000   1.0000   1.0000   1.0000   1.0000
     1.0000   1.0000   1.0000   1.0000   1.0000   1.0000   1.0000   1.0000
     1.0000   1.0000   1.0000   1.0000   1.0000   1.0000   1.0000   1.0000
     1.0000   1.0000   1.0000   1.0000   1.0000   1.0000   1.0000   1.0000
     1.0000   1.0000   1.0000   1.0000   1.0000   1.0000   1.0000   1.0000
     1.0000   1.0000   1.0000   1.0000   1.0000   1.0000   1.0000   1.0000
     1.0000   1.0000   1.0000   1.0000   1.0000   1.0000   1.0000   1.0000
     1.0000   1.0000   1.0000   1.0000   1.0000   1.0000   1.0000   1.0000
     1.0000   1.0000   1.0000   1.0000   1.0000   1.0000   1.0000   1.0000
     1.0000   1.0000   1.0000   1.0000   1.0000   1.0000   1.0000   1.0000
     1.0000   1.0000   1.0000   1.0000   1.0000   1.0000   1.0000   1.0000
     1.0000   1.0000   1.0000   1.0000   1.0000   1.0000   1.0000   1.0000
     1.0000   1.0000   1.0000   1.0000   1.0000   1.0000   1.0000   1.0000
     1.0000   1.0000   1.0000   1.0000   1.0000   1.0000   1.0000   1.0000
     1.0000   1.0000   1.0000   1.0000   1.0000   1.0000   1.0000   1.0000
     1.0000   1.0000   1.0000   1.0000   1.0000   1.0000   1.0000   1.0000
     1.0000   1.0000   1.0000   1.0000   1.0000   1.0000   1.0000   1.0000
     1.0000   1.0000   1.0000   1.0000   1.0000   1.0000   1.0000   1.0000
     1.0000   1.0000   1.0000   1.0000   1.0000   1.0000   1.0000   1.0000
     1.0000   1.0000   1.0000   1.0000   1.0000   1.0000   1.0000   1.0000
     1.0000   1.0000   1.0000   1.0000   1.0000   1.0000   1.0000   1.0000
     1.0000   1.0000   1.0000   1.0000   1.0000   1.0000   1.0000   1.0000
     1.0000   1.0000   1.0000   1.0000   1.0000   1.0000   1.0000   1.0000
     1.0000   1.0000   1.0000   1.0000   1.0000   1.0000   1.0000   1.0000
     1.0000   1.0000   1.0000   1.0000   1.0000   1.0000   1.0000   1.0000
     1.0000   1.0000   1.0000   1.0000   1.0000   1.0000   1.0000   1.0000
     1.0000   1.0000   1.0000   1.0000   1.0000   1.0000   1.0000   1.0000
     1.0000   1.0000   1.0000   1.0000   1.0000   1.0000   1.0000   1.0000
     1.0000   1.0000   1.0000   1.0000   1.0000   1.0000   1.0000   1.0000
     1.0000   1.0000   1.0000   1.0000   1.0000   1.0000   1.0000   1.0000
     1.0000   1.0000   1.0000   1.0000   1.0000   1.0000   1.0000   1.0000
     1.0000   1.0000   1.0000   1.0000   1.0000   1.0000   1.0000   1.0000
     1.0000   1.0000   1.0000   1.0000   1.0000   1.0000   1.0000   1.0000
     1.0000   1.0000   1.0000   1.0000   1.0000   1.0000   1.0000   1.0000
     1.0000   1.0000   1.0000   1.0000   1.0000   1.0000   1.0000   1.0000
     1.0000   1.0000   1.0000   1.0000   1.0000   1.0000   1.0000   1.0000
     1.0000   1.0000   1.0000   1.0000   1.0000   1.0000   1.0000   1.0000
     1.0000   1.0000   1.0000   1.0000   1.0000   1.0000   1.0000   1.0000
     1.0000   1.0000   1.0000   1.0000   1.0000   1.0000   1.0000   1.0000
     1.0000   1.0000   1.0000   1.0000   1.0000   0.4550   0.4549   0.4549
     0.0000   0.0000   0.0000   0.0000   0.0000   0.0000   0.0000   0.0000
     0.0000   0.0000   0.0000   0.0000   0.0000   0.0000   0.0000   0.0000
     0.0000   0.0000   0.0000   0.0000   0.0000   0.0000   0.0000   0.0000
     0.0000   0.0000   0.0000   0.0000   0.0000   0.0000   0.0000   0.0000
     0.0000   0.0000   0.0000   0.0000   0.0000   0.0000   0.0000   0.0000
     0.0000   0.0000   0.0000   0.0000   0.0000   0.0000   0.0000   0.0000
     0.0000   0.0000   0.0000   0.0000   0.0000   0.0000   0.0000   0.0000
     0.0000   0.0000   0.0000   0.0000   0.0000   0.0000   0.0000   0.0000
     0.0000   0.0000   0.0000   0.0000   0.0000   0.0000   0.0000   0.0000
     0.0000   0.0000   0.0000   0.0000   0.0000   0.0000   0.0000   0.0000
     0.0000   0.0000   0.0000   0.0000   0.0000

          k = 0.0000 0.0000-0.5000 ( 81982 PWs)   bands (ev):

    -8.4530  -8.2810  -7.4492  -7.4409  -7.4409  -7.4005  -7.3395  -7.2601
    -7.2600  -7.0527  -6.4459  -6.4320  -6.4269  -6.4269  -6.3635  -6.3265
    -6.2505  -6.1838  -6.1838  -5.9325  -5.4158  -5.4155  -5.3696  -5.3694
    -5.3585  -5.3584  -5.2175  -5.1099  -4.4910  -4.4850  -4.4849  -4.4714
    -4.4511  -4.4254  -4.4211  -4.4211  -4.3776  -4.3776  -4.3581  -4.2945
    -4.2580  -4.2384  -4.2384  -4.0094  -3.5908  -3.5814  -3.5813  -3.5726
    -3.5613  -3.5499  -3.5498  -3.5407  -3.4447  -3.4180  -3.4179  -3.3595
    -3.2963  -3.1615  -3.1615  -2.9999  -2.6885  -2.6764  -2.6761  -2.6604
    -2.6372  -2.6194  -2.6192  -2.6100  -2.4766  -2.4749  -2.4731  -2.4227
    -2.4226  -2.3429  -2.3299  -2.1879  -2.1877  -1.8588  -1.7473  -1.7473
    -1.7317  -1.7290  -1.7219  -1.7219  -1.7117  -1.7080  -1.5862  -1.5666
    -1.4917  -1.4917  -1.3672  -1.3671  -1.0681  -0.5418  -0.1260  -0.1089
    -0.1089  -0.1089  -0.0890  -0.0890  -0.0703  -0.0010   0.0098   0.0100
     0.0227   0.0318   0.1073   0.1074   0.1107   0.1197   0.1211   0.1237
     0.1239   0.1575   0.3496   0.3750   0.3751   0.5268   0.8289   0.8301
     0.8303   0.8358   0.8378   0.8597   0.8598   0.8672   0.8952   0.8953
     0.9324   0.9565   1.1330   1.1339   1.1339   1.1722   1.1848   1.3334
     1.3334   1.7564   1.9481   1.9482   1.9547   1.9741   2.0088   2.0335
     2.0336   2.1564   2.5131   2.5172   2.5442   2.5505   2.5576   2.5576
     2.5774   2.5805   2.5805   2.5832   2.5840   2.5840   2.6366   2.6376
     2.6532   2.6611   2.6611   2.6739   2.6984   2.6984   2.7735   2.8040
     2.8040   2.8070   2.8950   2.9100   2.9346   2.9347   2.9485   3.0018
     3.2156   3.2157   3.3095   3.7863   3.7869   3.7869   3.7920   3.7987
     3.8306   3.8306   3.8461   4.2861   4.3442   4.3519   4.3520   4.3521
     4.3746   4.3748   4.3763   4.6556   4.7541   4.7678   4.7680   4.7790
     5.0121   5.0121   5.0258   5.0524   5.0752   5.0905   5.1017   5.1017
     5.1031   5.1234   5.1283   5.1283   5.2432   5.2691   5.2691   5.3081
     5.3604   5.3606   5.3731   5.3804   5.3875   5.3878   5.3963   5.4144
     5.4510   5.4720   5.4722   5.4794   5.4920   5.4976   5.4977   5.5190
     5.5270   5.5333   5.6166   5.6168   5.7310   5.7311   5.8045   5.9938
     6.0177   6.0180   6.0333   6.1220   6.1266   6.1266   6.1297   6.1660
     6.1806   6.1807   6.2105   6.2529   6.2529   6.2699   6.2925   6.5769
     6.6516   6.6539   6.6639   6.6640   6.6896   6.6897   6.7316   6.7351
     6.7796   6.7797   6.8006   6.8030   6.8062   6.8063   6.8317   6.8319
     6.8407   6.8422   6.8549   6.8580   6.8627   6.8628   6.8978   6.9017
     6.9018   6.9123   6.9124   6.9154   6.9232   6.9494   6.9669   6.9670
     6.9879   7.0243   7.0393   7.0394   7.0845   7.1444   7.1498   7.1499
     7.4285   7.4286   7.4494   7.6370   7.7017   7.7059   7.7059   7.8129
     7.8885   7.8885   7.9311   7.9482   8.0678   8.0710   8.0803   8.0804
     8.0862   8.0879   8.0880   8.1747   8.1880   8.1880   8.2041   8.2070
     8.2371   8.2507   8.2831   8.2832   8.2835   8.2923   8.3044   8.3045
     8.3166   8.3289   8.3289   8.3431   8.3484   8.3794   8.3899   8.3899
     8.4183   8.4694   8.4696   8.4918   8.4947   8.4997   8.5340   8.5341
     8.6932   8.7357   8.7422   8.7424   8.7478   8.7530   8.7532   8.7782
     8.8045   8.8045   8.8283   8.8624   8.9155   8.9155   8.9833   9.1713
     9.1725   9.1726   9.1856   9.1858   9.2015   9.2764   9.3617   9.3618
     9.3729   9.4347   9.4642   9.4950   9.5003   9.5003   9.5050   9.5051
     9.5287   9.5823   9.5954   9.6376   9.6377   9.6484   9.6592   9.6722
     9.6752   9.6752   9.7511   9.7511   9.7689   9.7826   9.8025   9.8166
     9.8167   9.8343   9.9321   9.9772   9.9773  10.0126  10.0716  10.0717
    10.1464  10.1499  10.1894  10.3320  10.3322  10.3813  10.9864  10.9864
    11.1500  11.1517  11.1566  11.1566  11.2607  11.3041  11.3235  11.3777
    11.4061  11.4061  11.4521  11.5377  11.5377  11.6850  11.8534  11.8535
    11.9608  11.9608  11.9827  12.1412  12.3315  15.6893  15.7219  15.7219
    17.1867  17.1910  17.4957  17.5060  18.0851  18.0965  18.0966  18.1040
    18.2229  18.2255  18.2377  18.2377  18.2615  18.4684  18.7093  18.7153
    18.7159  18.7322  18.7677  18.7998  18.7999  18.8729  18.8833  18.8838
    18.8896  18.9059  18.9736  18.9845  18.9856  19.0216  19.0218  19.0722
    19.4575  19.4579  19.4603  19.4603  19.5265  19.5295  19.5295  19.5332
    19.5696  19.5700  19.5701  19.5898  19.5918  19.5918  19.6602  19.6602
    19.7077  19.7432  19.7775  19.7775  20.0162  20.0165  20.0198  20.0233
    20.0369  20.0372  20.0409  20.0448  20.1422  20.1729  20.1732  20.1832
    20.2306  20.2706  20.2708  20.3528  20.5781  20.5894  20.5894  20.5937
    20.5968  20.5970  20.6017  20.6017  20.6166  20.6167  20.6327  20.6384
    20.6836  20.6837  20.6981  20.7117  20.7118

     occupation numbers 
     1.0000   1.0000   1.0000   1.0000   1.0000   1.0000   1.0000   1.0000
     1.0000   1.0000   1.0000   1.0000   1.0000   1.0000   1.0000   1.0000
     1.0000   1.0000   1.0000   1.0000   1.0000   1.0000   1.0000   1.0000
     1.0000   1.0000   1.0000   1.0000   1.0000   1.0000   1.0000   1.0000
     1.0000   1.0000   1.0000   1.0000   1.0000   1.0000   1.0000   1.0000
     1.0000   1.0000   1.0000   1.0000   1.0000   1.0000   1.0000   1.0000
     1.0000   1.0000   1.0000   1.0000   1.0000   1.0000   1.0000   1.0000
     1.0000   1.0000   1.0000   1.0000   1.0000   1.0000   1.0000   1.0000
     1.0000   1.0000   1.0000   1.0000   1.0000   1.0000   1.0000   1.0000
     1.0000   1.0000   1.0000   1.0000   1.0000   1.0000   1.0000   1.0000
     1.0000   1.0000   1.0000   1.0000   1.0000   1.0000   1.0000   1.0000
     1.0000   1.0000   1.0000   1.0000   1.0000   1.0000   1.0000   1.0000
     1.0000   1.0000   1.0000   1.0000   1.0000   1.0000   1.0000   1.0000
     1.0000   1.0000   1.0000   1.0000   1.0000   1.0000   1.0000   1.0000
     1.0000   1.0000   1.0000   1.0000   1.0000   1.0000   1.0000   1.0000
     1.0000   1.0000   1.0000   1.0000   1.0000   1.0000   1.0000   1.0000
     1.0000   1.0000   1.0000   1.0000   1.0000   1.0000   1.0000   1.0000
     1.0000   1.0000   1.0000   1.0000   1.0000   1.0000   1.0000   1.0000
     1.0000   1.0000   1.0000   1.0000   1.0000   1.0000   1.0000   1.0000
     1.0000   1.0000   1.0000   1.0000   1.0000   1.0000   1.0000   1.0000
     1.0000   1.0000   1.0000   1.0000   1.0000   1.0000   1.0000   1.0000
     1.0000   1.0000   1.0000   1.0000   1.0000   1.0000   1.0000   1.0000
     1.0000   1.0000   1.0000   1.0000   1.0000   1.0000   1.0000   1.0000
     1.0000   1.0000   1.0000   1.0000   1.0000   1.0000   1.0000   1.0000
     1.0000   1.0000   1.0000   1.0000   1.0000   1.0000   1.0000   1.0000
     1.0000   1.0000   1.0000   1.0000   1.0000   1.0000   1.0000   1.0000
     1.0000   1.0000   1.0000   1.0000   1.0000   1.0000   1.0000   1.0000
     1.0000   1.0000   1.0000   1.0000   1.0000   1.0000   1.0000   1.0000
     1.0000   1.0000   1.0000   1.0000   1.0000   1.0000   1.0000   1.0000
     1.0000   1.0000   1.0000   1.0000   1.0000   1.0000   1.0000   1.0000
     1.0000   1.0000   1.0000   1.0000   1.0000   1.0000   1.0000   1.0000
     1.0000   1.0000   1.0000   1.0000   1.0000   1.0000   1.0000   1.0000
     1.0000   1.0000   1.0000   1.0000   1.0000   1.0000   1.0000   1.0000
     1.0000   1.0000   1.0000   1.0000   1.0000   1.0000   1.0000   1.0000
     1.0000   1.0000   1.0000   1.0000   1.0000   1.0000   1.0000   1.0000
     1.0000   1.0000   1.0000   1.0000   1.0000   1.0000   1.0000   1.0000
     1.0000   1.0000   1.0000   1.0000   1.0000   1.0000   1.0000   1.0000
     1.0000   1.0000   1.0000   1.0000   1.0000   1.0000   1.0000   1.0000
     1.0000   1.0000   1.0000   1.0000   1.0000   1.0000   1.0000   1.0000
     1.0000   1.0000   1.0000   1.0000   1.0000   1.0000   1.0000   1.0000
     1.0000   1.0000   1.0000   1.0000   1.0000   1.0000   1.0000   1.0000
     1.0000   1.0000   1.0000   1.0000   1.0000   1.0000   1.0000   1.0000
     1.0000   1.0000   1.0000   1.0000   1.0000   1.0000   1.0000   1.0000
     1.0000   1.0000   1.0000   1.0000   1.0000   1.0000   1.0000   1.0000
     1.0000   1.0000   1.0000   1.0000   1.0000   1.0000   1.0000   1.0000
     1.0000   1.0000   1.0000   1.0000   1.0000   1.0000   1.0000   1.0000
     1.0000   1.0000   1.0000   1.0000   1.0000   1.0000   1.0000   1.0000
     1.0000   1.0000   1.0000   1.0000   1.0000   1.0000   1.0000   1.0000
     1.0000   1.0000   1.0000   1.0000   1.0000   1.0000   1.0000   1.0000
     1.0000   1.0000   1.0000   1.0000   1.0000   1.0000   1.0000   1.0000
     1.0000   1.0000   1.0000   1.0000   1.0000   1.0000   1.0000   1.0000
     1.0000   1.0000   1.0000   1.0000   1.0000   1.0000   1.0000   1.0000
     1.0000   1.0000   1.0000   1.0000   1.0000   1.0000   1.0000   1.0000
     1.0000   1.0000   1.0000   1.0000   1.0000   0.7734   0.6596   0.6596
     0.0000   0.0000   0.0000   0.0000   0.0000   0.0000   0.0000   0.0000
     0.0000   0.0000   0.0000   0.0000   0.0000   0.0000   0.0000   0.0000
     0.0000   0.0000   0.0000   0.0000   0.0000   0.0000   0.0000   0.0000
     0.0000   0.0000   0.0000   0.0000   0.0000   0.0000   0.0000   0.0000
     0.0000   0.0000   0.0000   0.0000   0.0000   0.0000   0.0000   0.0000
     0.0000   0.0000   0.0000   0.0000   0.0000   0.0000   0.0000   0.0000
     0.0000   0.0000   0.0000   0.0000   0.0000   0.0000   0.0000   0.0000
     0.0000   0.0000   0.0000   0.0000   0.0000   0.0000   0.0000   0.0000
     0.0000   0.0000   0.0000   0.0000   0.0000   0.0000   0.0000   0.0000
     0.0000   0.0000   0.0000   0.0000   0.0000   0.0000   0.0000   0.0000
     0.0000   0.0000   0.0000   0.0000   0.0000

          k = 0.0000-0.5000-0.5000 ( 82212 PWs)   bands (ev):

    -8.2539  -8.1345  -8.1345  -7.8832  -7.2471  -7.2327  -7.1231  -7.1231
    -7.1053  -7.1053  -6.8424  -6.6683  -6.2135  -6.1904  -6.1904  -6.1604
    -6.0384  -5.9785  -5.9785  -5.8544  -5.2427  -5.2426  -5.2267  -5.2267
    -5.2071  -5.2070  -5.1988  -5.1626  -5.0493  -5.0385  -5.0103  -5.0103
    -4.9604  -4.8830  -4.8830  -4.5937  -4.3017  -4.3015  -4.1756  -4.1756
    -4.1723  -4.1723  -4.1690  -4.1407  -4.1406  -4.1161  -3.7979  -3.7226
    -3.4380  -3.4263  -3.3855  -3.3854  -3.2870  -3.2869  -3.2552  -3.0701
    -2.6025  -2.5910  -2.5772  -2.5772  -2.5536  -2.5536  -2.5349  -2.4862
    -2.4256  -2.4132  -2.3647  -2.3646  -2.3508  -2.3507  -2.3306  -2.3306
    -2.2829  -2.2829  -2.2056  -2.1696  -2.1352  -2.1352  -2.1296  -1.8673
    -1.6712  -1.6631  -1.6629  -1.6618  -1.6008  -1.5872  -1.5871  -1.5775
    -1.4849  -1.4727  -1.4726  -1.4242  -1.2989  -1.1317  -1.1317  -0.9611
    -0.8302  -0.8097  -0.8013  -0.8013  -0.6846  -0.6365  -0.6365  -0.0459
     0.1160   0.1160   0.1164   0.2504   0.4302   0.4303   0.4378   0.4792
     0.4936   0.4936   0.5455   0.5472   0.5722   0.5723   0.7853   1.0130
     1.2499   1.2641   1.2726   1.2726   1.2815   1.2815   1.3055   1.3082
     1.3469   1.3469   1.3571   1.4073   1.4248   1.4755   1.4755   1.5315
[...]

     hubbard stress (kbar)      0.00      0.00      0.00
                                0.00      0.00      0.00
                                0.00      0.00      0.00

     DFT-D   stress (kbar)      0.00      0.00      0.00
                                0.00      0.00      0.00
                                0.00      0.00      0.00

     XDM     stress (kbar)      0.00      0.00      0.00
                                0.00      0.00      0.00
                                0.00      0.00      0.00

     dft-nl  stress (kbar)     24.85      0.00     -0.00
                                0.00     24.85      0.00
                               -0.00      0.00     24.85

     TS-vdW  stress (kbar)      0.00      0.00      0.00
                                0.00      0.00      0.00
                                0.00      0.00      0.00

     MDB     stress (kbar)      0.00      0.00      0.00
                                0.00      0.00      0.00
                                0.00      0.00      0.00

     3D-RISM stress (kbar)      0.00      0.00      0.00
                                0.00      0.00      0.00
                                0.00      0.00      0.00

     Energy error            =      9.4E-05 Ry
     Gradient error          =      5.5E-04 Ry/Bohr

     bfgs converged in   6 scf cycles and   5 bfgs steps
     (criteria: energy <  1.0E-04 Ry, force <  1.0E-03 Ry/Bohr)

     End of BFGS Geometry Optimization

     Final energy             =   -4080.7417595128 Ry

     File ./diamond.bfgs deleted, as requested
Begin final coordinates

ATOMIC_POSITIONS (angstrom)
C             0.8931596884        2.6791434646        4.4583231333
C             0.8930610886        2.6792420644        8.0447837706
C             0.8930610886        6.2444288359        0.8930610886
C             0.8910061049        6.2553147992        4.4692369255
C             0.8952126536        6.2553525023        8.0338601042
C             0.8931596884        9.8308894732        0.8931596884
C             0.8951232683        9.8200063584        4.4692062481
C             0.8910061049        9.8199756810        8.0338978073
C             4.4583231333        2.6791434646        0.8931596884
C             4.4692062481        2.6771798847        4.4692062481
C             4.4692369255        2.6812970481        8.0338978073
C             4.4692369255        6.2553147992        0.8910061049
C             4.4639215792        6.2500100447        4.4639215792
C             4.4645772400        6.2506754459        8.0385371606
C             4.4692062481        9.8200063584        0.8951232683
C             4.4645856697        9.8246269368        4.4645856697
C             4.4639215792        9.8252910273        8.0392025618
C             8.0447837706        2.6792420644        0.8930610886
C             8.0338978073        2.6812970481        4.4692369255
C             8.0338601042        2.6770904994        8.0338601042
C             8.0338601042        6.2553525023        0.8952126536
C             8.0385371606        6.2506754459        4.4645772400
C             8.0392006046        6.2500120019        8.0392006046
C             8.0338978073        9.8199756810        0.8910061049
C             8.0392025618        9.8252910273        4.4639215792
C             8.0385371606        9.8246353665        8.0385371606
C             0.0053768214        0.0107625352        1.7809077516
C             0.0005302584        0.0010703031        5.3570619712
C             0.0040692586       -0.0074854168        8.9234408601
C            -0.0624351735        3.6347383247        1.8486349373
C             0.0007252144        3.5715779368        5.3569408261
C             0.0053526829        3.5669504683        8.9414322573
C             0.0006980205        7.1430586078        1.7854675560
C             0.0013158279        7.1466267495        5.3604229044
C             0.0005581305        7.1432185655        8.9317761018
C             3.5798020787       -0.0074989275        1.7821162961
C             3.5715238978        0.0007792534        5.3588254515
C             3.5690722683        0.0032308829        8.9339265502
C             3.5615406160        3.5669263298        1.7809077516
C             3.5712328481        3.5717728928        5.3570619712
C             3.5797885680        3.5682338926        8.9234408601
C             3.5712498769        7.1431978267        1.7855852560
C             3.5717548064        7.1438102743        5.3576510747
C             3.5715307143        7.1449878978        8.9315244023
C             7.1460147779        0.0010532743        1.7855852560
C             7.1454023303        0.0005483448        5.3576510747
C             7.1442247068        0.0007724369        8.9315244023
C             7.1461539968        3.5716051307        1.7854675560
C             7.1425858551        3.5709873233        5.3604229044
C             7.1459940391        3.5717450207        8.9317761018
C             7.1425764917        7.1466361129        1.7848283611
C             7.1449524805        7.1442601241        5.3581010980
C             7.1454020405        7.1438105641        8.9312968320
C             0.9088104446        0.9050328220        2.6672703310
C             0.8931013455        0.8945961806        6.2515017800
C             0.8774176274        0.9052935999        9.8360220535
C             0.8774176274        4.4531905530        2.6670095531
C             0.8931189822        4.4639319788        6.2514934516
C             0.9088518355        4.4532900414        9.8359225651
C             0.8931013455        8.0377108265        2.6777069724
C             0.8930897199        8.0377209056        6.2514917009
C             0.8931189822        8.0377191549        9.8252806277
C             4.4654981318        0.8931757779        2.6791273751
C             4.4646191095        0.8934644169        6.2522824802
C             4.4590860324        0.8980708873        9.8286644154
C             4.4590860324        4.4605481911        2.6742322657
C             4.4645983804        4.4650929471        6.2506932729
C             4.4655237106        4.4653082176        9.8239043889
C             4.4646191095        8.0369301263        2.6788387361
C             4.4649591734        8.0377242925        6.2514883140
C             4.4645983804        8.0385193336        9.8241196594
C             8.0440299115        0.8979933137        2.6743098393
C             8.0385013093        0.8934362419        6.2507005368
C             8.0376529346        0.8931786662        9.8238646953
C             8.0376529346        4.4653479112        2.6791244868
C             8.0385073846        4.4650899000        6.2522760007
C             8.0440647318        4.4604984746        9.8287141319
C             8.0385013093        8.0385120697        2.6788669111
C             8.0381598245        8.0377211553        6.2514914512
C             8.0385073846        8.0369366058        9.8241227065
C            -0.0624351735        1.7236682157       -0.0624351735
C             0.0053768214        1.7913954014        3.5615406160
C             0.0006980205        1.7868355970        7.1461539968
C             0.0053526829        5.3477803492        0.0053526829
C             0.0040692586        5.3657717464        3.5797885680
C             0.0005581305        5.3574365047        7.1459940391
C             0.0007252144        8.9322717804        0.0007252144
C             0.0005302584        8.9321506353        3.5712328481
C             0.0013158279        8.9287897021        7.1425858551
C             3.5615406160        1.7913954014        0.0053768214
C             3.5798020787        1.7901868569        3.5798020787
C             3.5712498769        1.7867178970        7.1460147779
C             3.5797885680        5.3657717464        0.0040692586
C             3.5690722683        5.3552860563        3.5690722683
C             3.5715307143        5.3576882042        7.1442247068
C             3.5712328481        8.9321506353        0.0005302584
C             3.5715238978        8.9303871550        3.5715238978
C             3.5717548064        8.9315615318        7.1454023303
C             7.1461539968        1.7868355970        0.0006980205
C             7.1460147779        1.7867178970        3.5712498769
C             7.1425764917        1.7874747919        7.1425764917
C             7.1459940391        5.3574365047        0.0005581305
C             7.1442247068        5.3576882042        3.5715307143
C             7.1454020405        5.3579157745        7.1454020405
C             7.1425858551        8.9287897021        0.0013158279
C             7.1454023303        8.9315615318        3.5717548064
C             7.1449524805        8.9311115085        7.1449524805
C             2.6672703310        2.6634927084        2.6672703310
C             2.6777069724        2.6792018075        6.2515017800
C             2.6670095531        2.6948855256        9.8360220535
C             2.6743098393        6.2451826950        2.6743098393
C             2.6788669111        6.2507112972        6.2507005368
C             2.6791244868        6.2515596719        9.8238646953
C             2.6791273751        9.8237144747        2.6791273751
C             2.6788387361        9.8245934970        6.2522824802
C             2.6742322657        9.8301265741        9.8286644154
C             6.2515017800        2.6792018075        2.6777069724
C             6.2514917009        2.6792134331        6.2514917009
C             6.2514934516        2.6791841708        9.8252806277
C             6.2507005368        6.2507112972        2.6788669111
C             6.2514914512        6.2510527820        6.2514914512
C             6.2522760007        6.2507052219        9.8241227065
C             6.2522824802        9.8245934970        2.6788387361
C             6.2514883140        9.8242534331        6.2514883140
C             6.2506932729        9.8246142261        9.8241196594
C             9.8360220535        2.6948855256        2.6670095531
C             9.8252806277        2.6791841708        6.2514934516
C             9.8359225651        2.6634513175        9.8359225651
C             9.8238646953        6.2515596719        2.6791244868
C             9.8241227065        6.2507052219        6.2522760007
C             9.8287141319        6.2451478747        9.8287141319
C             9.8286644154        9.8301265741        2.6742322657
C             9.8241196594        9.8246142261        6.2506932729
C             9.8239043889        9.8236888959        9.8239043889
C             1.7809077516        0.0107625352        0.0053768214
C             1.7821162961       -0.0074989275        3.5798020787
C             1.7855852560        0.0010532743        7.1460147779
C             1.8486349373        3.6347383247       -0.0624351735
C             1.7809077516        3.5669263298        3.5615406160
C             1.7854675560        3.5716051307        7.1461539968
C             1.7854675560        7.1430586078        0.0006980205
C             1.7855852560        7.1431978267        3.5712498769
C             1.7848283611        7.1466361129        7.1425764917
C             5.3570619712        0.0010703031        0.0005302584
C             5.3588254515        0.0007792534        3.5715238978
C             5.3576510747        0.0005483448        7.1454023303
C             5.3569408261        3.5715779368        0.0007252144
C             5.3570619712        3.5717728928        3.5712328481
C             5.3604229044        3.5709873233        7.1425858551
C             5.3604229044        7.1466267495        0.0013158279
C             5.3576510747        7.1438102743        3.5717548064
C             5.3581010980        7.1442601241        7.1449524805
C             8.9234408601       -0.0074854168        0.0040692586
C             8.9339265502        0.0032308829        3.5690722683
C             8.9315244023        0.0007724369        7.1442247068
C             8.9414322573        3.5669504683        0.0053526829
C             8.9234408601        3.5682338926        3.5797885680
C             8.9317761018        3.5717450207        7.1459940391
C             8.9317761018        7.1432185655        0.0005581305
C             8.9315244023        7.1449878978        3.5715307143
C             8.9312968320        7.1438105641        7.1454020405
C             2.6672703310        0.9050328220        0.9088104446
C             2.6791273751        0.8931757779        4.4654981318
C             2.6743098393        0.8979933137        8.0440299115
C             2.6670095531        4.4531905530        0.8774176274
C             2.6742322657        4.4605481911        4.4590860324
C             2.6791244868        4.4653479112        8.0376529346
C             2.6777069724        8.0377108265        0.8931013455
C             2.6788387361        8.0369301263        4.4646191095
C             2.6788669111        8.0385120697        8.0385013093
C             6.2515017800        0.8945961806        0.8931013455
C             6.2522824802        0.8934644169        4.4646191095
C             6.2507005368        0.8934362419        8.0385013093
C             6.2514934516        4.4639319788        0.8931189822
C             6.2506932729        4.4650929471        4.4645983804
C             6.2522760007        4.4650899000        8.0385073846
C             6.2514917009        8.0377209056        0.8930897199
C             6.2514883140        8.0377242925        4.4649591734
C             6.2514914512        8.0377211553        8.0381598245
C             9.8360220535        0.9052935999        0.8774176274
C             9.8286644154        0.8980708873        4.4590860324
C             9.8238646953        0.8931786662        8.0376529346
C             9.8359225651        4.4532900414        0.9088518355
C             9.8239043889        4.4653082176        4.4655237106
C             9.8287141319        4.4604984746        8.0440647318
C             9.8252806277        8.0377191549        0.8931189822
C             9.8241196594        8.0385193336        4.4645983804
C             9.8241227065        8.0369366058        8.0385073846
C             1.8487053509        1.7235978021        1.8487053509
C             1.7854454737        1.7868576793        5.3568858937
C             1.7806905328        1.7916126202        8.9417026795
C             1.7806905328        5.3475099270        1.7806905328
C             1.7855628796        5.3574152296        5.3570354610
C             1.7820460184        5.3660091368        8.9232034697
C             1.7854454737        8.9323267128        1.7854454737
C             1.7847644476        8.9287307775        5.3604818290
C             1.7855628796        8.9321771455        8.9317973769
C             5.3568858937        1.7868576793        1.7854454737
C             5.3604818290        1.7875387054        5.3604818290
C             5.3570354610        1.7867402734        8.9317973769
C             5.3570354610        5.3574152296        1.7855628796
C             5.3576382551        5.3579048644        5.3576382551
C             5.3588284084        5.3576779529        8.9315346536
C             5.3604818290        8.9287307775        1.7847644476
C             5.3580914462        8.9311211603        5.3580914462
C             5.3576382551        8.9315743514        8.9313077421
C             8.9417026795        1.7916126202        1.7806905328
C             8.9317973769        1.7867402734        5.3570354610
C             8.9232034697        1.7902571346        8.9232034697
C             8.9232034697        5.3660091368        1.7820460184
C             8.9315346536        5.3576779529        5.3588284084
C             8.9340442691        5.3551683374        8.9340442691
C             8.9317973769        8.9321771455        1.7855628796
C             8.9313077421        8.9315743514        5.3576382551
C             8.9315346536        8.9303841981        8.9315346536
End final coordinates



     Writing all to output data dir ./diamond.save/
 
     init_run     :      5.48s CPU      5.75s WALL (       1 calls)
     electrons    :   2908.12s CPU   2939.22s WALL (       6 calls)
     update_pot   :      2.21s CPU      2.25s WALL (       5 calls)
     forces       :     14.15s CPU     14.76s WALL (       6 calls)
     stress       :    175.93s CPU    177.82s WALL (       6 calls)

     Called by init_run:
     wfcinit      :      4.29s CPU      4.46s WALL (       1 calls)
     wfcinit:atom :      0.02s CPU      0.03s WALL (       1 calls)
     wfcinit:wfcr :      4.19s CPU      4.29s WALL (       1 calls)
     potinit      :      0.52s CPU      0.58s WALL (       1 calls)
     hinit0       :      0.06s CPU      0.06s WALL (       1 calls)

     Called by electrons:
     c_bands      :   2815.14s CPU   2843.94s WALL (      73 calls)
     sum_band     :     61.31s CPU     62.16s WALL (      73 calls)
     v_of_rho     :     21.68s CPU     22.23s WALL (      76 calls)
     v_h          :      0.24s CPU      0.24s WALL (      76 calls)
     v_xc         :     24.86s CPU     25.45s WALL (      88 calls)
     newd         :      2.95s CPU      3.01s WALL (      76 calls)
     PAW_pot      :      6.05s CPU      6.17s WALL (      81 calls)
     mix_rho      :      0.89s CPU      0.93s WALL (      73 calls)
     vdW_kernel   :      0.16s CPU      0.16s WALL (       1 calls)

     Called by c_bands:
     init_us_2    :      5.86s CPU      6.03s WALL (     152 calls)
     init_us_2:cp :      5.86s CPU      6.03s WALL (     152 calls)
     cegterg      :   2324.61s CPU   2350.30s WALL (      74 calls)

     Called by sum_band:
     sum_band:wei :      1.04s CPU      1.05s WALL (      73 calls)
     sum_band:loo :     50.40s CPU     51.07s WALL (      73 calls)
     sum_band:buf :      0.00s CPU      0.00s WALL (      73 calls)
     sum_band:ini :      2.86s CPU      2.95s WALL (      73 calls)
     sum_band:cal :     29.61s CPU     29.87s WALL (      78 calls)
     sum_band:bec :      0.67s CPU      0.68s WALL (      78 calls)
     addusdens    :      2.68s CPU      2.73s WALL (      73 calls)
     addusd:skk   :      0.79s CPU      0.81s WALL (      73 calls)
     addusd:dgemm :      0.96s CPU      0.97s WALL (      73 calls)
     addusd:qvan2 :      0.07s CPU      0.08s WALL (      73 calls)

     Called by *egterg:
     cdiaghg      :   1685.43s CPU   1695.72s WALL (     819 calls)
     cegterg:over :    116.02s CPU    120.01s WALL (     753 calls)
     cegterg:upda :     66.01s CPU     67.61s WALL (     753 calls)
     cegterg:last :     25.02s CPU     25.23s WALL (      76 calls)
     h_psi        :    303.97s CPU    309.02s WALL (     828 calls)
     s_psi        :     86.65s CPU     87.41s WALL (     828 calls)
     g_psi        :      0.27s CPU      0.28s WALL (     753 calls)

     Called by h_psi:
     h_psi:calbec :     97.52s CPU     98.39s WALL (     828 calls)
     vloc_psi     :    117.78s CPU    119.42s WALL (     828 calls)
     add_vuspsi   :     86.54s CPU     87.34s WALL (     828 calls)

     General routines
     calbec       :    138.60s CPU    139.84s WALL (     936 calls)
     fft          :     12.82s CPU     13.04s WALL (    5798 calls)
     ffts         :      0.30s CPU      0.31s WALL (     149 calls)
     fftw         :    129.14s CPU    130.96s WALL (  277231 calls)
     interpolate  :      0.29s CPU      0.30s WALL (      76 calls)
 
     Parallel routines

     PAW routines
     PAW_pot      :      6.05s CPU      6.17s WALL (      81 calls)
     PAW_symme    :      0.26s CPU      0.26s WALL (     154 calls)
 
     PWSCF        :  51m51.70s CPU  52m27.56s WALL

 
   This run was terminated on:  14:45:26  29Sep2023            

=------------------------------------------------------------------------------=
   JOB DONE.
=------------------------------------------------------------------------------=
