
     Program PWSCF v.7.1 starts on 27Mar2024 at  9:49:37 

     This program is part of the open-source Quantum ESPRESSO suite
     for quantum simulation of materials; please cite
         "P. Giannozzi et al., J. Phys.:Condens. Matter 21 395502 (2009);
         "P. Giannozzi et al., J. Phys.:Condens. Matter 29 465901 (2017);
         "P. Giannozzi et al., J. Chem. Phys. 152 154105 (2020);
          URL http://www.quantum-espresso.org", 
     in publications or presentations arising from this work. More details at
     http://www.quantum-espresso.org/quote

     Parallel version (MPI & OpenMP), running on     128 processor cores
     Number of MPI processes:               128
     Threads/MPI process:                     1

     MPI processes distributed on     1 nodes
     1991898 MiB available memory on the printing compute node when the environment starts
 
     Reading input from espresso.pwi
Warning: card &CELL ignored
Warning: card    CELL_DYNAMICS    = 'BFGS' ignored
Warning: card / ignored

     Current dimensions of program PWSCF are:
     Max number of different atomic species (ntypx) = 10
     Max number of k-points (npk) =  40000
     Max angular momentum in pseudopotentials (lmaxx) =  4
     file Pb.pbe-dn-kjpaw_psl.1.0.0.UPF: wavefunction(s)  6S 6P 5D renormalized
     file I.pbe-dn-kjpaw_psl.1.0.0.UPF: wavefunction(s)  5S 5P renormalized

     **************************************************************************
     Initializing libbeef V0.1.2 with the BEEF-vdW functional.
     Citation: Wellendorff et al., PRB 85, 235149 (2012).
     **************************************************************************


     IMPORTANT: XC functional enforced from input :
     Exchange-correlation= BEEF-VDW
                           (   1   4  43  14   2   0   0)
     Any further DFT definition will be discarded
     Please, verify this is what you really want

 
     R & G space division:  proc/nbgrp/npool/nimage =     128
     Subspace diagonalization in iterative solution of the eigenvalue problem:
     a serial algorithm will be used

 
     Parallelization info
     --------------------
     sticks:   dense  smooth     PW     G-vecs:    dense   smooth      PW
     Min         238     190     47                39674    28384    3543
     Max         239     191     48                39685    28397    3554
     Sum       30589   24439   6121              5079105  3634441  454335
 
     Using Slab Decomposition
 


     bravais-lattice index     =            4
     lattice parameter (alat)  =      35.6120  a.u.
     unit-cell volume          =   45937.3577 (a.u.)^3
     number of atoms/cell      =          144
     number of atomic types    =            2
     number of electrons       =      2298.00
     number of Kohn-Sham states=         1379
     kinetic-energy cutoff     =      70.0000  Ry
     charge density cutoff     =     350.0000  Ry
     scf convergence threshold =      1.0E-07
     mixing beta               =       0.7000
     number of iterations used =            8  plain     mixing
     energy convergence thresh.=      1.0E-04
     force convergence thresh. =      1.0E-03
     Exchange-correlation= BEEF-VDW
                           (   1   4  43  14   2   0   0)
     nstep                     =           50


     celldm(1)=  35.612033  celldm(2)=   0.000000  celldm(3)=   1.174479
     celldm(4)=   0.000000  celldm(5)=   0.000000  celldm(6)=   0.000000

     crystal axes: (cart. coord. in units of alat)
               a(1) = (   1.000000   0.000000   0.000000 )  
               a(2) = (  -0.500000   0.866025   0.000000 )  
               a(3) = (   0.000000   0.000000   1.174479 )  

     reciprocal axes: (cart. coord. in units 2 pi/alat)
               b(1) = (  1.000000  0.577350 -0.000000 )  
               b(2) = (  0.000000  1.154701  0.000000 )  
               b(3) = (  0.000000 -0.000000  0.851442 )  


     PseudoPot. # 1 for Pb read from file:
     //group///packages/espresso/pseudo/psl_1.0.0/pslibrary.1.0.0/pbe/PSEUDOPOTENTIALS/Pb.pbe-dn-kjpaw_psl.1.0.0.UPF
     MD5 check sum: 39ab5b8a6bbd56b7735ad9f188aac93a
     Pseudo is Projector augmented-wave + core cor, Zval = 14.0
     Generated using 'atomic' code by A. Dal Corso  v.7.1
     Shape of augmentation charge: PSQ
     Using radial grid of 1281 points,  6 beta functions with: 
                l(1) =   0
                l(2) =   0
                l(3) =   1
                l(4) =   1
                l(5) =   2
                l(6) =   2
     Q(r) pseudized with 0 coefficients 


     PseudoPot. # 2 for I  read from file:
     //group///packages/espresso/pseudo/psl_1.0.0/pslibrary.1.0.0/pbe/PSEUDOPOTENTIALS/I.pbe-dn-kjpaw_psl.1.0.0.UPF
     MD5 check sum: bfa8781bc1224d19af3f3980e3fab11e
     Pseudo is Projector augmented-wave + core cor, Zval = 17.0
     Generated using 'atomic' code by A. Dal Corso  v.7.1
     Shape of augmentation charge: PSQ
     Using radial grid of 1247 points,  6 beta functions with: 
                l(1) =   0
                l(2) =   0
                l(3) =   1
                l(4) =   1
                l(5) =   2
                l(6) =   2
     Q(r) pseudized with 0 coefficients 


     atomic species   valence    mass     pseudopotential
        Pb            14.00   207.20000     Pb( 1.00)
        I             17.00   126.90447     I ( 1.00)

     No symmetry found


                                    s                        frac. trans.

      isym =  1     identity                                     

 cryst.   s( 1) = (     1          0          0      )
                  (     0          1          0      )
                  (     0          0          1      )

 cart.    s( 1) = (  1.0000000  0.0000000  0.0000000 )
                  (  0.0000000  1.0000000  0.0000000 )
                  (  0.0000000  0.0000000  1.0000000 )


     point group C_1 (1)    
     there are  1 classes
     the character table:

       E    
A      1.00

     the symmetry operations in each class and the name of the first element:

     E        1
          identity                                               

   Cartesian axes

     site n.     atom                  positions (alat units)
         1           Pb  tau(   1) = (   0.1250136   0.2164827   1.1744753  )
         2           Pb  tau(   2) = (   0.1250034   0.2164918   0.3914896  )
         3           Pb  tau(   3) = (   0.1250085   0.2164873   0.7829825  )
         4           Pb  tau(   4) = (   0.0000128   0.4329881   1.1744712  )
         5           Pb  tau(   5) = (   0.0000026   0.4329971   0.3914855  )
         6           Pb  tau(   6) = (   0.0000077   0.4329926   0.7829784  )
         7           Pb  tau(   7) = (  -0.1249881   0.6494934   1.1744671  )
         8           Pb  tau(   8) = (  -0.1249983   0.6495025   0.3914814  )
         9           Pb  tau(   9) = (  -0.1249932   0.6494980   0.7829742  )
        10           Pb  tau(  10) = (  -0.2499889   0.8659988   1.1744630  )
        11           Pb  tau(  11) = (  -0.2499991   0.8660078   0.3914773  )
        12           Pb  tau(  12) = (  -0.2499940   0.8660033   0.7829701  )
        13           Pb  tau(  13) = (   0.3750136   0.2164818   1.1744786  )
        14           Pb  tau(  14) = (   0.3750034   0.2164908   0.3914929  )
        15           Pb  tau(  15) = (   0.3750085   0.2164863   0.7829857  )
        16           Pb  tau(  16) = (   0.2500128   0.4329871   1.1744745  )
        17           Pb  tau(  17) = (   0.2500026   0.4329962   0.3914888  )
        18           Pb  tau(  18) = (   0.2500077   0.4329916   0.7829816  )
        19           Pb  tau(  19) = (   0.1250119   0.6494925   1.1744703  )
        20           Pb  tau(  20) = (   0.1250017   0.6495015   0.3914847  )
        21           Pb  tau(  21) = (   0.1250068   0.6494970   0.7829775  )
        22           Pb  tau(  22) = (   0.0000111   0.8659978   1.1744662  )
        23           Pb  tau(  23) = (   0.0000009   0.8660069   0.3914805  )
        24           Pb  tau(  24) = (   0.0000060   0.8660024   0.7829734  )
        25           Pb  tau(  25) = (   0.6250136   0.2164808   1.1744818  )
        26           Pb  tau(  26) = (   0.6250034   0.2164898   0.3914962  )
        27           Pb  tau(  27) = (   0.6250085   0.2164853   0.7829890  )
        28           Pb  tau(  28) = (   0.5000128   0.4329862   1.1744777  )
        29           Pb  tau(  29) = (   0.5000026   0.4329952   0.3914920  )
        30           Pb  tau(  30) = (   0.5000077   0.4329907   0.7829849  )
        31           Pb  tau(  31) = (   0.3750119   0.6494915   1.1744736  )
        32           Pb  tau(  32) = (   0.3750017   0.6495006   0.3914879  )
        33           Pb  tau(  33) = (   0.3750068   0.6494960   0.7829808  )
        34           Pb  tau(  34) = (   0.2500111   0.8659969   1.1744695  )
        35           Pb  tau(  35) = (   0.2500009   0.8660059   0.3914838  )
        36           Pb  tau(  36) = (   0.2500060   0.8660014   0.7829766  )
        37           Pb  tau(  37) = (   0.8750136   0.2164798   1.1744851  )
        38           Pb  tau(  38) = (   0.8750034   0.2164889   0.3914994  )
        39           Pb  tau(  39) = (   0.8750085   0.2164844   0.7829923  )
        40           Pb  tau(  40) = (   0.7500128   0.4329852   1.1744810  )
        41           Pb  tau(  41) = (   0.7500026   0.4329942   0.3914953  )
        42           Pb  tau(  42) = (   0.7500077   0.4329897   0.7829881  )
        43           Pb  tau(  43) = (   0.6250119   0.6494906   1.1744769  )
        44           Pb  tau(  44) = (   0.6250017   0.6494996   0.3914912  )
        45           Pb  tau(  45) = (   0.6250068   0.6494951   0.7829840  )
        46           Pb  tau(  46) = (   0.5000111   0.8659959   1.1744727  )
        47           Pb  tau(  47) = (   0.5000009   0.8660050   0.3914870  )
        48           Pb  tau(  48) = (   0.5000060   0.8660004   0.7829799  )
        49           I   tau(  49) = (   0.1250105   0.0721505   0.6824253  )
        50           I   tau(  50) = (   0.1250156   0.0721459   1.0739182  )
        51           I   tau(  51) = (   0.0000045   0.2886603   0.2909283  )
        52           I   tau(  52) = (   0.0000096   0.2886558   0.6824212  )
        53           I   tau(  53) = (   0.0000147   0.2886513   1.0739140  )
        54           I   tau(  54) = (  -0.1249963   0.5051657   0.2909242  )
        55           I   tau(  55) = (  -0.1249912   0.5051612   0.6824171  )
        56           I   tau(  56) = (  -0.1249861   0.5051566   1.0739099  )
        57           I   tau(  57) = (  -0.2499971   0.7216710   0.2909201  )
        58           I   tau(  58) = (  -0.2499920   0.7216665   0.6824129  )
        59           I   tau(  59) = (  -0.2499869   0.7216620   1.0739058  )
        60           I   tau(  60) = (   0.3750054   0.0721540   0.2909357  )
        61           I   tau(  61) = (   0.3750105   0.0721495   0.6824286  )
        62           I   tau(  62) = (   0.3750156   0.0721450   1.0739214  )
        63           I   tau(  63) = (   0.2500045   0.2886594   0.2909316  )
        64           I   tau(  64) = (   0.2500096   0.2886548   0.6824244  )
        65           I   tau(  65) = (   0.2500147   0.2886503   1.0739173  )
        66           I   tau(  66) = (   0.1250037   0.5051647   0.2909275  )
        67           I   tau(  67) = (   0.1250088   0.5051602   0.6824203  )
        68           I   tau(  68) = (   0.1250139   0.5051557   1.0739132  )
        69           I   tau(  69) = (   0.0000029   0.7216701   0.2909233  )
        70           I   tau(  70) = (   0.0000080   0.7216656   0.6824162  )
        71           I   tau(  71) = (   0.0000131   0.7216610   1.0739090  )
        72           I   tau(  72) = (   0.6250054   0.0721530   0.2909390  )
        73           I   tau(  73) = (   0.6250105   0.0721485   0.6824318  )
        74           I   tau(  74) = (   0.6250156   0.0721440   1.0739247  )
        75           I   tau(  75) = (   0.5000045   0.2886584   0.2909348  )
        76           I   tau(  76) = (   0.5000096   0.2886539   0.6824277  )
        77           I   tau(  77) = (   0.5000147   0.2886494   1.0739205  )
        78           I   tau(  78) = (   0.3750037   0.5051638   0.2909307  )
        79           I   tau(  79) = (   0.3750088   0.5051592   0.6824236  )
        80           I   tau(  80) = (   0.3750139   0.5051547   1.0739164  )
        81           I   tau(  81) = (   0.2500029   0.7216691   0.2909266  )
        82           I   tau(  82) = (   0.2500080   0.7216646   0.6824194  )
        83           I   tau(  83) = (   0.2500131   0.7216601   1.0739123  )
        84           I   tau(  84) = (   0.8750054   0.0721521   0.2909422  )
        85           I   tau(  85) = (   0.8750105   0.0721476   0.6824351  )
        86           I   tau(  86) = (   0.8750156   0.0721430   1.0739279  )
        87           I   tau(  87) = (   0.7500045   0.2886574   0.2909381  )
        88           I   tau(  88) = (   0.7500096   0.2886529   0.6824310  )
        89           I   tau(  89) = (   0.7500147   0.2886484   1.0739238  )
        90           I   tau(  90) = (   0.6250037   0.5051628   0.2909340  )
        91           I   tau(  91) = (   0.6250088   0.5051583   0.6824268  )
        92           I   tau(  92) = (   0.6250139   0.5051538   1.0739197  )
        93           I   tau(  93) = (   0.5000029   0.7216681   0.2909299  )
        94           I   tau(  94) = (   0.5000080   0.7216636   0.6824227  )
        95           I   tau(  95) = (   0.5000131   0.7216591   1.0739156  )
        96           I   tau(  96) = (  -0.0000017   0.1443297   0.1005555  )
        97           I   tau(  97) = (   0.0000034   0.1443252   0.4920483  )
        98           I   tau(  98) = (   0.0000085   0.1443207   0.8835412  )
        99           I   tau(  99) = (  -0.1250025   0.3608351   0.1005514  )
       100           I   tau( 100) = (  -0.1249974   0.3608306   0.4920442  )
       101           I   tau( 101) = (  -0.1249923   0.3608260   0.8835371  )
       102           I   tau( 102) = (  -0.2500034   0.5773404   0.1005472  )
       103           I   tau( 103) = (  -0.2499983   0.5773359   0.4920401  )
       104           I   tau( 104) = (  -0.2499932   0.5773314   0.8835329  )
       105           I   tau( 105) = (  -0.3750042   0.7938458   0.1005431  )
       106           I   tau( 106) = (  -0.3749991   0.7938413   0.4920360  )
       107           I   tau( 107) = (  -0.3749940   0.7938368   0.8835288  )
       108           I   tau( 108) = (   0.2499983   0.1443288   0.1005587  )
       109           I   tau( 109) = (   0.2500034   0.1443242   0.4920516  )
       110           I   tau( 110) = (   0.2500085   0.1443197   0.8835444  )
       111           I   tau( 111) = (   0.1249975   0.3608341   0.1005546  )
       112           I   tau( 112) = (   0.1250026   0.3608296   0.4920475  )
       113           I   tau( 113) = (   0.1250077   0.3608251   0.8835403  )
       114           I   tau( 114) = (  -0.0000034   0.5773395   0.1005505  )
       115           I   tau( 115) = (   0.0000017   0.5773350   0.4920433  )
       116           I   tau( 116) = (   0.0000068   0.5773304   0.8835362  )
       117           I   tau( 117) = (  -0.1250042   0.7938448   0.1005464  )
       118           I   tau( 118) = (  -0.1249991   0.7938403   0.4920392  )
       119           I   tau( 119) = (  -0.1249940   0.7938358   0.8835321  )
       120           I   tau( 120) = (   0.4999983   0.1443278   0.1005620  )
       121           I   tau( 121) = (   0.5000034   0.1443233   0.4920548  )
       122           I   tau( 122) = (   0.5000085   0.1443188   0.8835477  )
       123           I   tau( 123) = (   0.3749975   0.3608332   0.1005579  )
       124           I   tau( 124) = (   0.3750026   0.3608286   0.4920507  )
       125           I   tau( 125) = (   0.3750077   0.3608241   0.8835436  )
       126           I   tau( 126) = (   0.2499966   0.5773385   0.1005537  )
       127           I   tau( 127) = (   0.2500017   0.5773340   0.4920466  )
       128           I   tau( 128) = (   0.2500068   0.5773295   0.8835394  )
       129           I   tau( 129) = (   0.1249958   0.7938439   0.1005496  )
       130           I   tau( 130) = (   0.1250009   0.7938394   0.4920425  )
       131           I   tau( 131) = (   0.1250060   0.7938348   0.8835353  )
       132           I   tau( 132) = (   0.7499983   0.1443268   0.1005653  )
       133           I   tau( 133) = (   0.7500034   0.1443223   0.4920581  )
       134           I   tau( 134) = (   0.7500085   0.1443178   0.8835509  )
       135           I   tau( 135) = (   0.6249975   0.3608322   0.1005611  )
       136           I   tau( 136) = (   0.6250026   0.3608277   0.4920540  )
       137           I   tau( 137) = (   0.6250077   0.3608232   0.8835468  )
       138           I   tau( 138) = (   0.4999966   0.5773376   0.1005570  )
       139           I   tau( 139) = (   0.5000017   0.5773330   0.4920499  )
       140           I   tau( 140) = (   0.5000068   0.5773285   0.8835427  )
       141           I   tau( 141) = (   0.3749958   0.7938429   0.1005529  )
       142           I   tau( 142) = (   0.3750009   0.7938384   0.4920457  )
       143           I   tau( 143) = (   0.3750060   0.7938339   0.8835386  )
       144           Pb  tau( 144) = (   0.1250054   0.0721550   0.2909325  )

   Crystallographic axes

     site n.     atom                  positions (cryst. coord.)
         1           Pb  tau(   1) = (  0.2500000  0.2499727  0.9999973  )
         2           Pb  tau(   2) = (  0.2499950  0.2499832  0.3333306  )
         3           Pb  tau(   3) = (  0.2499975  0.2499780  0.6666639  )
         4           Pb  tau(   4) = (  0.2499986  0.4999716  0.9999938  )
         5           Pb  tau(   5) = (  0.2499936  0.4999820  0.3333271  )
         6           Pb  tau(   6) = (  0.2499961  0.4999768  0.6666604  )
         7           Pb  tau(   7) = (  0.2499972  0.7499704  0.9999902  )
         8           Pb  tau(   8) = (  0.2499922  0.7499809  0.3333236  )
         9           Pb  tau(   9) = (  0.2499947  0.7499757  0.6666569  )
        10           Pb  tau(  10) = (  0.2499957  0.9999693  0.9999867  )
        11           Pb  tau(  11) = (  0.2499908  0.9999797  0.3333201  )
        12           Pb  tau(  12) = (  0.2499932  0.9999745  0.6666534  )
        13           Pb  tau(  13) = (  0.4999994  0.2499716  1.0000000  )
        14           Pb  tau(  14) = (  0.4999944  0.2499821  0.3333334  )
        15           Pb  tau(  15) = (  0.4999969  0.2499768  0.6666667  )
        16           Pb  tau(  16) = (  0.4999980  0.4999705  0.9999965  )
        17           Pb  tau(  17) = (  0.4999930  0.4999809  0.3333299  )
        18           Pb  tau(  18) = (  0.4999955  0.4999757  0.6666632  )
        19           Pb  tau(  19) = (  0.4999966  0.7499693  0.9999930  )
        20           Pb  tau(  20) = (  0.4999916  0.7499798  0.3333264  )
        21           Pb  tau(  21) = (  0.4999941  0.7499745  0.6666597  )
        22           Pb  tau(  22) = (  0.4999952  0.9999682  0.9999895  )
        23           Pb  tau(  23) = (  0.4999902  0.9999786  0.3333228  )
        24           Pb  tau(  24) = (  0.4999927  0.9999734  0.6666562  )
        25           Pb  tau(  25) = (  0.7499989  0.2499705  1.0000028  )
        26           Pb  tau(  26) = (  0.7499939  0.2499809  0.3333362  )
        27           Pb  tau(  27) = (  0.7499964  0.2499757  0.6666695  )
        28           Pb  tau(  28) = (  0.7499975  0.4999694  0.9999993  )
        29           Pb  tau(  29) = (  0.7499925  0.4999798  0.3333326  )
        30           Pb  tau(  30) = (  0.7499950  0.4999746  0.6666660  )
        31           Pb  tau(  31) = (  0.7499960  0.7499682  0.9999958  )
        32           Pb  tau(  32) = (  0.7499910  0.7499786  0.3333291  )
        33           Pb  tau(  33) = (  0.7499935  0.7499734  0.6666625  )
        34           Pb  tau(  34) = (  0.7499946  0.9999671  0.9999923  )
        35           Pb  tau(  35) = (  0.7499896  0.9999775  0.3333256  )
        36           Pb  tau(  36) = (  0.7499921  0.9999723  0.6666590  )
        37           Pb  tau(  37) = (  0.9999983  0.2499694  1.0000056  )
        38           Pb  tau(  38) = (  0.9999933  0.2499798  0.3333389  )
        39           Pb  tau(  39) = (  0.9999958  0.2499746  0.6666723  )
        40           Pb  tau(  40) = (  0.9999969  0.4999682  1.0000021  )
        41           Pb  tau(  41) = (  0.9999919  0.4999787  0.3333354  )
        42           Pb  tau(  42) = (  0.9999944  0.4999735  0.6666687  )
        43           Pb  tau(  43) = (  0.9999955  0.7499671  0.9999986  )
        44           Pb  tau(  44) = (  0.9999905  0.7499775  0.3333319  )
        45           Pb  tau(  45) = (  0.9999930  0.7499723  0.6666652  )
        46           Pb  tau(  46) = (  0.9999941  0.9999659  0.9999951  )
        47           Pb  tau(  47) = (  0.9999891  0.9999764  0.3333284  )
        48           Pb  tau(  48) = (  0.9999916  0.9999712  0.6666617  )
        49           I   tau(  49) = (  0.1666666  0.0833122  0.5810454  )
        50           I   tau(  50) = (  0.1666691  0.0833070  0.9143787  )
        51           I   tau(  51) = (  0.1666626  0.3333162  0.2477085  )
        52           I   tau(  52) = (  0.1666651  0.3333110  0.5810418  )
        53           I   tau(  53) = (  0.1666676  0.3333058  0.9143752  )
        54           I   tau(  54) = (  0.1666612  0.5833151  0.2477050  )
        55           I   tau(  55) = (  0.1666637  0.5833099  0.5810383  )
        56           I   tau(  56) = (  0.1666662  0.5833047  0.9143717  )
        57           I   tau(  57) = (  0.1666598  0.8333139  0.2477015  )
        58           I   tau(  58) = (  0.1666623  0.8333087  0.5810348  )
        59           I   tau(  59) = (  0.1666648  0.8333035  0.9143682  )
        60           I   tau(  60) = (  0.4166635  0.0833163  0.2477148  )
        61           I   tau(  61) = (  0.4166660  0.0833111  0.5810481  )
        62           I   tau(  62) = (  0.4166685  0.0833058  0.9143815  )
        63           I   tau(  63) = (  0.4166621  0.3333151  0.2477113  )
        64           I   tau(  64) = (  0.4166646  0.3333099  0.5810446  )
        65           I   tau(  65) = (  0.4166671  0.3333047  0.9143780  )
        66           I   tau(  66) = (  0.4166607  0.5833140  0.2477078  )
        67           I   tau(  67) = (  0.4166632  0.5833088  0.5810411  )
        68           I   tau(  68) = (  0.4166657  0.5833035  0.9143744  )
        69           I   tau(  69) = (  0.4166593  0.8333128  0.2477043  )
        70           I   tau(  70) = (  0.4166618  0.8333076  0.5810376  )
        71           I   tau(  71) = (  0.4166643  0.8333024  0.9143709  )
        72           I   tau(  72) = (  0.6666629  0.0833152  0.2477176  )
        73           I   tau(  73) = (  0.6666654  0.0833099  0.5810509  )
        74           I   tau(  74) = (  0.6666679  0.0833047  0.9143842  )
        75           I   tau(  75) = (  0.6666615  0.3333140  0.2477141  )
        76           I   tau(  76) = (  0.6666640  0.3333088  0.5810474  )
        77           I   tau(  77) = (  0.6666665  0.3333036  0.9143807  )
        78           I   tau(  78) = (  0.6666601  0.5833129  0.2477106  )
        79           I   tau(  79) = (  0.6666626  0.5833076  0.5810439  )
        80           I   tau(  80) = (  0.6666651  0.5833024  0.9143772  )
        81           I   tau(  81) = (  0.6666587  0.8333117  0.2477070  )
        82           I   tau(  82) = (  0.6666612  0.8333065  0.5810404  )
        83           I   tau(  83) = (  0.6666637  0.8333013  0.9143737  )
        84           I   tau(  84) = (  0.9166624  0.0833141  0.2477203  )
        85           I   tau(  85) = (  0.9166649  0.0833088  0.5810537  )
        86           I   tau(  86) = (  0.9166674  0.0833036  0.9143870  )
        87           I   tau(  87) = (  0.9166610  0.3333129  0.2477168  )
        88           I   tau(  88) = (  0.9166635  0.3333077  0.5810502  )
        89           I   tau(  89) = (  0.9166660  0.3333025  0.9143835  )
        90           I   tau(  90) = (  0.9166596  0.5833118  0.2477133  )
        91           I   tau(  91) = (  0.9166621  0.5833065  0.5810467  )
        92           I   tau(  92) = (  0.9166646  0.5833013  0.9143800  )
        93           I   tau(  93) = (  0.9166582  0.8333106  0.2477098  )
        94           I   tau(  94) = (  0.9166607  0.8333054  0.5810431  )
        95           I   tau(  95) = (  0.9166632  0.8333002  0.9143765  )
        96           I   tau(  96) = (  0.0833271  0.1666576  0.0856171  )
        97           I   tau(  97) = (  0.0833296  0.1666524  0.4189505  )
        98           I   tau(  98) = (  0.0833321  0.1666472  0.7522838  )
        99           I   tau(  99) = (  0.0833257  0.4166565  0.0856136  )
       100           I   tau( 100) = (  0.0833282  0.4166513  0.4189470  )
       101           I   tau( 101) = (  0.0833307  0.4166460  0.7522803  )
       102           I   tau( 102) = (  0.0833243  0.6666553  0.0856101  )
       103           I   tau( 103) = (  0.0833268  0.6666501  0.4189434  )
       104           I   tau( 104) = (  0.0833293  0.6666449  0.7522768  )
       105           I   tau( 105) = (  0.0833229  0.9166542  0.0856066  )
       106           I   tau( 106) = (  0.0833254  0.9166489  0.4189399  )
       107           I   tau( 107) = (  0.0833279  0.9166437  0.7522733  )
       108           I   tau( 108) = (  0.3333265  0.1666565  0.0856199  )
       109           I   tau( 109) = (  0.3333290  0.1666513  0.4189532  )
       110           I   tau( 110) = (  0.3333315  0.1666461  0.7522866  )
       111           I   tau( 111) = (  0.3333251  0.4166554  0.0856164  )
       112           I   tau( 112) = (  0.3333276  0.4166501  0.4189497  )
       113           I   tau( 113) = (  0.3333301  0.4166449  0.7522831  )
       114           I   tau( 114) = (  0.3333237  0.6666542  0.0856129  )
       115           I   tau( 115) = (  0.3333262  0.6666490  0.4189462  )
       116           I   tau( 116) = (  0.3333287  0.6666438  0.7522795  )
       117           I   tau( 117) = (  0.3333223  0.9166531  0.0856094  )
       118           I   tau( 118) = (  0.3333248  0.9166478  0.4189427  )
       119           I   tau( 119) = (  0.3333273  0.9166426  0.7522760  )
       120           I   tau( 120) = (  0.5833260  0.1666554  0.0856227  )
       121           I   tau( 121) = (  0.5833285  0.1666502  0.4189560  )
       122           I   tau( 122) = (  0.5833310  0.1666450  0.7522893  )
       123           I   tau( 123) = (  0.5833246  0.4166542  0.0856192  )
       124           I   tau( 124) = (  0.5833271  0.4166490  0.4189525  )
       125           I   tau( 125) = (  0.5833296  0.4166438  0.7522858  )
       126           I   tau( 126) = (  0.5833232  0.6666531  0.0856157  )
       127           I   tau( 127) = (  0.5833257  0.6666479  0.4189490  )
       128           I   tau( 128) = (  0.5833282  0.6666427  0.7522823  )
       129           I   tau( 129) = (  0.5833218  0.9166519  0.0856121  )
       130           I   tau( 130) = (  0.5833243  0.9166467  0.4189455  )
       131           I   tau( 131) = (  0.5833268  0.9166415  0.7522788  )
       132           I   tau( 132) = (  0.8333254  0.1666543  0.0856254  )
       133           I   tau( 133) = (  0.8333279  0.1666491  0.4189588  )
       134           I   tau( 134) = (  0.8333304  0.1666438  0.7522921  )
       135           I   tau( 135) = (  0.8333240  0.4166531  0.0856219  )
       136           I   tau( 136) = (  0.8333265  0.4166479  0.4189553  )
       137           I   tau( 137) = (  0.8333290  0.4166427  0.7522886  )
       138           I   tau( 138) = (  0.8333226  0.6666520  0.0856184  )
       139           I   tau( 139) = (  0.8333251  0.6666468  0.4189518  )
       140           I   tau( 140) = (  0.8333276  0.6666415  0.7522851  )
       141           I   tau( 141) = (  0.8333212  0.9166508  0.0856149  )
       142           I   tau( 142) = (  0.8333237  0.9166456  0.4189482  )
       143           I   tau( 143) = (  0.8333262  0.9166404  0.7522816  )
       144           Pb  tau( 144) = (  0.1666641  0.0833174  0.2477120  )

     number of k points=     1  Gaussian smearing, width (Ry)=  0.0100
                       cart. coord. in units 2pi/alat
        k(    1) = (   0.0000000   0.0000000   0.0000000), wk =   2.0000000

                       cryst. coord.
        k(    1) = (   0.0000000   0.0000000   0.0000000), wk =   2.0000000

     Dense  grid:  5079105 G-vectors     FFT dimensions: ( 216, 216, 250)

     Smooth grid:  3634441 G-vectors     FFT dimensions: ( 192, 192, 225)

     Dynamical RAM for                 wfc:      74.68 MB

     Dynamical RAM for     wfc (w. buffer):      74.68 MB

     Dynamical RAM for           str. fact:       1.21 MB

     Dynamical RAM for           local pot:       0.00 MB

     Dynamical RAM for          nlocal pot:     140.37 MB

     Dynamical RAM for                qrad:       3.00 MB

     Dynamical RAM for          rho,v,vnew:       3.95 MB

     Dynamical RAM for               rhoin:       1.32 MB

     Dynamical RAM for            rho*nmix:       9.69 MB

     Dynamical RAM for           G-vectors:       2.49 MB

     Dynamical RAM for          h,s,v(r/c):    1392.80 MB

     Dynamical RAM for          <psi|beta>:      54.54 MB

     Dynamical RAM for                 psi:     298.71 MB

     Dynamical RAM for                hpsi:     298.71 MB

     Dynamical RAM for                spsi:     298.71 MB

     Dynamical RAM for      wfcinit/wfcrot:     192.89 MB

     Dynamical RAM for           addusdens:     170.12 MB

     Dynamical RAM for          addusforce:     284.61 MB

     Dynamical RAM for         addusstress:     121.69 MB

     Estimated static dynamical RAM per process >     232.39 MB

     Estimated max dynamical RAM per process >       2.52 GB

     Estimated total dynamical RAM >     323.19 GB

     Atomic positions and unit cell read from directory:
     ./PbI2.save/
     Atomic positions from file used, from input discarded
 

     Check: negative core charge=   -0.000001

     The initial density is read from file :
     ./PbI2.save/charge-density



     %%%%%%%%%%%%%%%%%%%%%%%%%%%%%%%%%%%%%%%%%%%%%%%%%%%%%%%%%%%%%%%%%%%%%%%%
     %                                                                      %
     % You are using vdW-DF, which was implemented by the Thonhauser group. %
     % Please cite the following two papers that made this development      %
     % possible and the two reviews that describe the various versions:     %
     %                                                                      %
     %   T. Thonhauser et al., PRL 115, 136402 (2015).                      %
     %   T. Thonhauser et al., PRB 76, 125112 (2007).                       %
     %   K. Berland et al., Rep. Prog. Phys. 78, 066501 (2015).             %
     %   D.C. Langreth et al., J. Phys.: Condens. Matter 21, 084203 (2009). %
     %                                                                      %
     % If you are calculating stress with vdW-DF, please also cite:         %
     %                                                                      %
     %   R. Sabatini et al., J. Phys.: Condens. Matter 24, 424209 (2012).   %
     %                                                                      %
     %%%%%%%%%%%%%%%%%%%%%%%%%%%%%%%%%%%%%%%%%%%%%%%%%%%%%%%%%%%%%%%%%%%%%%%%

     %%%%%%%%%%%%%%%%%%%%%%%%%%%%%%%%%%%%%%%%%%%%%%%%%%%%%%%%%%%%%%%%%%%%%%%%
     %                                                                      %
     %  vdW-DF NEWS:                                                        %
     %                                                                      %
     %  * vdW-DF3 is now available. DOI: 10.1021/acs.jctc.0c00471           %
     %    use with input_dft = 'vdW-DF3-opt1' or 'vdW-DF3-opt2'             %
     %                                                                      %
     %  * Unscreened and range-separated vdW-DF hybrid functionals          %
     %    DOI: 10.1063/1.4986522 and 10.1088/1361-648X/ac2ad2               %
     %    use with input_dft = 'vdW-DF-cx0' (etc) and 'vdW-DF-ahcx'         %
     %                                                                      %
     %%%%%%%%%%%%%%%%%%%%%%%%%%%%%%%%%%%%%%%%%%%%%%%%%%%%%%%%%%%%%%%%%%%%%%%%


     Carrying out vdW-DF run using the following parameters:
     Nqs    =  20  Npoints =  1024  r_max =  100.000
     q_mesh =  0.00001000  0.04494208  0.09755937  0.15916263
               0.23128650  0.31572767  0.41458969  0.53033537
               0.66584808  0.82450364  1.01025438  1.22772762
               1.48234092  1.78043706  2.12944203  2.53805004
               3.01644009  3.57652955  4.23227104  5.00000000


     -----------------------------------------------
     Non-local corr. energy    =      68.74240241 Ry
     -----------------------------------------------

     Starting wfcs from file
     Checking if some PAW data can be deallocated... 
       PAW data deallocated on   95 nodes for type:  1
       PAW data deallocated on   33 nodes for type:  2
     Calculation restarted from scf iteration #    12

     total cpu time spent up to now is       10.8 secs

     Self-consistent Calculation

     iteration # 12     ecut=    70.00 Ry     beta= 0.70
     Calculation restarted from end of k-point loop
     Davidson diagonalization with overlap

---- Real-time Memory Report at c_bands before calling an iterative solver
           415 MiB given to the printing process from OS
             0 MiB allocation reported by mallinfo(arena+hblkhd)
       1958794 MiB available memory on the node where the printing process lives
------------------
     ethr =  8.53E-12,  avg # of iterations = 19.0


     -----------------------------------------------
     Non-local corr. energy    =      68.74242084 Ry
     -----------------------------------------------


     total cpu time spent up to now is       21.6 secs

     End of self-consistent calculation

          k = 0.0000 0.0000 0.0000 (454335 PWs)   bands (ev):

   -41.5769 -41.5769 -41.5769 -41.5453 -41.5452 -41.5452 -41.5418 -41.5418
   -41.5417 -41.4507 -41.4507 -41.4507 -41.4505 -41.4504 -41.4504 -41.1516
   -41.1516 -41.1515 -41.1353 -41.1352 -41.1351 -41.1338 -41.1337 -41.1337
   -41.1260 -41.1260 -41.1258 -41.1054 -41.1054 -41.1053 -41.1014 -41.1014
   -41.1013 -41.0861 -41.0861 -41.0860 -41.0858 -41.0858 -41.0857 -41.0625
   -41.0625 -41.0625 -41.0625 -41.0624 -41.0624 -41.0534 -41.0534 -41.0534
   -41.0533 -41.0533 -41.0533 -41.0484 -41.0484 -41.0484 -41.0484 -41.0484
   -41.0483 -41.0393 -41.0393 -41.0392 -41.0391 -41.0390 -41.0389 -41.0186
   -41.0186 -41.0186 -41.0186 -41.0186 -41.0186 -41.0185 -41.0185 -41.0185
   -41.0185 -41.0185 -41.0184 -40.9709 -40.9709 -40.9708 -40.9708 -40.9708
   -40.9707 -40.9700 -40.9700 -40.9700 -40.9699 -40.9699 -40.9699 -40.9600
   -40.9600 -40.9600 -40.9599 -40.9599 -40.9599 -40.9528 -40.9528 -40.9528
   -40.9527 -40.9527 -40.9527 -40.9515 -40.9515 -40.9514 -40.9514 -40.9514
   -40.9513 -40.9345 -40.9345 -40.9243 -40.9242 -40.9242 -40.9240 -40.9240
   -40.9240 -40.9174 -40.9174 -40.9174 -40.9152 -40.9152 -40.9152 -40.9151
   -40.9151 -40.9142 -40.9142 -40.9142 -40.9098 -40.9098 -40.9098 -40.9095
   -40.9095 -40.9095 -40.9081 -40.9074 -40.9073 -40.9073 -40.9065 -40.9064
   -40.9064 -40.9060 -40.9060 -40.9059 -40.8931 -40.8931 -40.8931 -40.8925
   -40.8925 -40.8925 -40.8875 -40.8874 -40.8874 -40.8853 -40.8853 -40.8853
   -40.8851 -40.8851 -40.8851 -40.8794 -40.8794 -40.8794 -40.8788 -40.8788
   -40.8788 -40.8773 -40.8773 -40.8773 -40.8773 -40.8773 -40.8773 -40.8773
   -40.8772 -40.8772 -40.8762 -40.8762 -40.8762 -40.8752 -40.8752 -40.8752
   -40.8750 -40.8750 -40.8750 -40.8746 -40.8746 -40.8746 -40.8714 -40.8714
   -40.8714 -40.8651 -40.8651 -40.8582 -40.8582 -40.8558 -40.8338 -40.8338
   -40.8334 -40.8321 -40.8321 -40.8303 -40.8303 -40.8302 -40.8296 -40.8295
   -40.8295 -40.8291 -40.8291 -40.8291 -40.8251 -40.8251 -40.8251 -40.8219
   -40.8219 -40.8219 -40.8206 -40.8205 -40.8205 -40.8200 -40.8200 -40.8199
   -40.8177 -40.8177 -40.8177 -40.8082 -40.8082 -40.8082 -40.8082 -40.8082
   -40.8082 -40.8079 -40.8079 -40.8079 -40.8079 -40.8079 -40.8079 -40.8066
   -40.8066 -40.8066 -40.8059 -40.8058 -40.8058 -40.8011 -40.8011 -40.8011
   -40.8011 -40.8011 -40.8010 -40.7975 -40.7975 -40.7975 -40.7975 -40.7975
   -40.7975 -40.7963 -40.7963 -40.7963 -40.7963 -40.7963 -40.7963 -40.7600
   -40.7600 -40.7600 -40.7598 -40.7598 -40.7597 -40.7597 -40.7597 -40.7597
   -40.7595 -40.7595 -40.7595 -40.7595 -40.7595 -40.7595 -40.7595 -40.7595
   -40.7594 -40.7573 -40.7573 -40.7573 -40.7573 -40.7573 -40.7573 -40.7570
   -40.7570 -40.7570 -40.7559 -40.7559 -40.7559 -40.7558 -40.7558 -40.7558
   -40.7557 -40.7557 -40.7557 -40.7556 -40.7556 -40.7556 -40.7555 -40.7555
   -40.7555 -40.7549 -40.7549 -40.7549 -40.7431 -40.7431 -40.7431 -40.7425
   -40.7425 -40.7425 -40.7417 -40.7417 -40.7417 -40.7393 -40.7393 -40.7393
   -40.7393 -40.7393 -40.7392 -40.4677 -40.4677 -40.4676 -40.4675 -40.4675
   -40.4675 -40.4675 -40.4675 -40.4675 -40.4674 -40.4674 -40.4674 -40.4674
   -40.4674 -40.4674 -40.4674 -40.4673 -40.4673 -40.4671 -40.4671 -40.4671
   -40.4671 -40.4671 -40.4671 -40.4667 -40.4667 -40.4667 -40.4667 -40.4667
   -40.4667 -40.4665 -40.4664 -40.4664 -40.4663 -40.4663 -40.4663 -40.4659
   -40.4659 -40.4659 -40.4658 -40.4658 -40.4658 -40.4657 -40.4656 -40.4656
   -40.4656 -40.4656 -40.4656 -40.4654 -40.4654 -40.4654 -40.4654 -40.4654
   -40.4654 -40.4654 -40.4654 -40.4654 -40.4649 -40.4649 -40.4649 -40.4646
   -40.4646 -40.4646 -40.4645 -40.4645 -40.4645 -40.4645 -40.4645 -40.4645
   -40.4645 -40.4641 -40.4641 -40.4641 -40.4640 -40.4640 -40.4640 -40.4638
   -40.4638 -40.4638 -40.4638 -40.4638 -40.4638 -40.4638 -40.4638 -40.4638
   -40.4637 -40.4637 -40.4637 -40.4636 -40.4636 -40.4636 -40.4636 -40.4636
   -40.4636 -40.4636 -40.4636 -40.4636 -40.4634 -40.4634 -40.4634 -40.4633
   -40.4633 -40.4632 -40.4632 -40.4632 -40.4632 -40.4632 -40.4632 -40.4630
   -40.4630 -40.4630 -40.4629 -40.4629 -40.4629 -40.4626 -40.4626 -40.4626
   -40.4626 -40.4626 -40.4626 -40.4626 -40.4626 -40.4626 -40.4625 -40.4625
   -40.4625 -40.4625 -40.4625 -40.4625 -40.4623 -40.4623 -40.4622 -40.4622
   -40.4621 -40.4621 -40.4620 -40.4620 -40.4620 -40.4595 -40.4595 -40.4591
   -40.4591 -40.4590 -40.4590 -40.4590 -40.4590 -40.4585 -40.4585 -40.4585
   -40.4577 -40.4576 -40.4576 -40.4576 -40.4576 -40.4575 -40.4542 -40.4542
   -40.4540 -40.4535 -40.4535 -13.9786 -13.9786 -13.9394 -13.9393 -13.9392
   -13.2377 -13.2376 -13.2365 -13.2163 -13.2163 -13.2159 -13.2089 -13.2089
   -13.2084 -13.2073 -13.2073 -13.2069 -13.2069 -13.2068 -13.2051 -13.1992
   -13.1962 -13.1962 -13.1945 -13.1929 -13.1928 -13.1928 -13.1881 -13.1881
   -13.1841 -13.1815 -13.1814 -13.1778 -13.1778 -13.1759 -13.1461 -13.1440
   -13.1440 -13.1086 -13.1075 -13.1075 -13.1056 -13.1055 -13.1046 -13.1024
   -13.1024 -13.0970 -13.0970 -13.0964 -13.0917 -13.0889 -13.0865 -13.0858
   -13.0858 -13.0817 -13.0806 -13.0806 -13.0789 -13.0789 -13.0722 -13.0711
   -13.0711 -13.0680 -13.0680 -13.0672 -13.0443 -13.0443 -13.0442 -13.0394
   -13.0371 -13.0371 -13.0332 -13.0332 -13.0317 -13.0280 -13.0280 -13.0246
   -13.0240 -13.0240 -13.0239 -13.0235 -13.0235 -13.0226 -13.0221 -13.0215
   -13.0215 -13.0199 -13.0192 -13.0191 -13.0169 -13.0169 -13.0158 -13.0147
   -13.0147 -13.0136 -13.0135 -13.0135 -13.0027 -13.0014 -13.0014 -12.9975
   -12.9948 -12.9948 -12.9859 -12.9859 -12.9826 -12.9810 -12.9794 -12.9794
   -12.9769 -12.9766 -12.9766 -12.9733 -12.9732 -12.9726 -12.9704 -12.9702
   -12.9702 -12.9694 -12.9694 -12.9685 -12.9667 -12.9666 -12.9658 -12.9611
   -12.9603 -12.9602 -12.9595 -12.9595 -12.9586 -12.9163 -12.9156 -12.9156
   -12.9110 -12.9110 -12.9060 -12.9060 -12.9059 -12.9045 -12.9040 -12.9010
   -12.9010 -12.9005 -12.9005 -12.8965 -12.8964 -12.8942 -12.8926 -12.8926
   -12.8924 -12.8924 -12.8918 -12.8918 -12.8902 -12.8902 -12.8900 -12.8897
   -12.8891 -12.8891 -12.8878 -12.8878 -12.8859 -12.8828 -12.8812 -12.8812
   -12.6306 -12.6306 -12.6276 -12.6232 -12.6232 -12.6194 -12.6193 -12.6192
   -12.6182 -12.6169 -12.6167 -12.6167 -12.6140 -12.6140 -12.6123 -12.6116
   -12.6116 -12.6104 -12.6103 -12.6103 -12.6081 -12.6070 -12.6070 -12.6056
   -12.6056 -12.6046 -12.6044 -12.6038 -12.6036 -12.6036 -12.6030 -12.6030
   -12.6017 -12.6010 -12.6001 -12.6001 -12.5999 -12.5999 -12.5997 -12.5997
   -12.5995 -12.5989 -12.5986 -12.5984 -12.5984 -12.5982 -12.5982 -12.5979
   -12.5978 -12.5977 -12.5977 -12.5971 -12.5971 -12.5963 -12.5961 -12.5961
   -12.5944 -12.5944 -12.5938 -12.5938 -12.5938 -12.5937 -12.5927 -12.5927
   -12.5923 -12.5920 -12.5914 -12.5914 -12.5903 -12.5903 -12.5902 -12.5900
   -12.5889 -12.5889 -12.5873 -12.5873 -12.5872 -12.5850 -12.5850 -12.5848
    -8.6401  -8.3027  -8.3027  -8.2437  -8.1341  -8.0859  -8.0859  -8.0630
    -8.0472  -8.0472  -8.0222  -8.0221  -7.9840  -7.9332  -7.9038  -7.9038
    -7.8778  -7.8597  -7.8597  -7.8342  -7.8337  -7.8069  -7.8069  -7.7838
    -7.7838  -7.7581  -7.7563  -7.7563  -7.7372  -7.7345  -7.7345  -7.7324
    -7.7108  -7.6997  -7.6997  -7.6977  -7.6945  -7.6628  -7.6543  -7.6504
    -7.6503  -7.6348  -7.6340  -7.6340  -7.6311  -7.6311  -7.6225  -7.6189
    -7.6175  -7.6175  -7.5950  -7.5950  -7.5867  -7.5698  -7.5698  -7.5593
    -7.5585  -7.5585  -7.5475  -7.5429  -7.5429  -7.5372  -7.5372  -7.5301
    -7.5198  -7.5029  -7.5029  -7.4877  -7.4783  -7.4783  -7.3237  -7.3139
    -7.3116  -7.3116  -7.3089  -7.3089  -7.3085  -7.2940  -7.2939  -7.2921
    -7.2413  -7.2413  -7.2398  -7.2391  -7.2391  -7.2371  -7.1969  -7.1969
    -7.1953  -7.1812  -7.1805  -7.1805  -7.1774  -7.1774  -7.1772  -4.4675
    -3.8869  -3.8725  -3.8725  -3.8309  -3.8309  -3.7673  -3.7673  -3.7622
    -3.7622  -3.7429  -3.7421  -3.7080  -3.6651  -3.6505  -3.6505  -3.6438
    -3.6129  -3.6129  -3.6041  -3.5716  -3.5716  -3.5105  -3.4874  -3.4874
    -3.4708  -3.4270  -3.4270  -3.3624  -3.3624  -3.3540  -3.3145  -3.3132
    -3.3132  -3.3093  -3.3035  -3.3023  -3.3023  -3.3010  -3.3009  -3.3009
    -3.1769  -3.0558  -3.0478  -3.0478  -3.0461  -3.0444  -3.0444  -2.8349
     0.5805   0.5806   0.7240   0.9166   0.9166   0.9756   0.9841   0.9841
     1.0216   1.0355   1.0356   1.0577   1.1036   1.1036   1.1640   1.1866
     1.1866   1.2038   1.2706   1.2707   1.2758   1.2920   1.3051   1.3051
     1.3253   1.3272   1.3272   1.3406   1.3406   1.3645   1.3878   1.3878
     1.4111   1.4232   1.4232   1.4241   1.4317   1.4549   1.4549   1.5137
     1.5138   1.5180   1.5271   1.5272   1.5589   1.5589   1.5769   1.6010
     1.6010   1.6099   1.6122   1.6256   1.6256   1.6393   1.6393   1.6880
     1.6989   1.6989   1.7139   1.7232   1.7300   1.7300   1.7411   1.7451
     1.7451   1.7610   1.7709   1.7709   1.7734   1.8075   1.8449   1.8449
     1.8547   1.8825   1.8825   1.8838   1.8927   1.8927   1.9057   1.9074
     1.9074   1.9123   1.9123   1.9301   1.9468   1.9490   1.9490   1.9532
     1.9613   1.9613   1.9782   1.9782   1.9871   2.0032   2.0032   2.0417
     2.0467   2.0467   2.0495   2.0939   2.0940   2.1257   2.1393   2.1393
     2.1576   2.1583   2.1583   2.1641   2.1778   2.1893   2.1893   2.1904
     2.2186   2.2188   2.2188   2.2217   2.2217   2.2307   2.2407   2.2407
     2.2435   2.2461   2.2461   2.2537   2.2633   2.2634   2.2762   2.2843
     2.2857   2.2860   2.2860   2.2909   2.2909   2.3023   2.3023   2.3130
     2.3296   2.3296   2.3699   2.3930   2.4303   2.4303   2.4477   2.5245
     2.5245   2.5367   2.5367   2.5409   2.5435   2.5435   2.5587   2.5818
     2.5833   2.5833   2.5857   2.5919   2.5919   2.5996   2.6031   2.6032
     2.6081   2.6158   2.6159   2.6235   2.6235   2.6326   2.6418   2.6419
     2.6419   2.6701   2.6753   2.6753   2.6892   2.6892   2.7150   2.7150
     2.7280   2.7280   2.7425   2.7449   2.7449   2.7469   2.7470   2.7688
     2.7688   2.7749   2.7765   2.7790   2.7790   2.8015   2.8190   2.8190
     2.8275   2.8380   2.8380   2.8474   2.8474   2.8493   2.8829   2.8830
     2.8843   2.8927   2.8927   2.8999   2.9322   2.9323   2.9392   2.9392
     2.9470   2.9718   2.9941   2.9942   3.0125   3.0125   3.0179   3.0238
     3.0238   3.0261   3.0355   3.0355   3.0453   3.0483   3.0483   3.0755
     3.0755   3.0773   3.0962   3.0962   3.0971   3.1045   3.1045   3.1067
     3.1167   3.1293   3.1352   3.1359   3.1359   3.1430   3.1430   3.1584
     3.1586   3.1596   3.1597   3.1615   3.1615   3.1794   3.1794   3.1795
     3.2315   3.2315   3.2480   3.2480   3.2539   3.2539   3.2546   3.2590
     3.2609   3.2609   3.2635   3.2704   3.2704   3.2878   3.3091   3.3186
     3.3239   3.3239   3.3314   3.3314   3.3374   3.3425   3.3426   3.3602
     3.5658   3.6030   3.6076   3.6076   3.6103   3.6112   3.6112   3.6121
     3.6145   3.6145   3.6158   3.6180   3.6180   5.2256   5.7247   5.7250
     5.8411   6.0642   6.2644   6.3244   6.3245   6.3561   6.3835   6.4083
     6.4083   6.4778   6.5032   6.5032   6.5498   6.5498   6.5599   6.5857
     6.5857   6.6074   6.6554   6.6554   6.6744   6.7509   6.7509   6.7647
     6.7647   6.8328   6.8408   6.8408   6.8483   6.8929   6.8929   6.9222
     6.9222   6.9344   6.9457   6.9457   6.9487   6.9487   6.9558   6.9565
     6.9974   6.9974   7.0083   7.0157   7.0274   7.0274   7.0441   7.0441
     7.0451   7.0583   7.0583   7.0683   7.0788   7.1180   7.1180   7.1279
     7.1299   7.1300   7.1480   7.1657   7.1695   7.1695   7.1756   7.1757
     7.1866   7.1866   7.2011   7.2165   7.2165   7.2178   7.2325   7.2326
     7.2532   7.2556   7.2556   7.2584   7.2631   7.2631   7.3004   7.3009
     7.3009   7.3107   7.3337   7.3337   7.3400   7.3482   7.3483   7.4020
     7.4021   7.4381   7.4526   7.4705   7.4706   7.4775   7.4775   7.4877
     7.5207   7.5208   7.5233   7.5345   7.5345   7.5385   7.5407   7.5409
     7.5409   7.5543   7.5544   7.5675   7.5675   7.5684   7.5722   7.5948
     7.5949   7.6315   7.6374   7.6375   7.6442   7.6603   7.6699   7.6699
     7.6871   7.6871   7.6875   7.6881   7.6905   7.6905   7.7409   7.7409
     7.7599   7.7599   7.7602   7.7628   7.7687   7.7709   7.7710   7.9759
     7.9833   7.9833   7.9835   7.9871   7.9871   8.1463   8.1512   8.1512
     9.1467   9.1467   9.1542   9.5175   9.5512   9.5513   9.6562   9.6723
     9.6723   9.7071   9.7548   9.7548   9.8079   9.8079   9.8151   9.8514
     9.9308   9.9479   9.9479   9.9874   9.9874  10.0029  10.0147  10.0287
    10.0287  10.0547  10.1207  10.1208  10.1713  10.2308  10.2308  10.2384
    10.2536  10.2536  10.2902  10.2902  10.3060  10.3230  10.3286  10.3286
    10.3394  10.3524  10.3524  10.3574  10.3673  10.3673  10.3941  10.4602
    10.4624  10.4624  10.4798  10.4842  10.4963  10.4964  10.6070  10.6665
    10.6665  10.6944  10.6944  10.7101  10.7506  10.7817  10.7817  10.8037
    10.8070  10.8070  10.8167  10.8348  10.8644  10.8645  10.8993  10.8994
    10.9165  10.9247  10.9275  10.9275  10.9378  10.9378  11.0467  11.0468
    11.0469  11.0694  11.0822

     occupation numbers 
     1.0000   1.0000   1.0000   1.0000   1.0000   1.0000   1.0000   1.0000
     1.0000   1.0000   1.0000   1.0000   1.0000   1.0000   1.0000   1.0000
     1.0000   1.0000   1.0000   1.0000   1.0000   1.0000   1.0000   1.0000
     1.0000   1.0000   1.0000   1.0000   1.0000   1.0000   1.0000   1.0000
     1.0000   1.0000   1.0000   1.0000   1.0000   1.0000   1.0000   1.0000
     1.0000   1.0000   1.0000   1.0000   1.0000   1.0000   1.0000   1.0000
     1.0000   1.0000   1.0000   1.0000   1.0000   1.0000   1.0000   1.0000
     1.0000   1.0000   1.0000   1.0000   1.0000   1.0000   1.0000   1.0000
     1.0000   1.0000   1.0000   1.0000   1.0000   1.0000   1.0000   1.0000
     1.0000   1.0000   1.0000   1.0000   1.0000   1.0000   1.0000   1.0000
     1.0000   1.0000   1.0000   1.0000   1.0000   1.0000   1.0000   1.0000
     1.0000   1.0000   1.0000   1.0000   1.0000   1.0000   1.0000   1.0000
     1.0000   1.0000   1.0000   1.0000   1.0000   1.0000   1.0000   1.0000
     1.0000   1.0000   1.0000   1.0000   1.0000   1.0000   1.0000   1.0000
     1.0000   1.0000   1.0000   1.0000   1.0000   1.0000   1.0000   1.0000
     1.0000   1.0000   1.0000   1.0000   1.0000   1.0000   1.0000   1.0000
     1.0000   1.0000   1.0000   1.0000   1.0000   1.0000   1.0000   1.0000
     1.0000   1.0000   1.0000   1.0000   1.0000   1.0000   1.0000   1.0000
     1.0000   1.0000   1.0000   1.0000   1.0000   1.0000   1.0000   1.0000
     1.0000   1.0000   1.0000   1.0000   1.0000   1.0000   1.0000   1.0000
     1.0000   1.0000   1.0000   1.0000   1.0000   1.0000   1.0000   1.0000
     1.0000   1.0000   1.0000   1.0000   1.0000   1.0000   1.0000   1.0000
     1.0000   1.0000   1.0000   1.0000   1.0000   1.0000   1.0000   1.0000
     1.0000   1.0000   1.0000   1.0000   1.0000   1.0000   1.0000   1.0000
     1.0000   1.0000   1.0000   1.0000   1.0000   1.0000   1.0000   1.0000
     1.0000   1.0000   1.0000   1.0000   1.0000   1.0000   1.0000   1.0000
     1.0000   1.0000   1.0000   1.0000   1.0000   1.0000   1.0000   1.0000
     1.0000   1.0000   1.0000   1.0000   1.0000   1.0000   1.0000   1.0000
     1.0000   1.0000   1.0000   1.0000   1.0000   1.0000   1.0000   1.0000
     1.0000   1.0000   1.0000   1.0000   1.0000   1.0000   1.0000   1.0000
     1.0000   1.0000   1.0000   1.0000   1.0000   1.0000   1.0000   1.0000
     1.0000   1.0000   1.0000   1.0000   1.0000   1.0000   1.0000   1.0000
     1.0000   1.0000   1.0000   1.0000   1.0000   1.0000   1.0000   1.0000
     1.0000   1.0000   1.0000   1.0000   1.0000   1.0000   1.0000   1.0000
     1.0000   1.0000   1.0000   1.0000   1.0000   1.0000   1.0000   1.0000
     1.0000   1.0000   1.0000   1.0000   1.0000   1.0000   1.0000   1.0000
     1.0000   1.0000   1.0000   1.0000   1.0000   1.0000   1.0000   1.0000
     1.0000   1.0000   1.0000   1.0000   1.0000   1.0000   1.0000   1.0000
     1.0000   1.0000   1.0000   1.0000   1.0000   1.0000   1.0000   1.0000
     1.0000   1.0000   1.0000   1.0000   1.0000   1.0000   1.0000   1.0000
     1.0000   1.0000   1.0000   1.0000   1.0000   1.0000   1.0000   1.0000
     1.0000   1.0000   1.0000   1.0000   1.0000   1.0000   1.0000   1.0000
     1.0000   1.0000   1.0000   1.0000   1.0000   1.0000   1.0000   1.0000
     1.0000   1.0000   1.0000   1.0000   1.0000   1.0000   1.0000   1.0000
     1.0000   1.0000   1.0000   1.0000   1.0000   1.0000   1.0000   1.0000
     1.0000   1.0000   1.0000   1.0000   1.0000   1.0000   1.0000   1.0000
     1.0000   1.0000   1.0000   1.0000   1.0000   1.0000   1.0000   1.0000
     1.0000   1.0000   1.0000   1.0000   1.0000   1.0000   1.0000   1.0000
     1.0000   1.0000   1.0000   1.0000   1.0000   1.0000   1.0000   1.0000
     1.0000   1.0000   1.0000   1.0000   1.0000   1.0000   1.0000   1.0000
     1.0000   1.0000   1.0000   1.0000   1.0000   1.0000   1.0000   1.0000
     1.0000   1.0000   1.0000   1.0000   1.0000   1.0000   1.0000   1.0000
     1.0000   1.0000   1.0000   1.0000   1.0000   1.0000   1.0000   1.0000
     1.0000   1.0000   1.0000   1.0000   1.0000   1.0000   1.0000   1.0000
     1.0000   1.0000   1.0000   1.0000   1.0000   1.0000   1.0000   1.0000
     1.0000   1.0000   1.0000   1.0000   1.0000   1.0000   1.0000   1.0000
     1.0000   1.0000   1.0000   1.0000   1.0000   1.0000   1.0000   1.0000
     1.0000   1.0000   1.0000   1.0000   1.0000   1.0000   1.0000   1.0000
     1.0000   1.0000   1.0000   1.0000   1.0000   1.0000   1.0000   1.0000
     1.0000   1.0000   1.0000   1.0000   1.0000   1.0000   1.0000   1.0000
     1.0000   1.0000   1.0000   1.0000   1.0000   1.0000   1.0000   1.0000
     1.0000   1.0000   1.0000   1.0000   1.0000   1.0000   1.0000   1.0000
     1.0000   1.0000   1.0000   1.0000   1.0000   1.0000   1.0000   1.0000
     1.0000   1.0000   1.0000   1.0000   1.0000   1.0000   1.0000   1.0000
     1.0000   1.0000   1.0000   1.0000   1.0000   1.0000   1.0000   1.0000
     1.0000   1.0000   1.0000   1.0000   1.0000   1.0000   1.0000   1.0000
     1.0000   1.0000   1.0000   1.0000   1.0000   1.0000   1.0000   1.0000
     1.0000   1.0000   1.0000   1.0000   1.0000   1.0000   1.0000   1.0000
     1.0000   1.0000   1.0000   1.0000   1.0000   1.0000   1.0000   1.0000
     1.0000   1.0000   1.0000   1.0000   1.0000   1.0000   1.0000   1.0000
     1.0000   1.0000   1.0000   1.0000   1.0000   1.0000   1.0000   1.0000
     1.0000   1.0000   1.0000   1.0000   1.0000   1.0000   1.0000   1.0000
     1.0000   1.0000   1.0000   1.0000   1.0000   1.0000   1.0000   1.0000
     1.0000   1.0000   1.0000   1.0000   1.0000   1.0000   1.0000   1.0000
     1.0000   1.0000   1.0000   1.0000   1.0000   1.0000   1.0000   1.0000
     1.0000   1.0000   1.0000   1.0000   1.0000   1.0000   1.0000   1.0000
     1.0000   1.0000   1.0000   1.0000   1.0000   1.0000   1.0000   1.0000
     1.0000   1.0000   1.0000   1.0000   1.0000   1.0000   1.0000   1.0000
     1.0000   1.0000   1.0000   1.0000   1.0000   1.0000   1.0000   1.0000
     1.0000   1.0000   1.0000   1.0000   1.0000   1.0000   1.0000   1.0000
     1.0000   1.0000   1.0000   1.0000   1.0000   1.0000   1.0000   1.0000
     1.0000   1.0000   1.0000   1.0000   1.0000   1.0000   1.0000   1.0000
     1.0000   1.0000   1.0000   1.0000   1.0000   1.0000   1.0000   1.0000
     1.0000   1.0000   1.0000   1.0000   1.0000   1.0000   1.0000   1.0000
     1.0000   1.0000   1.0000   1.0000   1.0000   1.0000   1.0000   1.0000
     1.0000   1.0000   1.0000   1.0000   1.0000   1.0000   1.0000   1.0000
     1.0000   1.0000   1.0000   1.0000   1.0000   1.0000   1.0000   1.0000
     1.0000   1.0000   1.0000   1.0000   1.0000   1.0000   1.0000   1.0000
     1.0000   1.0000   1.0000   1.0000   1.0000   1.0000   1.0000   1.0000
     1.0000   1.0000   1.0000   1.0000   1.0000   1.0000   1.0000   1.0000
     1.0000   1.0000   1.0000   1.0000   1.0000   1.0000   1.0000   1.0000
     1.0000   1.0000   1.0000   1.0000   1.0000   1.0000   1.0000   1.0000
     1.0000   1.0000   1.0000   1.0000   1.0000   1.0000   1.0000   1.0000
     1.0000   1.0000   1.0000   1.0000   1.0000   1.0000   1.0000   1.0000
     1.0000   1.0000   1.0000   1.0000   1.0000   1.0000   1.0000   1.0000
     1.0000   1.0000   1.0000   1.0000   1.0000   1.0000   1.0000   1.0000
     1.0000   1.0000   1.0000   1.0000   1.0000   1.0000   1.0000   1.0000
     1.0000   1.0000   1.0000   1.0000   1.0000   1.0000   1.0000   1.0000
     1.0000   1.0000   1.0000   1.0000   1.0000   1.0000   1.0000   1.0000
     1.0000   1.0000   1.0000   1.0000   1.0000   1.0000   1.0000   1.0000
     1.0000   1.0000   1.0000   1.0000   1.0000   1.0000   1.0000   1.0000
     1.0000   1.0000   1.0000   1.0000   1.0000   1.0000   1.0000   1.0000
     1.0000   1.0000   1.0000   1.0000   1.0000   1.0000   1.0000   1.0000
     1.0000   1.0000   1.0000   1.0000   1.0000   1.0000   1.0000   1.0000
     1.0000   1.0000   1.0000   1.0000   1.0000   1.0000   1.0000   1.0000
     1.0000   1.0000   1.0000   1.0000   1.0000   1.0000   1.0000   1.0000
     1.0000   1.0000   1.0000   1.0000   1.0000   1.0000   1.0000   1.0000
     1.0000   1.0000   1.0000   1.0000   1.0000   1.0000   1.0000   1.0000
     1.0000   1.0000   1.0000   1.0000   1.0000   1.0000   1.0000   1.0000
     1.0000   1.0000   1.0000   1.0000   1.0000   1.0000   1.0000   1.0000
     1.0000   1.0000   1.0000   1.0000   1.0000   1.0000   1.0000   1.0000
     1.0000   1.0000   1.0000   1.0000   1.0000   1.0000   1.0000   1.0000
     1.0000   1.0000   1.0000   1.0000   1.0000   1.0000   1.0000   1.0000
     1.0000   1.0000   1.0000   1.0000   1.0000   1.0000   1.0000   1.0000
     1.0000   1.0000   1.0000   1.0000   1.0000   1.0000   1.0000   1.0000
     1.0000   1.0000   1.0000   1.0000   1.0000   1.0000   1.0000   1.0000
     1.0000   1.0000   1.0000   1.0000   1.0000   1.0000   1.0000   1.0000
     1.0000   1.0000   1.0000   1.0000   1.0000   1.0000   1.0000   1.0000
     1.0000   1.0000   1.0000   1.0000   1.0000   1.0000   1.0000   1.0000
     1.0000   1.0000   1.0000   1.0000   1.0000   1.0000   1.0000   1.0000
     1.0000   1.0000   1.0000   1.0000   1.0000   1.0000   1.0000   1.0000
     1.0000   1.0000   1.0000   1.0000   1.0000   1.0000   1.0000   1.0000
     1.0000   1.0000   1.0000   1.0000   1.0000   1.0000   1.0000   1.0000
     1.0000   1.0000   1.0000   1.0000   1.0000   1.0000   1.0000   1.0000
     1.0000   1.0000   1.0000   1.0000   1.0000   1.0000   1.0000   1.0000
     1.0000   1.0000   1.0000   1.0000   1.0000   1.0000   1.0000   1.0000
     1.0000   1.0000   1.0000   1.0000   1.0000   1.0000   1.0000   1.0000
     1.0000   1.0000   1.0000   1.0000   1.0000   1.0000   1.0000   1.0000
     1.0000   1.0000   1.0000   1.0000   1.0000   1.0000   1.0000   1.0000
     1.0000   1.0000   1.0000   1.0000   1.0000   1.0000   1.0000   1.0000
     1.0000   1.0000   1.0000   1.0000   1.0000   1.0000   1.0000   1.0000
     1.0000   1.0000   1.0000   1.0000   1.0000   1.0000   1.0000   1.0000
     1.0000   1.0000   1.0000   1.0000   1.0000   1.0000   1.0000   1.0000
     1.0000   1.0000   1.0000   1.0000   1.0000   1.0000   1.0000   1.0000
     1.0000   1.0000   1.0000   1.0000   1.0000   1.0000   1.0000   1.0000
     1.0000   1.0000   1.0000   1.0000   1.0000   1.0000   1.0000   1.0000
     1.0000   1.0000   1.0000   1.0000   1.0000   1.0000   1.0000   1.0000
     1.0000   1.0000   1.0000   1.0000   1.0000   1.0000   1.0000   1.0000
     1.0000   1.0000   1.0000   1.0000   1.0000   1.0000   1.0000   1.0000
     1.0000   1.0000   1.0000   1.0000   1.0000   1.0000   1.0000   1.0000
     1.0000   1.0000   1.0000   1.0000   1.0000   1.0000   1.0000   1.0000
     1.0000   1.0000   1.0000   1.0000   1.0000   1.0000   1.0000   1.0000
     1.0000   1.0000   1.0000   1.0000   1.0000   1.0000   1.0000   1.0000
     1.0000   1.0000   1.0000   1.0000   1.0000   0.0000   0.0000   0.0000
     0.0000   0.0000   0.0000   0.0000   0.0000   0.0000   0.0000   0.0000
     0.0000   0.0000   0.0000   0.0000   0.0000   0.0000   0.0000   0.0000
     0.0000   0.0000   0.0000   0.0000   0.0000   0.0000   0.0000   0.0000
     0.0000   0.0000   0.0000   0.0000   0.0000   0.0000   0.0000   0.0000
     0.0000   0.0000   0.0000   0.0000   0.0000   0.0000   0.0000   0.0000
     0.0000   0.0000   0.0000   0.0000   0.0000   0.0000   0.0000   0.0000
     0.0000   0.0000   0.0000   0.0000   0.0000   0.0000   0.0000   0.0000
     0.0000   0.0000   0.0000   0.0000   0.0000   0.0000   0.0000   0.0000
     0.0000   0.0000   0.0000   0.0000   0.0000   0.0000   0.0000   0.0000
     0.0000   0.0000   0.0000   0.0000   0.0000   0.0000   0.0000   0.0000
     0.0000   0.0000   0.0000   0.0000   0.0000   0.0000   0.0000   0.0000
     0.0000   0.0000   0.0000   0.0000   0.0000   0.0000   0.0000   0.0000
     0.0000   0.0000   0.0000   0.0000   0.0000   0.0000   0.0000   0.0000
     0.0000   0.0000   0.0000   0.0000   0.0000   0.0000   0.0000   0.0000
     0.0000   0.0000   0.0000   0.0000   0.0000   0.0000   0.0000   0.0000
     0.0000   0.0000   0.0000   0.0000   0.0000   0.0000   0.0000   0.0000
     0.0000   0.0000   0.0000   0.0000   0.0000   0.0000   0.0000   0.0000
     0.0000   0.0000   0.0000   0.0000   0.0000   0.0000   0.0000   0.0000
     0.0000   0.0000   0.0000   0.0000   0.0000   0.0000   0.0000   0.0000
     0.0000   0.0000   0.0000   0.0000   0.0000   0.0000   0.0000   0.0000
     0.0000   0.0000   0.0000   0.0000   0.0000   0.0000   0.0000   0.0000
     0.0000   0.0000   0.0000   0.0000   0.0000   0.0000   0.0000   0.0000
     0.0000   0.0000   0.0000   0.0000   0.0000   0.0000   0.0000   0.0000
     0.0000   0.0000   0.0000   0.0000   0.0000   0.0000   0.0000   0.0000
     0.0000   0.0000   0.0000   0.0000   0.0000   0.0000   0.0000   0.0000
     0.0000   0.0000   0.0000   0.0000   0.0000   0.0000   0.0000   0.0000
     0.0000   0.0000   0.0000   0.0000   0.0000   0.0000   0.0000   0.0000
     0.0000   0.0000   0.0000   0.0000   0.0000   0.0000   0.0000   0.0000
     0.0000   0.0000   0.0000

     the Fermi energy is     4.4386 ev

!    total energy              =  -97468.00340753 Ry
     total all-electron energy =  -3401001.092133 Ry
     estimated scf accuracy    <       0.00000007 Ry
     smearing contrib. (-TS)   =      -0.00000000 Ry
     internal energy E=F+TS    =  -97468.00340753 Ry

     The total energy is F=E-TS. E is the sum of the following terms:
     one-electron contribution =  -17816.11861372 Ry
     hartree contribution      =    9961.66820118 Ry
     xc contribution           =   -6782.70487047 Ry
     ewald contribution        =  -14781.28002831 Ry
     one-center paw contrib.   =  -68049.56809622 Ry
      -> PAW hartree energy AE =     192.10101259 Ry
      -> PAW hartree energy PS =    -192.57846428 Ry
      -> PAW xc energy AE      =   -1596.87281750 Ry
      -> PAW xc energy PS      =      66.63514892 Ry
      -> total E_H with PAW    =    9961.19074949 Ry
      -> total E_XC with PAW   =   -8312.94253905 Ry

     convergence has been achieved in  12 iterations


     -----------------------------------------------
     Non-local corr. energy    =      68.74242084 Ry
     -----------------------------------------------


     Forces acting on atoms (cartesian axes, Ry/au):

     atom    1 type  1   force =    -0.00000027    0.00065025   -0.00017137
     atom    2 type  1   force =    -0.00000063    0.00042466    0.00051081
     atom    3 type  1   force =    -0.00000007   -0.00023328   -0.00028780
     atom    4 type  1   force =    -0.00019672    0.00016196    0.00016208
     atom    5 type  1   force =    -0.00004117    0.00016274   -0.00004730
     atom    6 type  1   force =    -0.00016315    0.00002878   -0.00016444
     atom    7 type  1   force =     0.00004360   -0.00024965    0.00015915
     atom    8 type  1   force =     0.00012072   -0.00011515   -0.00004445
     atom    9 type  1   force =    -0.00005657   -0.00015506   -0.00016478
     atom   10 type  1   force =     0.00056016   -0.00032228   -0.00016243
     atom   11 type  1   force =     0.00037741   -0.00021816    0.00051566
     atom   12 type  1   force =    -0.00020205    0.00011701   -0.00028752
     atom   13 type  1   force =    -0.00006685   -0.00004160    0.00005510
     atom   14 type  1   force =     0.00094141    0.00054215   -0.00010328
     atom   15 type  1   force =     0.00012545    0.00007268   -0.00019505
     atom   16 type  1   force =     0.00019635    0.00016246    0.00016178
     atom   17 type  1   force =     0.00004099    0.00016235   -0.00004689
     atom   18 type  1   force =     0.00016301    0.00002844   -0.00016568
     atom   19 type  1   force =     0.00000007    0.00000003    0.00046378
     atom   20 type  1   force =    -0.00000019    0.00000009   -0.00070101
     atom   21 type  1   force =     0.00000008   -0.00000062   -0.00000470
     atom   22 type  1   force =     0.00023771    0.00008853    0.00015977
     atom   23 type  1   force =     0.00015910   -0.00004791   -0.00004373
     atom   24 type  1   force =     0.00010596    0.00012678   -0.00016597
     atom   25 type  1   force =    -0.00000015    0.00043913   -0.00034015
     atom   26 type  1   force =     0.00000003   -0.00063122   -0.00027163
     atom   27 type  1   force =    -0.00000008    0.00015776   -0.00032673
     atom   28 type  1   force =     0.00038385   -0.00022179   -0.00034426
     atom   29 type  1   force =    -0.00054681    0.00031653   -0.00027144
     atom   30 type  1   force =     0.00013646   -0.00007879   -0.00032622
     atom   31 type  1   force =    -0.00004360   -0.00025021    0.00016007
     atom   32 type  1   force =    -0.00012003   -0.00011724   -0.00004676
     atom   33 type  1   force =     0.00005700   -0.00015524   -0.00016499
     atom   34 type  1   force =    -0.00023781    0.00008933    0.00016049
     atom   35 type  1   force =    -0.00016135   -0.00004640   -0.00004660
     atom   36 type  1   force =    -0.00010604    0.00012669   -0.00016524
     atom   37 type  1   force =     0.00006892   -0.00004200    0.00005797
     atom   38 type  1   force =    -0.00094026    0.00054168   -0.00010427
     atom   39 type  1   force =    -0.00012553    0.00007281   -0.00019546
     atom   40 type  1   force =    -0.00038270   -0.00022097   -0.00034304
     atom   41 type  1   force =     0.00054716    0.00031656   -0.00027188
     atom   42 type  1   force =    -0.00013653   -0.00007874   -0.00032661
     atom   43 type  1   force =     0.00000059    0.00007513    0.00005012
     atom   44 type  1   force =     0.00000004   -0.00108707   -0.00010241
     atom   45 type  1   force =     0.00000002   -0.00014491   -0.00019498
     atom   46 type  1   force =    -0.00056132   -0.00032264   -0.00016485
     atom   47 type  1   force =    -0.00037315   -0.00021516    0.00051239
     atom   48 type  1   force =     0.00020191    0.00011698   -0.00028781
     atom   49 type  2   force =     0.00000020    0.00000046    0.00002663
     atom   50 type  2   force =     0.00000058    0.00000113   -0.00124717
     atom   51 type  2   force =     0.00089087   -0.00031923    0.00069448
     atom   52 type  2   force =    -0.00001724   -0.00004047    0.00008628
     atom   53 type  2   force =     0.00065231   -0.00018790    0.00038557
     atom   54 type  2   force =    -0.00001213   -0.00000665    0.00162020
     atom   55 type  2   force =     0.00004291    0.00002506    0.00009065
     atom   56 type  2   force =    -0.00005219   -0.00002988   -0.00039539
     atom   57 type  2   force =     0.00017094    0.00092784    0.00069405
     atom   58 type  2   force =    -0.00004338    0.00000558    0.00008687
     atom   59 type  2   force =     0.00014843    0.00067171    0.00038386
     atom   60 type  2   force =    -0.00071909   -0.00061240    0.00069404
     atom   61 type  2   force =    -0.00002625    0.00003475    0.00008686
     atom   62 type  2   force =    -0.00050542   -0.00046710    0.00038676
     atom   63 type  2   force =    -0.00088975   -0.00031912    0.00069440
     atom   64 type  2   force =     0.00001744   -0.00004098    0.00008689
     atom   65 type  2   force =    -0.00065076   -0.00019134    0.00038633
     atom   66 type  2   force =     0.00000005    0.00015146    0.00029404
     atom   67 type  2   force =     0.00000002    0.00035386    0.00009065
     atom   68 type  2   force =    -0.00000008   -0.00023238   -0.00002017
     atom   69 type  2   force =     0.00013179   -0.00007606    0.00029507
     atom   70 type  2   force =     0.00030619   -0.00017693    0.00009105
     atom   71 type  2   force =    -0.00020117    0.00011602   -0.00001823
     atom   72 type  2   force =     0.00000063    0.00001584    0.00162169
     atom   73 type  2   force =    -0.00000027   -0.00004976    0.00009064
     atom   74 type  2   force =    -0.00000032    0.00005976   -0.00039476
     atom   75 type  2   force =    -0.00024773   -0.00014241    0.00003106
     atom   76 type  2   force =    -0.00005880   -0.00003333    0.00030464
     atom   77 type  2   force =     0.00052514    0.00030861    0.00071459
     atom   78 type  2   force =     0.00001174   -0.00000567    0.00161897
     atom   79 type  2   force =    -0.00004286    0.00002490    0.00009089
     atom   80 type  2   force =     0.00005246   -0.00003040   -0.00039549
     atom   81 type  2   force =    -0.00013153   -0.00007615    0.00029497
     atom   82 type  2   force =    -0.00030627   -0.00017701    0.00009037
     atom   83 type  2   force =     0.00020096    0.00011592   -0.00001889
     atom   84 type  2   force =     0.00072000   -0.00061187    0.00069355
     atom   85 type  2   force =     0.00002607    0.00003457    0.00008599
     atom   86 type  2   force =     0.00049828   -0.00046946    0.00038636
     atom   87 type  2   force =     0.00024706   -0.00014199    0.00003079
     atom   88 type  2   force =     0.00005853   -0.00003350    0.00030406
     atom   89 type  2   force =    -0.00052485    0.00030643    0.00071454
     atom   90 type  2   force =     0.00000004    0.00028720    0.00003195
     atom   91 type  2   force =    -0.00000017    0.00006724    0.00030482
     atom   92 type  2   force =    -0.00000176   -0.00061467    0.00071362
     atom   93 type  2   force =    -0.00016962    0.00092739    0.00069418
     atom   94 type  2   force =     0.00004374    0.00000554    0.00008646
     atom   95 type  2   force =    -0.00015069    0.00066760    0.00038404
     atom   96 type  2   force =    -0.00006784    0.00003872   -0.00131045
     atom   97 type  2   force =     0.00062490   -0.00036168    0.00042685
     atom   98 type  2   force =     0.00007934   -0.00004535    0.00006820
     atom   99 type  2   force =     0.00002912   -0.00035909   -0.00064328
     atom  100 type  2   force =     0.00013805   -0.00049926   -0.00000357
     atom  101 type  2   force =    -0.00002434    0.00007295    0.00007638
     atom  102 type  2   force =    -0.00029892    0.00020560   -0.00064579
     atom  103 type  2   force =    -0.00036248    0.00036861   -0.00000146
     atom  104 type  2   force =     0.00005131   -0.00005734    0.00007672
     atom  105 type  2   force =     0.00000017   -0.00006030   -0.00133057
     atom  106 type  2   force =     0.00000161    0.00072315    0.00042599
     atom  107 type  2   force =     0.00000031    0.00009167    0.00006703
     atom  108 type  2   force =     0.00006332    0.00003613   -0.00131772
     atom  109 type  2   force =    -0.00062467   -0.00036358    0.00042644
     atom  110 type  2   force =    -0.00007901   -0.00004556    0.00006797
     atom  111 type  2   force =     0.00000020   -0.00104781   -0.00031970
     atom  112 type  2   force =    -0.00000006    0.00200443   -0.00110254
     atom  113 type  2   force =     0.00000022   -0.00006176    0.00002768
     atom  114 type  2   force =    -0.00008303   -0.00004561   -0.00034038
     atom  115 type  2   force =     0.00036841    0.00020895    0.00080973
     atom  116 type  2   force =    -0.00011804   -0.00006784   -0.00003509
     atom  117 type  2   force =    -0.00090583    0.00052211   -0.00031760
     atom  118 type  2   force =     0.00173882   -0.00100282   -0.00111008
     atom  119 type  2   force =    -0.00005300    0.00003057    0.00002575
     atom  120 type  2   force =    -0.00032603    0.00015510   -0.00064411
     atom  121 type  2   force =    -0.00050096    0.00012949   -0.00000168
     atom  122 type  2   force =     0.00007521   -0.00001589    0.00007684
     atom  123 type  2   force =    -0.00002916   -0.00036064   -0.00064459
     atom  124 type  2   force =    -0.00013795   -0.00049951   -0.00000269
     atom  125 type  2   force =     0.00002440    0.00007260    0.00007667
     atom  126 type  2   force =     0.00008280   -0.00004659   -0.00034085
     atom  127 type  2   force =    -0.00036654    0.00020902    0.00080967
     atom  128 type  2   force =     0.00011788   -0.00006825   -0.00003523
     atom  129 type  2   force =    -0.00000088    0.00009378   -0.00033941
     atom  130 type  2   force =     0.00000102   -0.00042676    0.00080945
     atom  131 type  2   force =    -0.00000049    0.00013554   -0.00003543
     atom  132 type  2   force =     0.00032503    0.00015468   -0.00064278
     atom  133 type  2   force =     0.00050105    0.00012955   -0.00000266
     atom  134 type  2   force =    -0.00007534   -0.00001574    0.00007669
     atom  135 type  2   force =     0.00000029   -0.00000066    0.00007744
     atom  136 type  2   force =    -0.00000004   -0.00000020   -0.00011210
     atom  137 type  2   force =    -0.00000011   -0.00000047   -0.00015733
     atom  138 type  2   force =     0.00029923    0.00020600   -0.00064572
     atom  139 type  2   force =     0.00036283    0.00036872   -0.00000194
     atom  140 type  2   force =    -0.00005093   -0.00005795    0.00007665
     atom  141 type  2   force =     0.00090658    0.00052225   -0.00031769
     atom  142 type  2   force =    -0.00173920   -0.00100339   -0.00110356
     atom  143 type  2   force =     0.00005298    0.00003020    0.00002644
     atom  144 type  1   force =     0.00000077   -0.00000338   -0.00107286
     The non-local contrib.  to forces
     atom    1 type  1   force =    -0.00000220    0.06763134   -0.08971834
     atom    2 type  1   force =     0.00000575    0.13576262    0.10162420
     atom    3 type  1   force =     0.00000574   -0.00072455   -0.00110937
     atom    4 type  1   force =     0.00827552    0.02705865   -0.00171292
     atom    5 type  1   force =    -0.03091895    0.02957882   -0.00622854
     atom    6 type  1   force =    -0.00112385   -0.00134592   -0.00098293
     atom    7 type  1   force =     0.02757354   -0.00641729   -0.00173471
     atom    8 type  1   force =     0.01016647   -0.04160130   -0.00622779
     atom    9 type  1   force =    -0.00170547   -0.00034438   -0.00098670
     atom   10 type  1   force =     0.05864377   -0.03385343   -0.08970814
     atom   11 type  1   force =     0.11754475   -0.06787367    0.10163589
     atom   12 type  1   force =    -0.00059982    0.00032949   -0.00111461
     atom   13 type  1   force =     0.10514532    0.06068740   -0.06530436
     atom   14 type  1   force =     0.01013468    0.00583337    0.01279653
     atom   15 type  1   force =    -0.00109915   -0.00065966   -0.00243997
     atom   16 type  1   force =    -0.00825108    0.02705674   -0.00171131
     atom   17 type  1   force =     0.03093553    0.02958505   -0.00622097
     atom   18 type  1   force =     0.00113610   -0.00134359   -0.00098693
     atom   19 type  1   force =     0.00000847   -0.00002549   -0.01238279
     atom   20 type  1   force =     0.00000211   -0.00001004   -0.01203624
     atom   21 type  1   force =     0.00000211   -0.00000738    0.00739536
     atom   22 type  1   force =     0.01932091   -0.02071720   -0.00173497
     atom   23 type  1   force =     0.04109526    0.01197493   -0.00625079
     atom   24 type  1   force =    -0.00057472    0.00162977   -0.00098178
     atom   25 type  1   force =    -0.00000100   -0.02589554    0.03328820
     atom   26 type  1   force =     0.00000656    0.01556375    0.01266266
     atom   27 type  1   force =     0.00000712   -0.00333470   -0.00550947
     atom   28 type  1   force =    -0.02238025    0.01292306    0.03331785
     atom   29 type  1   force =     0.01350706   -0.00782314    0.01264788
     atom   30 type  1   force =    -0.00286602    0.00163809   -0.00551377
     atom   31 type  1   force =    -0.02755865   -0.00642007   -0.00172562
     atom   32 type  1   force =    -0.01015938   -0.04159751   -0.00621413
     atom   33 type  1   force =     0.00171655   -0.00034290   -0.00098874
     atom   34 type  1   force =    -0.01930624   -0.02072515   -0.00172800
     atom   35 type  1   force =    -0.04107439    0.01196652   -0.00624413
     atom   36 type  1   force =     0.00058973    0.00162898   -0.00097950
     atom   37 type  1   force =    -0.10515720    0.06070118   -0.06533647
     atom   38 type  1   force =    -0.01011981    0.00583200    0.01279236
     atom   39 type  1   force =     0.00111493   -0.00066060   -0.00244135
     atom   40 type  1   force =     0.02239231    0.01293073    0.03330657
     atom   41 type  1   force =    -0.01349509   -0.00782297    0.01265505
     atom   42 type  1   force =     0.00287848    0.00163731   -0.00551296
     atom   43 type  1   force =     0.00000604   -0.12136624   -0.06522817
     atom   44 type  1   force =     0.00000586   -0.01173175    0.01280047
     atom   45 type  1   force =     0.00000722    0.00125131   -0.00244400
     atom   46 type  1   force =    -0.05862293   -0.03383915   -0.08971282
     atom   47 type  1   force =    -0.11754987   -0.06788184    0.10163330
     atom   48 type  1   force =     0.00061305    0.00033049   -0.00111326
     atom   49 type  2   force =    -0.00000097    0.00000948    0.23826057
     atom   50 type  2   force =     0.00000353   -0.00001059    0.24298330
     atom   51 type  2   force =     0.00752453   -0.00431111    0.23206396
     atom   52 type  2   force =     0.00073402    0.00114885    0.23859597
     atom   53 type  2   force =     0.03971054   -0.01810528    0.26772128
     atom   54 type  2   force =     0.02171494    0.01254697    0.25881482
     atom   55 type  2   force =     0.00011063    0.00007884    0.24075110
     atom   56 type  2   force =     0.00675435    0.00390594    0.26732128
     atom   57 type  2   force =    -0.00000001    0.00868925    0.23204509
     atom   58 type  2   force =     0.00135299    0.00007740    0.23859798
     atom   59 type  2   force =     0.00413181    0.04349765    0.26772626
     atom   60 type  2   force =    -0.00751194   -0.00434100    0.23205563
     atom   61 type  2   force =     0.00061772   -0.00120108    0.23859690
     atom   62 type  2   force =    -0.03559532   -0.02533960    0.26772798
     atom   63 type  2   force =    -0.00752626   -0.00431846    0.23205918
     atom   64 type  2   force =    -0.00073685    0.00114781    0.23859679
     atom   65 type  2   force =    -0.03970662   -0.01810906    0.26772116
     atom   66 type  2   force =     0.00000108    0.00825944    0.24151929
     atom   67 type  2   force =    -0.00000175   -0.00109624    0.23183690
     atom   68 type  2   force =    -0.00000182   -0.00155604    0.27321695
     atom   69 type  2   force =     0.00715196   -0.00412642    0.24152260
     atom   70 type  2   force =    -0.00096123    0.00056149    0.23183996
     atom   71 type  2   force =    -0.00133831    0.00077816    0.27321755
     atom   72 type  2   force =    -0.00000848   -0.02506592    0.25882122
     atom   73 type  2   force =    -0.00000527   -0.00012832    0.24074980
     atom   74 type  2   force =    -0.00000163   -0.00779302    0.26732362
     atom   75 type  2   force =    -0.00054603   -0.00029528    0.24770648
     atom   76 type  2   force =     0.00022150    0.00013964    0.23948609
     atom   77 type  2   force =    -0.05696822   -0.03286641    0.28541392
     atom   78 type  2   force =    -0.02172051    0.01254087    0.25881243
     atom   79 type  2   force =    -0.00011535    0.00007591    0.24075194
     atom   80 type  2   force =    -0.00675742    0.00390537    0.26731996
     atom   81 type  2   force =    -0.00715239   -0.00412799    0.24152264
     atom   82 type  2   force =     0.00095498    0.00055970    0.23183768
     atom   83 type  2   force =     0.00133913    0.00078110    0.27321703
     atom   84 type  2   force =     0.00750333   -0.00434824    0.23206104
     atom   85 type  2   force =    -0.00062349   -0.00120182    0.23859474
     atom   86 type  2   force =     0.03557416   -0.02534483    0.26772488
     atom   87 type  2   force =     0.00053575   -0.00029604    0.24770693
     atom   88 type  2   force =    -0.00023023    0.00014016    0.23948573
     atom   89 type  2   force =     0.05695650   -0.03286832    0.28542139
     atom   90 type  2   force =    -0.00000574    0.00063754    0.24770638
     atom   91 type  2   force =    -0.00000370   -0.00025053    0.23948689
     atom   92 type  2   force =    -0.00000748    0.06579059    0.28539630
     atom   93 type  2   force =    -0.00000514    0.00868981    0.23204618
     atom   94 type  2   force =    -0.00135763    0.00007580    0.23859632
     atom   95 type  2   force =    -0.00414082    0.04348051    0.26772391
     atom   96 type  2   force =     0.19626550   -0.11332393   -0.04284872
     atom   97 type  2   force =     0.00042703   -0.00025476   -0.24833807
     atom   98 type  2   force =    -0.00018496    0.00011210   -0.23350868
     atom   99 type  2   force =    -0.02302588    0.00105944   -0.25898437
[...]
     atom  104 type  2   force =    -0.00000076   -0.00001348    0.00000748
     atom  105 type  2   force =     0.00000006    0.00003386    0.00000585
     atom  106 type  2   force =     0.00000005    0.00001962   -0.00001500
     atom  107 type  2   force =     0.00000001   -0.00000057   -0.00000276
     atom  108 type  2   force =    -0.00002924   -0.00001713    0.00000561
     atom  109 type  2   force =    -0.00001703   -0.00000975   -0.00001499
     atom  110 type  2   force =     0.00000049    0.00000035   -0.00000282
     atom  111 type  2   force =     0.00000001   -0.00000717   -0.00000449
     atom  112 type  2   force =    -0.00000004   -0.00002731   -0.00001424
     atom  113 type  2   force =     0.00000001    0.00001013    0.00000700
     atom  114 type  2   force =     0.00001709    0.00000971   -0.00000355
     atom  115 type  2   force =    -0.00000019   -0.00000014   -0.00001738
     atom  116 type  2   force =     0.00000522    0.00000300    0.00001739
     atom  117 type  2   force =    -0.00000627    0.00000358   -0.00000467
     atom  118 type  2   force =    -0.00002369    0.00001373   -0.00001411
     atom  119 type  2   force =     0.00000890   -0.00000507    0.00000698
     atom  120 type  2   force =    -0.00001046   -0.00001185   -0.00000842
     atom  121 type  2   force =    -0.00001777   -0.00000615    0.00000162
     atom  122 type  2   force =     0.00001134    0.00000728    0.00000741
     atom  123 type  2   force =    -0.00001545   -0.00000306   -0.00000848
     atom  124 type  2   force =    -0.00001423   -0.00001239    0.00000173
     atom  125 type  2   force =     0.00001202    0.00000605    0.00000747
     atom  126 type  2   force =    -0.00001701    0.00000986   -0.00000351
     atom  127 type  2   force =     0.00000011   -0.00000012   -0.00001745
     atom  128 type  2   force =    -0.00000545    0.00000314    0.00001735
     atom  129 type  2   force =     0.00000006   -0.00001961   -0.00000342
     atom  130 type  2   force =     0.00000001    0.00000018   -0.00001744
     atom  131 type  2   force =    -0.00000001   -0.00000573    0.00001731
     atom  132 type  2   force =     0.00001035   -0.00001201   -0.00000849
     atom  133 type  2   force =     0.00001769   -0.00000620    0.00000161
     atom  134 type  2   force =    -0.00001133    0.00000734    0.00000745
     atom  135 type  2   force =     0.00000003   -0.00000007   -0.00001110
     atom  136 type  2   force =    -0.00000001    0.00000000    0.00002104
     atom  137 type  2   force =     0.00000001   -0.00000008   -0.00000177
     atom  138 type  2   force =    -0.00000513    0.00001497   -0.00000844
     atom  139 type  2   force =     0.00000355    0.00001857    0.00000166
     atom  140 type  2   force =     0.00000081   -0.00001353    0.00000744
     atom  141 type  2   force =     0.00000620    0.00000365   -0.00000467
     atom  142 type  2   force =     0.00002368    0.00001379   -0.00001400
     atom  143 type  2   force =    -0.00000888   -0.00000506    0.00000703
     atom  144 type  1   force =     0.00000001   -0.00000006    0.00000147

     Total force =     0.004245     Total SCF correction =     0.000203


     Computing stress (Cartesian axis) and pressure



     -----------------------------------------------
     Non-local corr. energy    =      68.74102917 Ry
     -----------------------------------------------

          total   stress  (Ry/bohr**3)                   (kbar)     P=       -5.33
  -0.00003609  -0.00000000  -0.00000000           -5.31       -0.00       -0.00
  -0.00000000  -0.00003609   0.00000000           -0.00       -5.31        0.00
  -0.00000000   0.00000000  -0.00003645           -0.00        0.00       -5.36

     kinetic stress (kbar)  15037.05     -0.00     -0.00
                               -0.00  15037.05      0.00
                               -0.00      0.00  15048.15

     local   stress (kbar)  -7368.55     -0.03     -0.00
                               -0.03  -7368.69      0.01
                               -0.00      0.01   1233.51

     nonloc. stress (kbar)  -1147.29     -0.00     -0.00
                               -0.00  -1147.29      0.00
                               -0.00      0.00  -1153.29

     hartree stress (kbar)  11932.49      0.01      0.00
                                0.01  11932.55     -0.01
                                0.00     -0.01   8061.69

     exc-cor stress (kbar)   6923.93      0.00     -0.00
                                0.00   6923.93      0.00
                               -0.00      0.00   6922.80

     corecor stress (kbar) -11275.50     -0.00      0.00
                               -0.00 -11275.50     -0.00
                                0.00     -0.00 -11275.43

     ewald   stress (kbar) -14190.35      0.02     -0.00
                                0.02 -14190.27     -0.00
                               -0.00     -0.00 -18927.01

     hubbard stress (kbar)      0.00      0.00      0.00
                                0.00      0.00      0.00
                                0.00      0.00      0.00

     DFT-D   stress (kbar)      0.00      0.00      0.00
                                0.00      0.00      0.00
                                0.00      0.00      0.00

     XDM     stress (kbar)      0.00      0.00      0.00
                                0.00      0.00      0.00
                                0.00      0.00      0.00

     dft-nl  stress (kbar)     82.93     -0.00      0.00
                               -0.00     82.93     -0.00
                                0.00     -0.00     84.22

     TS-vdW  stress (kbar)      0.00      0.00      0.00
                                0.00      0.00      0.00
                                0.00      0.00      0.00

     MDB     stress (kbar)      0.00      0.00      0.00
                                0.00      0.00      0.00
                                0.00      0.00      0.00

     3D-RISM stress (kbar)      0.00      0.00      0.00
                                0.00      0.00      0.00
                                0.00      0.00      0.00

     Energy error            =      6.1E-05 Ry
     Gradient error          =      9.8E-04 Ry/Bohr

     bfgs converged in  28 scf cycles and  27 bfgs steps
     (criteria: energy <  1.0E-04 Ry, force <  1.0E-03 Ry/Bohr)

     End of BFGS Geometry Optimization

     Final energy             =  -97468.0048510713 Ry

     File ./PbI2.bfgs deleted, as requested
Begin final coordinates

ATOMIC_POSITIONS (angstrom)
Pb            2.3558245167        4.2160755046       21.9281338912
Pb            2.3557455991        4.3331672272        7.6399186977
Pb            2.3557200432        4.0776788521       14.7718774546
Pb            0.0113549628        8.2145503401       22.1331752130
Pb           -0.0487152262        8.1986750120        7.3620319603
Pb            0.0024581188        8.1622254806       14.7601989018
Pb           -2.3024060707       12.2220669971       22.1331047700
Pb           -2.3461366938       12.1780648225        7.3620834625
Pb           -2.3523069383       12.2408240629       14.7601786373
Pb           -4.5928723109       16.2514799567       21.9278107841
Pb           -4.4914942179       16.1931339704        7.6399985506
Pb           -4.7130285855       16.3211169783       14.7718750844
Pb            7.2225718155        4.1693386507       22.0574102723
Pb            7.0942476010        4.0953599454        7.4249098116
Pb            7.0663484407        4.0794302360       14.7731663958
Pb            4.7001791814        8.2145616373       22.1331236788
Pb            4.7602210972        8.1986665830        7.3619807924
Pb            4.7089999284        8.1622146471       14.7601938550
Pb            2.3557524066       12.2398670544       22.1099199727
Pb            2.3557643862       12.2398268185        7.3336556710
Pb            2.3557465703       12.2398897817       14.7336368674
Pb            0.0420324178       16.2828147753       22.1331992255
Pb            0.0583311312       16.3426936384        7.3621836496
Pb            0.0009628725       16.3167742274       14.7601531821
Pb           11.7783570489        4.0364170834       22.2060332605
Pb           11.7782759848        4.1096552440        7.4176463023
Pb           11.7782591458        4.0768594060       14.7692492965
Pb            9.3852071884        8.1812338300       22.2058291625
Pb            9.4485929878        8.1448479095        7.4175558727
Pb            9.4200913337        8.1613408514       14.7692645603
Pb            7.0139359050       12.2220817010       22.1330758861
Pb            7.0576838452       12.1780839409        7.3620224933
Pb            7.0637750094       12.2408201419       14.7601884414
Pb            4.6695220913       16.2828092679       22.1332174415
Pb            4.6532039382       16.3427173745        7.3621742830
Pb            4.7104881535       16.3167761030       14.7601694119
Pb           16.3342150850        4.1692790202       22.0576739911
Pb           16.4623235610        4.0953830397        7.4249486445
Pb           16.4901688217        4.0794331213       14.7731878896
Pb           14.1714468107        8.1812002637       22.2059040138
Pb           14.1079759675        8.1448567601        7.4175900668
Pb           14.1364366675        8.1613458608       14.7692663575
Pb           11.7783413576       12.0598723163       22.0568334159
Pb           11.7783070554       12.2084856999        7.4248630701
Pb           11.7782622378       12.2407141384       14.7731725773
Pb            9.3044941743       16.2514672199       21.9279125844
Pb            9.2030232575       16.1931555957        7.6399899736
Pb            9.4244695816       16.3211160759       14.7718849219
I             2.3556992040        1.3598154502       12.8905138139
I             2.3557454180        1.3596831966       20.2581247675
I             0.0525565465        5.3967542723        5.5288026869
I            -0.0036931490        5.4359589381       12.8864394902
I            -0.0177384044        5.4412735531       20.2328022146
I            -2.3570933635        9.5189629490        5.4834352603
I            -2.3618884207        9.5163008473       12.8787568920
I            -2.3599586317        9.5172221974       20.2609356551
I            -4.7218615609       13.6667175465        5.5287396536
I            -4.7164705614       13.5987625585       12.8864378517
I            -4.7186847255       13.5834948599       20.2323314781
I             7.0038828611        1.3355003200        5.5288408715
I             7.0654564966        1.3650035267       12.8864276487
I             7.0773488026        1.3743361787       20.2325370091
I             4.6589190815        5.3967130930        5.5287471522
I             4.7150967907        5.4359513451       12.8864241213
I             4.7292886868        5.4412983725       20.2327037934
I             2.3557200932        9.5108368633        5.4889651337
I             2.3557202260        9.5139627910       12.8527825431
I             2.3557124477        9.5209702279       20.2498929635
I            -0.0076376637       13.6044450336        5.4890113610
I            -0.0050267904       13.6029367084       12.8527933298
I             0.0010482355       13.5994518382       20.2499102348
I            11.7782740956        1.3615048084        5.4835393785
I            11.7782483412        1.3670961143       12.8787341292
I            11.7782970499        1.3648653621       20.2609833022
I             9.4215064007        5.4391530165        5.5020108192
I             9.4241179512        5.4407636203       12.8895620305
I             9.4090082302        5.4317538073       20.2465404878
I             7.0685622369        9.5189650005        5.4833813667
I             7.0733094309        9.5162998511       12.8787531039
I             7.0714420220        9.5172430642       20.2609035548
I             4.7191220292       13.6044710685        5.4889993454
I             4.7164822468       13.6029443876       12.8527941439
I             4.7104012256       13.5994644197       20.2499019360
I            16.5527588469        1.3355716462        5.5288679526
I            16.4910264493        1.3650101601       12.8864470472
I            16.4792891623        1.3743299377       20.2326870867
I            14.1350147493        5.4391624176        5.5020387542
I            14.1323676583        5.4407636370       12.8895717511
I            14.1478277757        5.4316421200       20.2466864722
I            11.7782692836        9.5212220213        5.5019595244
I            11.7782434841        9.5182271612       12.8895789188
I            11.7783204856        9.5350130513       20.2462378919
I             9.4334802491       13.6667780217        5.5287117877
I             9.4278897744       13.5987647426       12.8864410047
I             9.4302095303       13.5834974358       20.2323860074
I             0.1088097852        2.6567332055        2.0321410356
I            -0.0002850647        2.7198930286        9.2920448628
I             0.0001823191        2.7197763720       16.6598599598
I            -2.3599617930        6.7864160260        1.8956208110
I            -2.3502037113        6.8067325383        9.2729765880
I            -2.3486953492        6.8063707294       16.6590686070
I            -4.7250347567       10.8826144240        1.8953007349
I            -4.7025212039       10.8811315181        9.2729864870
I            -4.7021472056       10.8826930474       16.6590360731
I            -7.0667030716       15.0844217648        2.0314945076
I            -7.0667767120       14.9596151405        9.2919849913
I            -7.0668301760       14.9602121595       16.6598463545
I             4.6030315969        2.6568302134        2.0319360533
I             4.7117514279        2.7198608638        9.2920217374
I             4.7112284004        2.7197736715       16.6598481588
I             2.3557656924        6.7828047746        1.8610582052
I             2.3557663581        6.8633578794        9.3657752133
I             2.3557100564        6.8063555668       16.6531842520
I             0.0028747043       10.8814949213        1.8994944295
I            -0.0106405798       10.8735689385        9.2445291562
I             0.0125252114       10.8871575454       16.6413161555
I            -2.3701995004       14.9683729431        1.8610071902
I            -2.3002691094       14.9279810657        9.3659662969
I            -2.3499445892       14.9568270762       16.6531327949
I             9.4133709226        2.7302879184        1.8956273615
I             9.4259462813        2.7116416766        9.2730594745
I             9.4247879312        2.7105867374       16.6590131219
I             7.0714693631        6.7863870712        1.8954591984
I             7.0616518823        6.8067095979        9.2729298124
I             7.0601268727        6.8063535334       16.6590633962
I             4.7085986204       10.8814926765        1.8994540080
I             4.7221924730       10.8735533826        9.2444684650
I             4.6989281483       10.8871348188       16.6413193599
I             2.3557364954       14.9567731849        1.8995623393
I             2.3557627633       14.9722668796        9.2446599443
I             2.3557063644       14.9455977377       16.6412925944
I            14.1432084589        2.7302529736        1.8957249637
I            14.1305706110        2.7116536987        9.2730657359
I            14.1316978107        2.7105908442       16.6590307903
I            11.7782686595        6.7998226150        1.8909033921
I            11.7782523781        6.7998680709        9.2900564101
I            11.7782544147        6.7998661412       16.6788584498
I             9.4365341124       10.8826401496        1.8952382757
I             9.4139964885       10.8811314144        9.2729450236
I             9.4135872264       10.8826798550       16.6590484875
I             7.0817145142       14.9683651576        1.8610204205
I             7.0118395323       14.9280009502        9.3659149134
I             7.0613661428       14.9568264947       16.6531532018
Pb            2.3560414560        1.3587582884        3.5999941801
End final coordinates



     Writing all to output data dir ./PbI2.save/
 
     init_run     :      7.48s CPU      9.54s WALL (       1 calls)
     electrons    :  83285.64s CPU  84463.00s WALL (      11 calls)
     update_pot   :     24.69s CPU     24.92s WALL (      10 calls)
     forces       :    216.00s CPU    223.91s WALL (      11 calls)
     stress       :   3918.82s CPU   3974.61s WALL (      11 calls)

     Called by init_run:
     wfcinit      :      0.59s CPU      1.88s WALL (       1 calls)
     potinit      :      1.71s CPU      2.04s WALL (       1 calls)
     hinit0       :      1.24s CPU      1.35s WALL (       1 calls)

     Called by electrons:
     c_bands      :  82021.83s CPU  83120.44s WALL (     130 calls)
     sum_band     :   1002.08s CPU   1046.24s WALL (     130 calls)
     v_of_rho     :    101.46s CPU    105.36s WALL (     132 calls)
     v_h          :      1.25s CPU      1.26s WALL (     132 calls)
     v_xc         :    117.51s CPU    121.61s WALL (     154 calls)
     newd         :     69.16s CPU     94.83s WALL (     132 calls)
     PAW_pot      :     80.14s CPU     80.83s WALL (     142 calls)
     mix_rho      :      5.24s CPU      5.41s WALL (     130 calls)
     vdW_kernel   :      0.24s CPU      0.25s WALL (       1 calls)

     Called by c_bands:
     init_us_2    :     29.68s CPU     30.15s WALL (     269 calls)
     init_us_2:cp :     29.68s CPU     30.15s WALL (     269 calls)
     cegterg      :  81942.13s CPU  82978.22s WALL (     129 calls)

     Called by sum_band:
     sum_band:wei :      0.04s CPU      0.05s WALL (     130 calls)
     sum_band:loo :    927.01s CPU    934.71s WALL (     130 calls)
     sum_band:buf :      0.00s CPU      0.00s WALL (     130 calls)
     sum_band:ini :     20.67s CPU     21.00s WALL (     130 calls)
     sum_band:cal :    549.33s CPU    553.93s WALL (     140 calls)
     sum_band:bec :      5.98s CPU      6.10s WALL (     140 calls)
     addusdens    :     65.79s CPU     96.07s WALL (     130 calls)
     addusd:skk   :      3.54s CPU      9.99s WALL (     260 calls)
     addusd:dgemm :     36.57s CPU     59.74s WALL (     260 calls)
     addusd:qvan2 :     24.33s CPU     24.57s WALL (     260 calls)

     Called by *egterg:
     cdiaghg      :  69101.83s CPU  69618.80s WALL (    2101 calls)
     cegterg:over :   2853.12s CPU   2933.13s WALL (    1991 calls)
     cegterg:upda :   1798.53s CPU   1827.58s WALL (    1991 calls)
     cegterg:last :    735.33s CPU    741.05s WALL (     129 calls)
     h_psi        :   5229.39s CPU   5310.21s WALL (    2120 calls)
     s_psi        :   1465.42s CPU   1489.31s WALL (    2120 calls)
     g_psi        :      6.46s CPU      6.54s WALL (    1991 calls)

     Called by h_psi:
     h_psi:calbec :   1585.78s CPU   1602.39s WALL (    2120 calls)
     vloc_psi     :   2150.60s CPU   2168.89s WALL (    2120 calls)
     add_vuspsi   :   1466.60s CPU   1492.17s WALL (    2120 calls)

     General routines
     calbec       :   2350.98s CPU   2374.37s WALL (    2315 calls)
     fft          :     82.92s CPU     83.91s WALL (   10172 calls)
     ffts         :      2.59s CPU      2.67s WALL (     262 calls)
     fftw         :   2428.01s CPU   2448.01s WALL ( 1212594 calls)
     interpolate  :      2.54s CPU      2.58s WALL (     132 calls)
     davcio       :      0.00s CPU      1.08s WALL (       1 calls)
 
     Parallel routines

     PAW routines
     PAW_pot      :     80.14s CPU     80.83s WALL (     142 calls)
 
     PWSCF        :   1d 0h18m CPU   1d 0h39m WALL

 
   This run was terminated on:  10:29:25  28Mar2024            

=------------------------------------------------------------------------------=
   JOB DONE.
=------------------------------------------------------------------------------=
