
     Program PWSCF v.7.1 starts on 19Feb2024 at 10:54:45 

     This program is part of the open-source Quantum ESPRESSO suite
     for quantum simulation of materials; please cite
         "P. Giannozzi et al., J. Phys.:Condens. Matter 21 395502 (2009);
         "P. Giannozzi et al., J. Phys.:Condens. Matter 29 465901 (2017);
         "P. Giannozzi et al., J. Chem. Phys. 152 154105 (2020);
          URL http://www.quantum-espresso.org", 
     in publications or presentations arising from this work. More details at
     http://www.quantum-espresso.org/quote

     Parallel version (MPI & OpenMP), running on     256 processor cores
     Number of MPI processes:               256
     Threads/MPI process:                     1

     MPI processes distributed on     2 nodes
     1979287 MiB available memory on the printing compute node when the environment starts
 
     Reading input from espresso.pwi
Warning: card &CELL ignored
Warning: card    CELL_DYNAMICS    = 'BFGS' ignored
Warning: card / ignored

     Current dimensions of program PWSCF are:
     Max number of different atomic species (ntypx) = 10
     Max number of k-points (npk) =  40000
     Max angular momentum in pseudopotentials (lmaxx) =  4
     file C.pbe-n-kjpaw_psl.1.0.0.UPF: wavefunction(s)  2S 2P renormalized

     **************************************************************************
     Initializing libbeef V0.1.2 with the BEEF-vdW functional.
     Citation: Wellendorff et al., PRB 85, 235149 (2012).
     **************************************************************************


     IMPORTANT: XC functional enforced from input :
     Exchange-correlation= BEEF-VDW
                           (   1   4  43  14   2   0   0)
     Any further DFT definition will be discarded
     Please, verify this is what you really want

     Found identity + (  0.0000  0.0000  0.3333) symmetry
     This is a supercell, fractional translations are disabled
 
     K-points division:     npool     =       4
     R & G space division:  proc/nbgrp/npool/nimage =      64
     Subspace diagonalization in iterative solution of the eigenvalue problem:
     a serial algorithm will be used

 
     Parallelization info
     --------------------
     sticks:   dense  smooth     PW     G-vecs:    dense   smooth      PW
     Min         178     142     38                14350    10258    1410
     Max         179     143     39                14357    10265    1416
     Sum       11433    9133   2433               918657   656775   90447
 
     Using Slab Decomposition
 


     bravais-lattice index     =            1
     lattice parameter (alat)  =      20.2520  a.u.
     unit-cell volume          =    8306.2556 (a.u.)^3
     number of atoms/cell      =          216
     number of atomic types    =            1
     number of electrons       =       864.00
     number of Kohn-Sham states=          518
     kinetic-energy cutoff     =      70.0000  Ry
     charge density cutoff     =     350.0000  Ry
     scf convergence threshold =      1.0E-07
     mixing beta               =       0.7000
     number of iterations used =            8  plain     mixing
     energy convergence thresh.=      1.0E-04
     force convergence thresh. =      1.0E-03
     Exchange-correlation= BEEF-VDW
                           (   1   4  43  14   2   0   0)
     nstep                     =           50


     celldm(1)=  20.252024  celldm(2)=   0.000000  celldm(3)=   0.000000
     celldm(4)=   0.000000  celldm(5)=   0.000000  celldm(6)=   0.000000

     crystal axes: (cart. coord. in units of alat)
               a(1) = (   1.000000   0.000000   0.000000 )  
               a(2) = (   0.000000   1.000000   0.000000 )  
               a(3) = (   0.000000   0.000000   1.000000 )  

     reciprocal axes: (cart. coord. in units 2 pi/alat)
               b(1) = (  1.000000  0.000000  0.000000 )  
               b(2) = (  0.000000  1.000000  0.000000 )  
               b(3) = (  0.000000  0.000000  1.000000 )  


     PseudoPot. # 1 for C  read from file:
     //group///packages/espresso/pseudo/psl_1.0.0/pslibrary.1.0.0/pbe/PSEUDOPOTENTIALS/C.pbe-n-kjpaw_psl.1.0.0.UPF
     MD5 check sum: 5459cf7f2c8c37df2f7cde8914797f4d
     Pseudo is Projector augmented-wave + core cor, Zval =  4.0
     Generated using 'atomic' code by A. Dal Corso  v.7.1
     Shape of augmentation charge: PSQ
     Using radial grid of 1073 points,  4 beta functions with: 
                l(1) =   0
                l(2) =   0
                l(3) =   1
                l(4) =   1
     Q(r) pseudized with 0 coefficients 


     atomic species   valence    mass     pseudopotential
        C              4.00    12.01100     C ( 1.00)

     24 Sym. Ops. (no inversion) found


                                    s                        frac. trans.

      isym =  1     identity                                     

 cryst.   s( 1) = (     1          0          0      )
                  (     0          1          0      )
                  (     0          0          1      )

 cart.    s( 1) = (  1.0000000  0.0000000  0.0000000 )
                  (  0.0000000  1.0000000  0.0000000 )
                  (  0.0000000  0.0000000  1.0000000 )


      isym =  2     180 deg rotation - cart. axis [0,0,1]        

 cryst.   s( 2) = (    -1          0          0      )
                  (     0         -1          0      )
                  (     0          0          1      )

 cart.    s( 2) = ( -1.0000000  0.0000000  0.0000000 )
                  (  0.0000000 -1.0000000  0.0000000 )
                  (  0.0000000  0.0000000  1.0000000 )


      isym =  3     180 deg rotation - cart. axis [0,1,0]        

 cryst.   s( 3) = (    -1          0          0      )
                  (     0          1          0      )
                  (     0          0         -1      )

 cart.    s( 3) = ( -1.0000000  0.0000000  0.0000000 )
                  (  0.0000000  1.0000000  0.0000000 )
                  (  0.0000000  0.0000000 -1.0000000 )


      isym =  4     180 deg rotation - cart. axis [1,0,0]        

 cryst.   s( 4) = (     1          0          0      )
                  (     0         -1          0      )
                  (     0          0         -1      )

 cart.    s( 4) = (  1.0000000  0.0000000  0.0000000 )
                  (  0.0000000 -1.0000000  0.0000000 )
                  (  0.0000000  0.0000000 -1.0000000 )


      isym =  5     120 deg rotation - cart. axis [-1,-1,-1]     

 cryst.   s( 5) = (     0          0          1      )
                  (     1          0          0      )
                  (     0          1          0      )

 cart.    s( 5) = (  0.0000000  1.0000000  0.0000000 )
                  (  0.0000000  0.0000000  1.0000000 )
                  (  1.0000000  0.0000000  0.0000000 )


      isym =  6     120 deg rotation - cart. axis [-1,1,1]       

 cryst.   s( 6) = (     0          0         -1      )
                  (    -1          0          0      )
                  (     0          1          0      )

 cart.    s( 6) = (  0.0000000 -1.0000000  0.0000000 )
                  (  0.0000000  0.0000000  1.0000000 )
                  ( -1.0000000  0.0000000  0.0000000 )


      isym =  7     120 deg rotation - cart. axis [1,1,-1]       

 cryst.   s( 7) = (     0          0         -1      )
                  (     1          0          0      )
                  (     0         -1          0      )

 cart.    s( 7) = (  0.0000000  1.0000000  0.0000000 )
                  (  0.0000000  0.0000000 -1.0000000 )
                  ( -1.0000000  0.0000000  0.0000000 )


      isym =  8     120 deg rotation - cart. axis [1,-1,1]       

 cryst.   s( 8) = (     0          0          1      )
                  (    -1          0          0      )
                  (     0         -1          0      )

 cart.    s( 8) = (  0.0000000 -1.0000000  0.0000000 )
                  (  0.0000000  0.0000000 -1.0000000 )
                  (  1.0000000  0.0000000  0.0000000 )


      isym =  9     120 deg rotation - cart. axis [1,1,1]        

 cryst.   s( 9) = (     0          1          0      )
                  (     0          0          1      )
                  (     1          0          0      )

 cart.    s( 9) = (  0.0000000  0.0000000  1.0000000 )
                  (  1.0000000  0.0000000  0.0000000 )
                  (  0.0000000  1.0000000  0.0000000 )


      isym = 10     120 deg rotation - cart. axis [-1,1,-1]      

 cryst.   s(10) = (     0         -1          0      )
                  (     0          0         -1      )
                  (     1          0          0      )

 cart.    s(10) = (  0.0000000  0.0000000  1.0000000 )
                  ( -1.0000000  0.0000000  0.0000000 )
                  (  0.0000000 -1.0000000  0.0000000 )


      isym = 11     120 deg rotation - cart. axis [1,-1,-1]      

 cryst.   s(11) = (     0         -1          0      )
                  (     0          0          1      )
                  (    -1          0          0      )

 cart.    s(11) = (  0.0000000  0.0000000 -1.0000000 )
                  ( -1.0000000  0.0000000  0.0000000 )
                  (  0.0000000  1.0000000  0.0000000 )


      isym = 12     120 deg rotation - cart. axis [-1,-1,1]      

 cryst.   s(12) = (     0          1          0      )
                  (     0          0         -1      )
                  (    -1          0          0      )

 cart.    s(12) = (  0.0000000  0.0000000 -1.0000000 )
                  (  1.0000000  0.0000000  0.0000000 )
                  (  0.0000000 -1.0000000  0.0000000 )


      isym = 13     inv. 180 deg rotation - cart. axis [1,1,0]   

 cryst.   s(13) = (     0         -1          0      )
                  (    -1          0          0      )
                  (     0          0          1      )

 cart.    s(13) = (  0.0000000 -1.0000000  0.0000000 )
                  ( -1.0000000  0.0000000  0.0000000 )
                  (  0.0000000  0.0000000  1.0000000 )


      isym = 14     inv. 180 deg rotation - cart. axis [1,-1,0]  

 cryst.   s(14) = (     0          1          0      )
                  (     1          0          0      )
                  (     0          0          1      )

 cart.    s(14) = (  0.0000000  1.0000000  0.0000000 )
                  (  1.0000000  0.0000000  0.0000000 )
                  (  0.0000000  0.0000000  1.0000000 )


      isym = 15     inv.  90 deg rotation - cart. axis [0,0,-1]  

 cryst.   s(15) = (     0          1          0      )
                  (    -1          0          0      )
                  (     0          0         -1      )

 cart.    s(15) = (  0.0000000 -1.0000000  0.0000000 )
                  (  1.0000000  0.0000000  0.0000000 )
                  (  0.0000000  0.0000000 -1.0000000 )


      isym = 16     inv.  90 deg rotation - cart. axis [0,0,1]   

 cryst.   s(16) = (     0         -1          0      )
                  (     1          0          0      )
                  (     0          0         -1      )

 cart.    s(16) = (  0.0000000  1.0000000  0.0000000 )
                  ( -1.0000000  0.0000000  0.0000000 )
                  (  0.0000000  0.0000000 -1.0000000 )


      isym = 17     inv. 180 deg rotation - cart. axis [1,0,1]   

 cryst.   s(17) = (     0          0         -1      )
                  (     0          1          0      )
                  (    -1          0          0      )

 cart.    s(17) = (  0.0000000  0.0000000 -1.0000000 )
                  (  0.0000000  1.0000000  0.0000000 )
                  ( -1.0000000  0.0000000  0.0000000 )


      isym = 18     inv. 180 deg rotation - cart. axis [-1,0,1]  

 cryst.   s(18) = (     0          0          1      )
                  (     0          1          0      )
                  (     1          0          0      )

 cart.    s(18) = (  0.0000000  0.0000000  1.0000000 )
                  (  0.0000000  1.0000000  0.0000000 )
                  (  1.0000000  0.0000000  0.0000000 )


      isym = 19     inv.  90 deg rotation - cart. axis [0,1,0]   

 cryst.   s(19) = (     0          0          1      )
                  (     0         -1          0      )
                  (    -1          0          0      )

 cart.    s(19) = (  0.0000000  0.0000000 -1.0000000 )
                  (  0.0000000 -1.0000000  0.0000000 )
                  (  1.0000000  0.0000000  0.0000000 )


      isym = 20     inv.  90 deg rotation - cart. axis [0,-1,0]  

 cryst.   s(20) = (     0          0         -1      )
                  (     0         -1          0      )
                  (     1          0          0      )

 cart.    s(20) = (  0.0000000  0.0000000  1.0000000 )
                  (  0.0000000 -1.0000000  0.0000000 )
                  ( -1.0000000  0.0000000  0.0000000 )


      isym = 21     inv. 180 deg rotation - cart. axis [0,1,1]   

 cryst.   s(21) = (     1          0          0      )
                  (     0          0         -1      )
                  (     0         -1          0      )

 cart.    s(21) = (  1.0000000  0.0000000  0.0000000 )
                  (  0.0000000  0.0000000 -1.0000000 )
                  (  0.0000000 -1.0000000  0.0000000 )


      isym = 22     inv. 180 deg rotation - cart. axis [0,1,-1]  

 cryst.   s(22) = (     1          0          0      )
                  (     0          0          1      )
                  (     0          1          0      )

 cart.    s(22) = (  1.0000000  0.0000000  0.0000000 )
                  (  0.0000000  0.0000000  1.0000000 )
                  (  0.0000000  1.0000000  0.0000000 )


      isym = 23     inv.  90 deg rotation - cart. axis [-1,0,0]  

 cryst.   s(23) = (    -1          0          0      )
                  (     0          0          1      )
                  (     0         -1          0      )

 cart.    s(23) = ( -1.0000000  0.0000000  0.0000000 )
                  (  0.0000000  0.0000000 -1.0000000 )
                  (  0.0000000  1.0000000  0.0000000 )


      isym = 24     inv.  90 deg rotation - cart. axis [1,0,0]   

 cryst.   s(24) = (    -1          0          0      )
                  (     0          0         -1      )
                  (     0          1          0      )

 cart.    s(24) = ( -1.0000000  0.0000000  0.0000000 )
                  (  0.0000000  0.0000000  1.0000000 )
                  (  0.0000000 -1.0000000  0.0000000 )


     point group T_d (-43m) 
     there are  5 classes
     the character table:

       E     8C3   3C2   6S4   6s_d 
A_1    1.00  1.00  1.00  1.00  1.00
A_2    1.00  1.00  1.00 -1.00 -1.00
E      2.00 -1.00  2.00  0.00  0.00
T_1    3.00  0.00 -1.00  1.00 -1.00
T_2    3.00  0.00 -1.00 -1.00  1.00

     the symmetry operations in each class and the name of the first element:

     E        1
          identity                                               
     8C3      5    7    8    6   12    9   10   11
          120 deg rotation - cart. axis [-1,-1,-1]               
     3C2      2    3    4
          180 deg rotation - cart. axis [0,0,1]                  
     6S4     15   16   20   19   23   24
          inv.  90 deg rotation - cart. axis [0,0,-1]            
     6s_d    13   14   17   18   21   22
          inv. 180 deg rotation - cart. axis [1,1,0]             

   Cartesian axes

     site n.     atom                  positions (alat units)
         1           C   tau(   1) = (   0.0833353   0.2499980   0.0833353  )
         2           C   tau(   2) = (   0.0833353   0.2499980   0.4166687  )
         3           C   tau(   3) = (   0.0833353   0.2499980   0.7500020  )
         4           C   tau(   4) = (   0.0833353   0.5833313   0.0833353  )
         5           C   tau(   5) = (   0.0833353   0.5833313   0.4166687  )
         6           C   tau(   6) = (   0.0833353   0.5833313   0.7500020  )
         7           C   tau(   7) = (   0.0833353   0.9166647   0.0833353  )
         8           C   tau(   8) = (   0.0833353   0.9166647   0.4166687  )
         9           C   tau(   9) = (   0.0833353   0.9166647   0.7500020  )
        10           C   tau(  10) = (   0.4166687   0.2499980   0.0833353  )
        11           C   tau(  11) = (   0.4166687   0.2499980   0.4166687  )
        12           C   tau(  12) = (   0.4166687   0.2499980   0.7500020  )
        13           C   tau(  13) = (   0.4166687   0.5833313   0.0833353  )
        14           C   tau(  14) = (   0.4166687   0.5833313   0.4166687  )
        15           C   tau(  15) = (   0.4166687   0.5833313   0.7500020  )
        16           C   tau(  16) = (   0.4166687   0.9166647   0.0833353  )
        17           C   tau(  17) = (   0.4166687   0.9166647   0.4166687  )
        18           C   tau(  18) = (   0.4166687   0.9166647   0.7500020  )
        19           C   tau(  19) = (   0.7500020   0.2499980   0.0833353  )
        20           C   tau(  20) = (   0.7500020   0.2499980   0.4166687  )
        21           C   tau(  21) = (   0.7500020   0.2499980   0.7500020  )
        22           C   tau(  22) = (   0.7500020   0.5833313   0.0833353  )
        23           C   tau(  23) = (   0.7500020   0.5833313   0.4166687  )
        24           C   tau(  24) = (   0.7500020   0.5833313   0.7500020  )
        25           C   tau(  25) = (   0.7500020   0.9166647   0.0833353  )
        26           C   tau(  26) = (   0.7500020   0.9166647   0.4166687  )
        27           C   tau(  27) = (   0.7500020   0.9166647   0.7500020  )
        28           C   tau(  28) = (   0.0000000   0.0000000   0.1666667  )
        29           C   tau(  29) = (   0.0000000   0.0000000   0.5000000  )
        30           C   tau(  30) = (   0.0000000   0.0000000   0.8333333  )
        31           C   tau(  31) = (   0.0000000   0.3333333   0.1666667  )
        32           C   tau(  32) = (   0.0000000   0.3333333   0.5000000  )
        33           C   tau(  33) = (   0.0000000   0.3333333   0.8333333  )
        34           C   tau(  34) = (   0.0000000   0.6666667   0.1666667  )
        35           C   tau(  35) = (   0.0000000   0.6666667   0.5000000  )
        36           C   tau(  36) = (   0.0000000   0.6666667   0.8333333  )
        37           C   tau(  37) = (   0.3333333   0.0000000   0.1666667  )
        38           C   tau(  38) = (   0.3333333   0.0000000   0.5000000  )
        39           C   tau(  39) = (   0.3333333   0.0000000   0.8333333  )
        40           C   tau(  40) = (   0.3333333   0.3333333   0.1666667  )
        41           C   tau(  41) = (   0.3333333   0.3333333   0.5000000  )
        42           C   tau(  42) = (   0.3333333   0.3333333   0.8333333  )
        43           C   tau(  43) = (   0.3333333   0.6666667   0.1666667  )
        44           C   tau(  44) = (   0.3333333   0.6666667   0.5000000  )
        45           C   tau(  45) = (   0.3333333   0.6666667   0.8333333  )
        46           C   tau(  46) = (   0.6666667   0.0000000   0.1666667  )
        47           C   tau(  47) = (   0.6666667   0.0000000   0.5000000  )
        48           C   tau(  48) = (   0.6666667   0.0000000   0.8333333  )
        49           C   tau(  49) = (   0.6666667   0.3333333   0.1666667  )
        50           C   tau(  50) = (   0.6666667   0.3333333   0.5000000  )
        51           C   tau(  51) = (   0.6666667   0.3333333   0.8333333  )
        52           C   tau(  52) = (   0.6666667   0.6666667   0.1666667  )
        53           C   tau(  53) = (   0.6666667   0.6666667   0.5000000  )
        54           C   tau(  54) = (   0.6666667   0.6666667   0.8333333  )
        55           C   tau(  55) = (   0.0833353   0.0833353   0.2499980  )
        56           C   tau(  56) = (   0.0833353   0.0833353   0.5833313  )
        57           C   tau(  57) = (   0.0833353   0.0833353   0.9166647  )
        58           C   tau(  58) = (   0.0833353   0.4166687   0.2499980  )
        59           C   tau(  59) = (   0.0833353   0.4166687   0.5833313  )
        60           C   tau(  60) = (   0.0833353   0.4166687   0.9166647  )
        61           C   tau(  61) = (   0.0833353   0.7500020   0.2499980  )
        62           C   tau(  62) = (   0.0833353   0.7500020   0.5833313  )
        63           C   tau(  63) = (   0.0833353   0.7500020   0.9166647  )
        64           C   tau(  64) = (   0.4166687   0.0833353   0.2499980  )
        65           C   tau(  65) = (   0.4166687   0.0833353   0.5833313  )
        66           C   tau(  66) = (   0.4166687   0.0833353   0.9166647  )
        67           C   tau(  67) = (   0.4166687   0.4166687   0.2499980  )
        68           C   tau(  68) = (   0.4166687   0.4166687   0.5833313  )
        69           C   tau(  69) = (   0.4166687   0.4166687   0.9166647  )
        70           C   tau(  70) = (   0.4166687   0.7500020   0.2499980  )
        71           C   tau(  71) = (   0.4166687   0.7500020   0.5833313  )
        72           C   tau(  72) = (   0.4166687   0.7500020   0.9166647  )
        73           C   tau(  73) = (   0.7500020   0.0833353   0.2499980  )
        74           C   tau(  74) = (   0.7500020   0.0833353   0.5833313  )
        75           C   tau(  75) = (   0.7500020   0.0833353   0.9166647  )
        76           C   tau(  76) = (   0.7500020   0.4166687   0.2499980  )
        77           C   tau(  77) = (   0.7500020   0.4166687   0.5833313  )
        78           C   tau(  78) = (   0.7500020   0.4166687   0.9166647  )
        79           C   tau(  79) = (   0.7500020   0.7500020   0.2499980  )
        80           C   tau(  80) = (   0.7500020   0.7500020   0.5833313  )
        81           C   tau(  81) = (   0.7500020   0.7500020   0.9166647  )
        82           C   tau(  82) = (   0.0000000   0.1666667   0.0000000  )
        83           C   tau(  83) = (   0.0000000   0.1666667   0.3333333  )
        84           C   tau(  84) = (   0.0000000   0.1666667   0.6666667  )
        85           C   tau(  85) = (   0.0000000   0.5000000   0.0000000  )
        86           C   tau(  86) = (   0.0000000   0.5000000   0.3333333  )
        87           C   tau(  87) = (   0.0000000   0.5000000   0.6666667  )
        88           C   tau(  88) = (   0.0000000   0.8333333   0.0000000  )
        89           C   tau(  89) = (   0.0000000   0.8333333   0.3333333  )
        90           C   tau(  90) = (   0.0000000   0.8333333   0.6666667  )
        91           C   tau(  91) = (   0.3333333   0.1666667   0.0000000  )
        92           C   tau(  92) = (   0.3333333   0.1666667   0.3333333  )
        93           C   tau(  93) = (   0.3333333   0.1666667   0.6666667  )
        94           C   tau(  94) = (   0.3333333   0.5000000   0.0000000  )
        95           C   tau(  95) = (   0.3333333   0.5000000   0.3333333  )
        96           C   tau(  96) = (   0.3333333   0.5000000   0.6666667  )
        97           C   tau(  97) = (   0.3333333   0.8333333   0.0000000  )
        98           C   tau(  98) = (   0.3333333   0.8333333   0.3333333  )
        99           C   tau(  99) = (   0.3333333   0.8333333   0.6666667  )
       100           C   tau( 100) = (   0.6666667   0.1666667   0.0000000  )
       101           C   tau( 101) = (   0.6666667   0.1666667   0.3333333  )
       102           C   tau( 102) = (   0.6666667   0.1666667   0.6666667  )
       103           C   tau( 103) = (   0.6666667   0.5000000   0.0000000  )
       104           C   tau( 104) = (   0.6666667   0.5000000   0.3333333  )
       105           C   tau( 105) = (   0.6666667   0.5000000   0.6666667  )
       106           C   tau( 106) = (   0.6666667   0.8333333   0.0000000  )
       107           C   tau( 107) = (   0.6666667   0.8333333   0.3333333  )
       108           C   tau( 108) = (   0.6666667   0.8333333   0.6666667  )
       109           C   tau( 109) = (   0.2499980   0.2499980   0.2499980  )
       110           C   tau( 110) = (   0.2499980   0.2499980   0.5833313  )
       111           C   tau( 111) = (   0.2499980   0.2499980   0.9166647  )
       112           C   tau( 112) = (   0.2499980   0.5833313   0.2499980  )
       113           C   tau( 113) = (   0.2499980   0.5833313   0.5833313  )
       114           C   tau( 114) = (   0.2499980   0.5833313   0.9166647  )
       115           C   tau( 115) = (   0.2499980   0.9166647   0.2499980  )
       116           C   tau( 116) = (   0.2499980   0.9166647   0.5833313  )
       117           C   tau( 117) = (   0.2499980   0.9166647   0.9166647  )
       118           C   tau( 118) = (   0.5833313   0.2499980   0.2499980  )
       119           C   tau( 119) = (   0.5833313   0.2499980   0.5833313  )
       120           C   tau( 120) = (   0.5833313   0.2499980   0.9166647  )
       121           C   tau( 121) = (   0.5833313   0.5833313   0.2499980  )
       122           C   tau( 122) = (   0.5833313   0.5833313   0.5833313  )
       123           C   tau( 123) = (   0.5833313   0.5833313   0.9166647  )
       124           C   tau( 124) = (   0.5833313   0.9166647   0.2499980  )
       125           C   tau( 125) = (   0.5833313   0.9166647   0.5833313  )
       126           C   tau( 126) = (   0.5833313   0.9166647   0.9166647  )
       127           C   tau( 127) = (   0.9166647   0.2499980   0.2499980  )
       128           C   tau( 128) = (   0.9166647   0.2499980   0.5833313  )
       129           C   tau( 129) = (   0.9166647   0.2499980   0.9166647  )
       130           C   tau( 130) = (   0.9166647   0.5833313   0.2499980  )
       131           C   tau( 131) = (   0.9166647   0.5833313   0.5833313  )
       132           C   tau( 132) = (   0.9166647   0.5833313   0.9166647  )
       133           C   tau( 133) = (   0.9166647   0.9166647   0.2499980  )
       134           C   tau( 134) = (   0.9166647   0.9166647   0.5833313  )
       135           C   tau( 135) = (   0.9166647   0.9166647   0.9166647  )
       136           C   tau( 136) = (   0.1666667   0.0000000   0.0000000  )
       137           C   tau( 137) = (   0.1666667   0.0000000   0.3333333  )
       138           C   tau( 138) = (   0.1666667   0.0000000   0.6666667  )
       139           C   tau( 139) = (   0.1666667   0.3333333   0.0000000  )
       140           C   tau( 140) = (   0.1666667   0.3333333   0.3333333  )
       141           C   tau( 141) = (   0.1666667   0.3333333   0.6666667  )
       142           C   tau( 142) = (   0.1666667   0.6666667   0.0000000  )
       143           C   tau( 143) = (   0.1666667   0.6666667   0.3333333  )
       144           C   tau( 144) = (   0.1666667   0.6666667   0.6666667  )
       145           C   tau( 145) = (   0.5000000   0.0000000   0.0000000  )
       146           C   tau( 146) = (   0.5000000   0.0000000   0.3333333  )
       147           C   tau( 147) = (   0.5000000   0.0000000   0.6666667  )
       148           C   tau( 148) = (   0.5000000   0.3333333   0.0000000  )
       149           C   tau( 149) = (   0.5000000   0.3333333   0.3333333  )
       150           C   tau( 150) = (   0.5000000   0.3333333   0.6666667  )
       151           C   tau( 151) = (   0.5000000   0.6666667   0.0000000  )
       152           C   tau( 152) = (   0.5000000   0.6666667   0.3333333  )
       153           C   tau( 153) = (   0.5000000   0.6666667   0.6666667  )
       154           C   tau( 154) = (   0.8333333   0.0000000   0.0000000  )
       155           C   tau( 155) = (   0.8333333   0.0000000   0.3333333  )
       156           C   tau( 156) = (   0.8333333   0.0000000   0.6666667  )
       157           C   tau( 157) = (   0.8333333   0.3333333   0.0000000  )
       158           C   tau( 158) = (   0.8333333   0.3333333   0.3333333  )
       159           C   tau( 159) = (   0.8333333   0.3333333   0.6666667  )
       160           C   tau( 160) = (   0.8333333   0.6666667   0.0000000  )
       161           C   tau( 161) = (   0.8333333   0.6666667   0.3333333  )
       162           C   tau( 162) = (   0.8333333   0.6666667   0.6666667  )
       163           C   tau( 163) = (   0.2499980   0.0833353   0.0833353  )
       164           C   tau( 164) = (   0.2499980   0.0833353   0.4166687  )
       165           C   tau( 165) = (   0.2499980   0.0833353   0.7500020  )
       166           C   tau( 166) = (   0.2499980   0.4166687   0.0833353  )
       167           C   tau( 167) = (   0.2499980   0.4166687   0.4166687  )
       168           C   tau( 168) = (   0.2499980   0.4166687   0.7500020  )
       169           C   tau( 169) = (   0.2499980   0.7500020   0.0833353  )
       170           C   tau( 170) = (   0.2499980   0.7500020   0.4166687  )
       171           C   tau( 171) = (   0.2499980   0.7500020   0.7500020  )
       172           C   tau( 172) = (   0.5833313   0.0833353   0.0833353  )
       173           C   tau( 173) = (   0.5833313   0.0833353   0.4166687  )
       174           C   tau( 174) = (   0.5833313   0.0833353   0.7500020  )
       175           C   tau( 175) = (   0.5833313   0.4166687   0.0833353  )
       176           C   tau( 176) = (   0.5833313   0.4166687   0.4166687  )
       177           C   tau( 177) = (   0.5833313   0.4166687   0.7500020  )
       178           C   tau( 178) = (   0.5833313   0.7500020   0.0833353  )
       179           C   tau( 179) = (   0.5833313   0.7500020   0.4166687  )
       180           C   tau( 180) = (   0.5833313   0.7500020   0.7500020  )
       181           C   tau( 181) = (   0.9166647   0.0833353   0.0833353  )
       182           C   tau( 182) = (   0.9166647   0.0833353   0.4166687  )
       183           C   tau( 183) = (   0.9166647   0.0833353   0.7500020  )
       184           C   tau( 184) = (   0.9166647   0.4166687   0.0833353  )
       185           C   tau( 185) = (   0.9166647   0.4166687   0.4166687  )
       186           C   tau( 186) = (   0.9166647   0.4166687   0.7500020  )
       187           C   tau( 187) = (   0.9166647   0.7500020   0.0833353  )
       188           C   tau( 188) = (   0.9166647   0.7500020   0.4166687  )
       189           C   tau( 189) = (   0.9166647   0.7500020   0.7500020  )
       190           C   tau( 190) = (   0.1666667   0.1666667   0.1666667  )
       191           C   tau( 191) = (   0.1666667   0.1666667   0.5000000  )
       192           C   tau( 192) = (   0.1666667   0.1666667   0.8333333  )
       193           C   tau( 193) = (   0.1666667   0.5000000   0.1666667  )
       194           C   tau( 194) = (   0.1666667   0.5000000   0.5000000  )
       195           C   tau( 195) = (   0.1666667   0.5000000   0.8333333  )
       196           C   tau( 196) = (   0.1666667   0.8333333   0.1666667  )
       197           C   tau( 197) = (   0.1666667   0.8333333   0.5000000  )
       198           C   tau( 198) = (   0.1666667   0.8333333   0.8333333  )
       199           C   tau( 199) = (   0.5000000   0.1666667   0.1666667  )
       200           C   tau( 200) = (   0.5000000   0.1666667   0.5000000  )
       201           C   tau( 201) = (   0.5000000   0.1666667   0.8333333  )
       202           C   tau( 202) = (   0.5000000   0.5000000   0.1666667  )
       203           C   tau( 203) = (   0.5000000   0.5000000   0.5000000  )
       204           C   tau( 204) = (   0.5000000   0.5000000   0.8333333  )
       205           C   tau( 205) = (   0.5000000   0.8333333   0.1666667  )
       206           C   tau( 206) = (   0.5000000   0.8333333   0.5000000  )
       207           C   tau( 207) = (   0.5000000   0.8333333   0.8333333  )
       208           C   tau( 208) = (   0.8333333   0.1666667   0.1666667  )
       209           C   tau( 209) = (   0.8333333   0.1666667   0.5000000  )
       210           C   tau( 210) = (   0.8333333   0.1666667   0.8333333  )
       211           C   tau( 211) = (   0.8333333   0.5000000   0.1666667  )
       212           C   tau( 212) = (   0.8333333   0.5000000   0.5000000  )
       213           C   tau( 213) = (   0.8333333   0.5000000   0.8333333  )
       214           C   tau( 214) = (   0.8333333   0.8333333   0.1666667  )
       215           C   tau( 215) = (   0.8333333   0.8333333   0.5000000  )
       216           C   tau( 216) = (   0.8333333   0.8333333   0.8333333  )

   Crystallographic axes

     site n.     atom                  positions (cryst. coord.)
         1           C   tau(   1) = (  0.0833353  0.2499980  0.0833353  )
         2           C   tau(   2) = (  0.0833353  0.2499980  0.4166687  )
         3           C   tau(   3) = (  0.0833353  0.2499980  0.7500020  )
         4           C   tau(   4) = (  0.0833353  0.5833313  0.0833353  )
         5           C   tau(   5) = (  0.0833353  0.5833313  0.4166687  )
         6           C   tau(   6) = (  0.0833353  0.5833313  0.7500020  )
         7           C   tau(   7) = (  0.0833353  0.9166647  0.0833353  )
         8           C   tau(   8) = (  0.0833353  0.9166647  0.4166687  )
         9           C   tau(   9) = (  0.0833353  0.9166647  0.7500020  )
        10           C   tau(  10) = (  0.4166687  0.2499980  0.0833353  )
        11           C   tau(  11) = (  0.4166687  0.2499980  0.4166687  )
        12           C   tau(  12) = (  0.4166687  0.2499980  0.7500020  )
        13           C   tau(  13) = (  0.4166687  0.5833313  0.0833353  )
        14           C   tau(  14) = (  0.4166687  0.5833313  0.4166687  )
        15           C   tau(  15) = (  0.4166687  0.5833313  0.7500020  )
        16           C   tau(  16) = (  0.4166687  0.9166647  0.0833353  )
        17           C   tau(  17) = (  0.4166687  0.9166647  0.4166687  )
        18           C   tau(  18) = (  0.4166687  0.9166647  0.7500020  )
        19           C   tau(  19) = (  0.7500020  0.2499980  0.0833353  )
        20           C   tau(  20) = (  0.7500020  0.2499980  0.4166687  )
        21           C   tau(  21) = (  0.7500020  0.2499980  0.7500020  )
        22           C   tau(  22) = (  0.7500020  0.5833313  0.0833353  )
        23           C   tau(  23) = (  0.7500020  0.5833313  0.4166687  )
        24           C   tau(  24) = (  0.7500020  0.5833313  0.7500020  )
        25           C   tau(  25) = (  0.7500020  0.9166647  0.0833353  )
        26           C   tau(  26) = (  0.7500020  0.9166647  0.4166687  )
        27           C   tau(  27) = (  0.7500020  0.9166647  0.7500020  )
        28           C   tau(  28) = (  0.0000000  0.0000000  0.1666667  )
        29           C   tau(  29) = (  0.0000000  0.0000000  0.5000000  )
        30           C   tau(  30) = (  0.0000000  0.0000000  0.8333333  )
        31           C   tau(  31) = (  0.0000000  0.3333333  0.1666667  )
        32           C   tau(  32) = (  0.0000000  0.3333333  0.5000000  )
        33           C   tau(  33) = (  0.0000000  0.3333333  0.8333333  )
        34           C   tau(  34) = (  0.0000000  0.6666667  0.1666667  )
        35           C   tau(  35) = (  0.0000000  0.6666667  0.5000000  )
        36           C   tau(  36) = (  0.0000000  0.6666667  0.8333333  )
        37           C   tau(  37) = (  0.3333333  0.0000000  0.1666667  )
        38           C   tau(  38) = (  0.3333333  0.0000000  0.5000000  )
        39           C   tau(  39) = (  0.3333333  0.0000000  0.8333333  )
        40           C   tau(  40) = (  0.3333333  0.3333333  0.1666667  )
        41           C   tau(  41) = (  0.3333333  0.3333333  0.5000000  )
        42           C   tau(  42) = (  0.3333333  0.3333333  0.8333333  )
        43           C   tau(  43) = (  0.3333333  0.6666667  0.1666667  )
        44           C   tau(  44) = (  0.3333333  0.6666667  0.5000000  )
        45           C   tau(  45) = (  0.3333333  0.6666667  0.8333333  )
        46           C   tau(  46) = (  0.6666667  0.0000000  0.1666667  )
        47           C   tau(  47) = (  0.6666667  0.0000000  0.5000000  )
        48           C   tau(  48) = (  0.6666667  0.0000000  0.8333333  )
        49           C   tau(  49) = (  0.6666667  0.3333333  0.1666667  )
        50           C   tau(  50) = (  0.6666667  0.3333333  0.5000000  )
        51           C   tau(  51) = (  0.6666667  0.3333333  0.8333333  )
        52           C   tau(  52) = (  0.6666667  0.6666667  0.1666667  )
        53           C   tau(  53) = (  0.6666667  0.6666667  0.5000000  )
        54           C   tau(  54) = (  0.6666667  0.6666667  0.8333333  )
        55           C   tau(  55) = (  0.0833353  0.0833353  0.2499980  )
        56           C   tau(  56) = (  0.0833353  0.0833353  0.5833313  )
        57           C   tau(  57) = (  0.0833353  0.0833353  0.9166647  )
        58           C   tau(  58) = (  0.0833353  0.4166687  0.2499980  )
        59           C   tau(  59) = (  0.0833353  0.4166687  0.5833313  )
        60           C   tau(  60) = (  0.0833353  0.4166687  0.9166647  )
        61           C   tau(  61) = (  0.0833353  0.7500020  0.2499980  )
        62           C   tau(  62) = (  0.0833353  0.7500020  0.5833313  )
        63           C   tau(  63) = (  0.0833353  0.7500020  0.9166647  )
        64           C   tau(  64) = (  0.4166687  0.0833353  0.2499980  )
        65           C   tau(  65) = (  0.4166687  0.0833353  0.5833313  )
        66           C   tau(  66) = (  0.4166687  0.0833353  0.9166647  )
        67           C   tau(  67) = (  0.4166687  0.4166687  0.2499980  )
        68           C   tau(  68) = (  0.4166687  0.4166687  0.5833313  )
        69           C   tau(  69) = (  0.4166687  0.4166687  0.9166647  )
        70           C   tau(  70) = (  0.4166687  0.7500020  0.2499980  )
        71           C   tau(  71) = (  0.4166687  0.7500020  0.5833313  )
        72           C   tau(  72) = (  0.4166687  0.7500020  0.9166647  )
        73           C   tau(  73) = (  0.7500020  0.0833353  0.2499980  )
        74           C   tau(  74) = (  0.7500020  0.0833353  0.5833313  )
        75           C   tau(  75) = (  0.7500020  0.0833353  0.9166647  )
        76           C   tau(  76) = (  0.7500020  0.4166687  0.2499980  )
        77           C   tau(  77) = (  0.7500020  0.4166687  0.5833313  )
        78           C   tau(  78) = (  0.7500020  0.4166687  0.9166647  )
        79           C   tau(  79) = (  0.7500020  0.7500020  0.2499980  )
        80           C   tau(  80) = (  0.7500020  0.7500020  0.5833313  )
        81           C   tau(  81) = (  0.7500020  0.7500020  0.9166647  )
        82           C   tau(  82) = (  0.0000000  0.1666667  0.0000000  )
        83           C   tau(  83) = (  0.0000000  0.1666667  0.3333333  )
        84           C   tau(  84) = (  0.0000000  0.1666667  0.6666667  )
        85           C   tau(  85) = (  0.0000000  0.5000000  0.0000000  )
        86           C   tau(  86) = (  0.0000000  0.5000000  0.3333333  )
        87           C   tau(  87) = (  0.0000000  0.5000000  0.6666667  )
        88           C   tau(  88) = (  0.0000000  0.8333333  0.0000000  )
        89           C   tau(  89) = (  0.0000000  0.8333333  0.3333333  )
        90           C   tau(  90) = (  0.0000000  0.8333333  0.6666667  )
        91           C   tau(  91) = (  0.3333333  0.1666667  0.0000000  )
        92           C   tau(  92) = (  0.3333333  0.1666667  0.3333333  )
        93           C   tau(  93) = (  0.3333333  0.1666667  0.6666667  )
        94           C   tau(  94) = (  0.3333333  0.5000000  0.0000000  )
        95           C   tau(  95) = (  0.3333333  0.5000000  0.3333333  )
        96           C   tau(  96) = (  0.3333333  0.5000000  0.6666667  )
        97           C   tau(  97) = (  0.3333333  0.8333333  0.0000000  )
        98           C   tau(  98) = (  0.3333333  0.8333333  0.3333333  )
        99           C   tau(  99) = (  0.3333333  0.8333333  0.6666667  )
       100           C   tau( 100) = (  0.6666667  0.1666667  0.0000000  )
       101           C   tau( 101) = (  0.6666667  0.1666667  0.3333333  )
       102           C   tau( 102) = (  0.6666667  0.1666667  0.6666667  )
       103           C   tau( 103) = (  0.6666667  0.5000000  0.0000000  )
       104           C   tau( 104) = (  0.6666667  0.5000000  0.3333333  )
       105           C   tau( 105) = (  0.6666667  0.5000000  0.6666667  )
       106           C   tau( 106) = (  0.6666667  0.8333333  0.0000000  )
       107           C   tau( 107) = (  0.6666667  0.8333333  0.3333333  )
       108           C   tau( 108) = (  0.6666667  0.8333333  0.6666667  )
       109           C   tau( 109) = (  0.2499980  0.2499980  0.2499980  )
       110           C   tau( 110) = (  0.2499980  0.2499980  0.5833313  )
       111           C   tau( 111) = (  0.2499980  0.2499980  0.9166647  )
       112           C   tau( 112) = (  0.2499980  0.5833313  0.2499980  )
       113           C   tau( 113) = (  0.2499980  0.5833313  0.5833313  )
       114           C   tau( 114) = (  0.2499980  0.5833313  0.9166647  )
       115           C   tau( 115) = (  0.2499980  0.9166647  0.2499980  )
       116           C   tau( 116) = (  0.2499980  0.9166647  0.5833313  )
       117           C   tau( 117) = (  0.2499980  0.9166647  0.9166647  )
       118           C   tau( 118) = (  0.5833313  0.2499980  0.2499980  )
       119           C   tau( 119) = (  0.5833313  0.2499980  0.5833313  )
       120           C   tau( 120) = (  0.5833313  0.2499980  0.9166647  )
       121           C   tau( 121) = (  0.5833313  0.5833313  0.2499980  )
       122           C   tau( 122) = (  0.5833313  0.5833313  0.5833313  )
       123           C   tau( 123) = (  0.5833313  0.5833313  0.9166647  )
       124           C   tau( 124) = (  0.5833313  0.9166647  0.2499980  )
       125           C   tau( 125) = (  0.5833313  0.9166647  0.5833313  )
       126           C   tau( 126) = (  0.5833313  0.9166647  0.9166647  )
       127           C   tau( 127) = (  0.9166647  0.2499980  0.2499980  )
       128           C   tau( 128) = (  0.9166647  0.2499980  0.5833313  )
       129           C   tau( 129) = (  0.9166647  0.2499980  0.9166647  )
       130           C   tau( 130) = (  0.9166647  0.5833313  0.2499980  )
       131           C   tau( 131) = (  0.9166647  0.5833313  0.5833313  )
       132           C   tau( 132) = (  0.9166647  0.5833313  0.9166647  )
       133           C   tau( 133) = (  0.9166647  0.9166647  0.2499980  )
       134           C   tau( 134) = (  0.9166647  0.9166647  0.5833313  )
       135           C   tau( 135) = (  0.9166647  0.9166647  0.9166647  )
       136           C   tau( 136) = (  0.1666667  0.0000000  0.0000000  )
       137           C   tau( 137) = (  0.1666667  0.0000000  0.3333333  )
       138           C   tau( 138) = (  0.1666667  0.0000000  0.6666667  )
       139           C   tau( 139) = (  0.1666667  0.3333333  0.0000000  )
       140           C   tau( 140) = (  0.1666667  0.3333333  0.3333333  )
       141           C   tau( 141) = (  0.1666667  0.3333333  0.6666667  )
       142           C   tau( 142) = (  0.1666667  0.6666667  0.0000000  )
       143           C   tau( 143) = (  0.1666667  0.6666667  0.3333333  )
       144           C   tau( 144) = (  0.1666667  0.6666667  0.6666667  )
       145           C   tau( 145) = (  0.5000000  0.0000000  0.0000000  )
       146           C   tau( 146) = (  0.5000000  0.0000000  0.3333333  )
       147           C   tau( 147) = (  0.5000000  0.0000000  0.6666667  )
       148           C   tau( 148) = (  0.5000000  0.3333333  0.0000000  )
       149           C   tau( 149) = (  0.5000000  0.3333333  0.3333333  )
       150           C   tau( 150) = (  0.5000000  0.3333333  0.6666667  )
       151           C   tau( 151) = (  0.5000000  0.6666667  0.0000000  )
       152           C   tau( 152) = (  0.5000000  0.6666667  0.3333333  )
       153           C   tau( 153) = (  0.5000000  0.6666667  0.6666667  )
       154           C   tau( 154) = (  0.8333333  0.0000000  0.0000000  )
       155           C   tau( 155) = (  0.8333333  0.0000000  0.3333333  )
       156           C   tau( 156) = (  0.8333333  0.0000000  0.6666667  )
       157           C   tau( 157) = (  0.8333333  0.3333333  0.0000000  )
       158           C   tau( 158) = (  0.8333333  0.3333333  0.3333333  )
       159           C   tau( 159) = (  0.8333333  0.3333333  0.6666667  )
       160           C   tau( 160) = (  0.8333333  0.6666667  0.0000000  )
       161           C   tau( 161) = (  0.8333333  0.6666667  0.3333333  )
       162           C   tau( 162) = (  0.8333333  0.6666667  0.6666667  )
       163           C   tau( 163) = (  0.2499980  0.0833353  0.0833353  )
       164           C   tau( 164) = (  0.2499980  0.0833353  0.4166687  )
       165           C   tau( 165) = (  0.2499980  0.0833353  0.7500020  )
       166           C   tau( 166) = (  0.2499980  0.4166687  0.0833353  )
       167           C   tau( 167) = (  0.2499980  0.4166687  0.4166687  )
       168           C   tau( 168) = (  0.2499980  0.4166687  0.7500020  )
       169           C   tau( 169) = (  0.2499980  0.7500020  0.0833353  )
       170           C   tau( 170) = (  0.2499980  0.7500020  0.4166687  )
       171           C   tau( 171) = (  0.2499980  0.7500020  0.7500020  )
       172           C   tau( 172) = (  0.5833313  0.0833353  0.0833353  )
       173           C   tau( 173) = (  0.5833313  0.0833353  0.4166687  )
       174           C   tau( 174) = (  0.5833313  0.0833353  0.7500020  )
       175           C   tau( 175) = (  0.5833313  0.4166687  0.0833353  )
       176           C   tau( 176) = (  0.5833313  0.4166687  0.4166687  )
       177           C   tau( 177) = (  0.5833313  0.4166687  0.7500020  )
       178           C   tau( 178) = (  0.5833313  0.7500020  0.0833353  )
       179           C   tau( 179) = (  0.5833313  0.7500020  0.4166687  )
       180           C   tau( 180) = (  0.5833313  0.7500020  0.7500020  )
       181           C   tau( 181) = (  0.9166647  0.0833353  0.0833353  )
       182           C   tau( 182) = (  0.9166647  0.0833353  0.4166687  )
       183           C   tau( 183) = (  0.9166647  0.0833353  0.7500020  )
       184           C   tau( 184) = (  0.9166647  0.4166687  0.0833353  )
       185           C   tau( 185) = (  0.9166647  0.4166687  0.4166687  )
       186           C   tau( 186) = (  0.9166647  0.4166687  0.7500020  )
       187           C   tau( 187) = (  0.9166647  0.7500020  0.0833353  )
       188           C   tau( 188) = (  0.9166647  0.7500020  0.4166687  )
       189           C   tau( 189) = (  0.9166647  0.7500020  0.7500020  )
       190           C   tau( 190) = (  0.1666667  0.1666667  0.1666667  )
       191           C   tau( 191) = (  0.1666667  0.1666667  0.5000000  )
       192           C   tau( 192) = (  0.1666667  0.1666667  0.8333333  )
       193           C   tau( 193) = (  0.1666667  0.5000000  0.1666667  )
       194           C   tau( 194) = (  0.1666667  0.5000000  0.5000000  )
       195           C   tau( 195) = (  0.1666667  0.5000000  0.8333333  )
       196           C   tau( 196) = (  0.1666667  0.8333333  0.1666667  )
       197           C   tau( 197) = (  0.1666667  0.8333333  0.5000000  )
       198           C   tau( 198) = (  0.1666667  0.8333333  0.8333333  )
       199           C   tau( 199) = (  0.5000000  0.1666667  0.1666667  )
       200           C   tau( 200) = (  0.5000000  0.1666667  0.5000000  )
       201           C   tau( 201) = (  0.5000000  0.1666667  0.8333333  )
       202           C   tau( 202) = (  0.5000000  0.5000000  0.1666667  )
       203           C   tau( 203) = (  0.5000000  0.5000000  0.5000000  )
       204           C   tau( 204) = (  0.5000000  0.5000000  0.8333333  )
       205           C   tau( 205) = (  0.5000000  0.8333333  0.1666667  )
       206           C   tau( 206) = (  0.5000000  0.8333333  0.5000000  )
       207           C   tau( 207) = (  0.5000000  0.8333333  0.8333333  )
       208           C   tau( 208) = (  0.8333333  0.1666667  0.1666667  )
       209           C   tau( 209) = (  0.8333333  0.1666667  0.5000000  )
       210           C   tau( 210) = (  0.8333333  0.1666667  0.8333333  )
       211           C   tau( 211) = (  0.8333333  0.5000000  0.1666667  )
       212           C   tau( 212) = (  0.8333333  0.5000000  0.5000000  )
       213           C   tau( 213) = (  0.8333333  0.5000000  0.8333333  )
       214           C   tau( 214) = (  0.8333333  0.8333333  0.1666667  )
       215           C   tau( 215) = (  0.8333333  0.8333333  0.5000000  )
       216           C   tau( 216) = (  0.8333333  0.8333333  0.8333333  )

     number of k points=     4  Gaussian smearing, width (Ry)=  0.0100
                       cart. coord. in units 2pi/alat
        k(    1) = (   0.0000000   0.0000000   0.0000000), wk =   0.2500000
        k(    2) = (   0.0000000   0.0000000  -0.5000000), wk =   0.7500000
        k(    3) = (   0.0000000  -0.5000000  -0.5000000), wk =   0.7500000
        k(    4) = (  -0.5000000  -0.5000000  -0.5000000), wk =   0.2500000

                       cryst. coord.
        k(    1) = (   0.0000000   0.0000000   0.0000000), wk =   0.2500000
        k(    2) = (   0.0000000   0.0000000  -0.5000000), wk =   0.7500000
        k(    3) = (   0.0000000  -0.5000000  -0.5000000), wk =   0.7500000
        k(    4) = (  -0.5000000  -0.5000000  -0.5000000), wk =   0.2500000

     Dense  grid:   918657 G-vectors     FFT dimensions: ( 125, 125, 125)

     Smooth grid:   656775 G-vectors     FFT dimensions: ( 108, 108, 108)

     Dynamical RAM for                 wfc:      10.14 MB

     Dynamical RAM for     wfc (w. buffer):      10.14 MB

     Dynamical RAM for           str. fact:       0.22 MB

     Dynamical RAM for           local pot:       0.00 MB

     Dynamical RAM for          nlocal pot:      33.83 MB

     Dynamical RAM for                qrad:       0.43 MB

     Dynamical RAM for          rho,v,vnew:       1.37 MB

     Dynamical RAM for               rhoin:       0.46 MB

     Dynamical RAM for            rho*nmix:       3.50 MB

     Dynamical RAM for           G-vectors:       0.90 MB

     Dynamical RAM for          h,s,v(r/c):     196.53 MB

     Dynamical RAM for          <psi|beta>:      13.66 MB

     Dynamical RAM for                 psi:      40.56 MB

     Dynamical RAM for                hpsi:      40.56 MB

     Dynamical RAM for                spsi:      40.56 MB

     Dynamical RAM for      wfcinit/wfcrot:      26.43 MB

     Dynamical RAM for           addusdens:      14.34 MB

     Dynamical RAM for          addusforce:      38.01 MB

     Dynamical RAM for         addusstress:       2.82 MB

     Estimated static dynamical RAM per process >      48.98 MB

     Estimated max dynamical RAM per process >     384.36 MB

     Estimated total dynamical RAM >      95.43 GB

     Atomic positions and unit cell read from directory:
     ./diamond.save/
 

     Check: negative core charge=   -0.000014
     Cannot read rho : file not found

     Initial potential from superposition of free atoms

     starting charge     863.9910, renormalised to     864.0000


     %%%%%%%%%%%%%%%%%%%%%%%%%%%%%%%%%%%%%%%%%%%%%%%%%%%%%%%%%%%%%%%%%%%%%%%%
     %                                                                      %
     % You are using vdW-DF, which was implemented by the Thonhauser group. %
     % Please cite the following two papers that made this development      %
     % possible and the two reviews that describe the various versions:     %
     %                                                                      %
     %   T. Thonhauser et al., PRL 115, 136402 (2015).                      %
     %   T. Thonhauser et al., PRB 76, 125112 (2007).                       %
     %   K. Berland et al., Rep. Prog. Phys. 78, 066501 (2015).             %
     %   D.C. Langreth et al., J. Phys.: Condens. Matter 21, 084203 (2009). %
     %                                                                      %
     % If you are calculating stress with vdW-DF, please also cite:         %
     %                                                                      %
     %   R. Sabatini et al., J. Phys.: Condens. Matter 24, 424209 (2012).   %
     %                                                                      %
     %%%%%%%%%%%%%%%%%%%%%%%%%%%%%%%%%%%%%%%%%%%%%%%%%%%%%%%%%%%%%%%%%%%%%%%%

     %%%%%%%%%%%%%%%%%%%%%%%%%%%%%%%%%%%%%%%%%%%%%%%%%%%%%%%%%%%%%%%%%%%%%%%%
     %                                                                      %
     %  vdW-DF NEWS:                                                        %
     %                                                                      %
     %  * vdW-DF3 is now available. DOI: 10.1021/acs.jctc.0c00471           %
     %    use with input_dft = 'vdW-DF3-opt1' or 'vdW-DF3-opt2'             %
     %                                                                      %
     %  * Unscreened and range-separated vdW-DF hybrid functionals          %
     %    DOI: 10.1063/1.4986522 and 10.1088/1361-648X/ac2ad2               %
     %    use with input_dft = 'vdW-DF-cx0' (etc) and 'vdW-DF-ahcx'         %
     %                                                                      %
     %%%%%%%%%%%%%%%%%%%%%%%%%%%%%%%%%%%%%%%%%%%%%%%%%%%%%%%%%%%%%%%%%%%%%%%%


     Carrying out vdW-DF run using the following parameters:
     Nqs    =  20  Npoints =  1024  r_max =  100.000
     q_mesh =  0.00001000  0.04494208  0.09755937  0.15916263
               0.23128650  0.31572767  0.41458969  0.53033537
               0.66584808  0.82450364  1.01025438  1.22772762
               1.48234092  1.78043706  2.12944203  2.53805004
               3.01644009  3.57652955  4.23227104  5.00000000


     -----------------------------------------------
     Non-local corr. energy    =       5.43081279 Ry
     -----------------------------------------------

     Wavefunctions not found or not readable, recomputing them from scratch
     Starting wfcs are  864 randomized atomic wfcs
     Checking if some PAW data can be deallocated... 

     total cpu time spent up to now is        7.8 secs

     Self-consistent Calculation

     iteration #  1     ecut=    70.00 Ry     beta= 0.70
     Davidson diagonalization with overlap

---- Real-time Memory Report at c_bands before calling an iterative solver
           354 MiB given to the printing process from OS
             0 MiB allocation reported by mallinfo(arena+hblkhd)
       1967588 MiB available memory on the node where the printing process lives
------------------
     ethr =  1.00E-05,  avg # of iterations = 17.5


     -----------------------------------------------
     Non-local corr. energy    =       6.96532404 Ry
     -----------------------------------------------


     total cpu time spent up to now is       71.6 secs

     total energy              =   -4101.72434248 Ry
     estimated scf accuracy    <      12.80593126 Ry

     iteration #  2     ecut=    70.00 Ry     beta= 0.70
     Davidson diagonalization with overlap

---- Real-time Memory Report at c_bands before calling an iterative solver
           561 MiB given to the printing process from OS
             0 MiB allocation reported by mallinfo(arena+hblkhd)
       1964634 MiB available memory on the node where the printing process lives
------------------
     ethr =  1.48E-03,  avg # of iterations =  1.0


     -----------------------------------------------
     Non-local corr. energy    =       7.34855050 Ry
     -----------------------------------------------


     total cpu time spent up to now is       79.4 secs

     total energy              =   -4102.37756051 Ry
     estimated scf accuracy    <       0.41202913 Ry

     iteration #  3     ecut=    70.00 Ry     beta= 0.70
     Davidson diagonalization with overlap

---- Real-time Memory Report at c_bands before calling an iterative solver
           561 MiB given to the printing process from OS
             0 MiB allocation reported by mallinfo(arena+hblkhd)
       1964637 MiB available memory on the node where the printing process lives
------------------
     ethr =  4.77E-05,  avg # of iterations =  3.3


     -----------------------------------------------
     Non-local corr. energy    =       7.37345145 Ry
     -----------------------------------------------


     total cpu time spent up to now is       96.1 secs

     total energy              =   -4102.45112661 Ry
     estimated scf accuracy    <       0.00784188 Ry

     iteration #  4     ecut=    70.00 Ry     beta= 0.70
     Davidson diagonalization with overlap

---- Real-time Memory Report at c_bands before calling an iterative solver
           561 MiB given to the printing process from OS
             0 MiB allocation reported by mallinfo(arena+hblkhd)
       1964641 MiB available memory on the node where the printing process lives
------------------
     ethr =  9.08E-07,  avg # of iterations =  6.0


     -----------------------------------------------
     Non-local corr. energy    =       7.38322863 Ry
     -----------------------------------------------


     total cpu time spent up to now is      126.9 secs

     total energy              =   -4102.45317213 Ry
     estimated scf accuracy    <       0.00018183 Ry

     iteration #  5     ecut=    70.00 Ry     beta= 0.70
     Davidson diagonalization with overlap

---- Real-time Memory Report at c_bands before calling an iterative solver
           561 MiB given to the printing process from OS
             0 MiB allocation reported by mallinfo(arena+hblkhd)
       1964627 MiB available memory on the node where the printing process lives
------------------
     c_bands:  2 eigenvalues not converged
     ethr =  2.10E-08,  avg # of iterations = 24.5


     -----------------------------------------------
     Non-local corr. energy    =       7.38341672 Ry
     -----------------------------------------------


     total cpu time spent up to now is      250.7 secs

     total energy              =   -4102.45323730 Ry
     estimated scf accuracy    <       0.00005521 Ry

     iteration #  6     ecut=    70.00 Ry     beta= 0.70
     Davidson diagonalization with overlap

---- Real-time Memory Report at c_bands before calling an iterative solver
           582 MiB given to the printing process from OS
             0 MiB allocation reported by mallinfo(arena+hblkhd)
       1964591 MiB available memory on the node where the printing process lives
------------------
     c_bands:  1 eigenvalues not converged
     ethr =  6.39E-09,  avg # of iterations = 17.3


     -----------------------------------------------
     Non-local corr. energy    =       7.38304876 Ry
     -----------------------------------------------


     total cpu time spent up to now is      319.4 secs

     total energy              =   -4102.45324843 Ry
     estimated scf accuracy    <       0.00000380 Ry

     iteration #  7     ecut=    70.00 Ry     beta= 0.70
     Davidson diagonalization with overlap

---- Real-time Memory Report at c_bands before calling an iterative solver
           582 MiB given to the printing process from OS
             0 MiB allocation reported by mallinfo(arena+hblkhd)
       1964551 MiB available memory on the node where the printing process lives
------------------
     ethr =  4.40E-10,  avg # of iterations = 11.3


     -----------------------------------------------
     Non-local corr. energy    =       7.38307631 Ry
     -----------------------------------------------


     total cpu time spent up to now is      385.9 secs

     total energy              =   -4102.45324928 Ry
     estimated scf accuracy    <       0.00000010 Ry

     iteration #  8     ecut=    70.00 Ry     beta= 0.70
     Davidson diagonalization with overlap

---- Real-time Memory Report at c_bands before calling an iterative solver
           582 MiB given to the printing process from OS
             0 MiB allocation reported by mallinfo(arena+hblkhd)
       1964513 MiB available memory on the node where the printing process lives
------------------
     c_bands:  1 eigenvalues not converged
     ethr =  1.19E-11,  avg # of iterations = 39.3


     -----------------------------------------------
     Non-local corr. energy    =       7.38316210 Ry
     -----------------------------------------------


     total cpu time spent up to now is      533.7 secs

     End of self-consistent calculation

          k = 0.0000 0.0000 0.0000 ( 82057 PWs)   bands (ev):

    -8.4626  -7.4480  -7.4478  -7.4478  -7.4478  -7.4477  -7.4477  -6.4484
    -6.4483  -6.4483  -6.4483  -6.4482  -6.4482  -6.4482  -6.4481  -6.4481
    -6.4481  -6.4481  -6.4481  -5.4728  -5.4727  -5.4727  -5.4727  -5.4727
    -5.4727  -5.4727  -5.4727  -4.4714  -4.4714  -4.4714  -4.4714  -4.4714
    -4.4714  -3.5496  -3.5495  -3.5495  -3.5495  -3.5495  -3.5495  -3.5495
    -3.5495  -3.5495  -3.5494  -3.5494  -3.5494  -3.5494  -3.5494  -3.5494
    -3.5493  -3.5493  -3.5493  -3.5493  -3.5493  -3.5493  -3.5493  -3.5493
    -3.5492  -2.7844  -2.7843  -2.7843  -2.7843  -2.7843  -2.7842  -2.7842
    -2.7842  -2.7840  -2.7840  -2.7840  -2.7840  -2.7840  -2.7840  -2.7840
    -2.7840  -2.7840  -2.7839  -2.7839  -2.7839  -2.7839  -2.7838  -2.7838
    -2.7838  -1.1380  -1.1380  -1.1380  -1.1380  -1.1380  -1.1380  -1.1380
    -1.1379  -1.1379  -1.1379  -1.1379  -1.1379   0.1809   0.1813   0.1813
     0.1813   0.1814   0.1814   0.6939   0.6939   0.6939   0.6939   0.6940
     0.6940   0.6940   0.6940   0.6940   0.6941   0.6941   0.6941   0.6941
     0.6941   0.6941   0.6942   0.6942   0.6942   0.6943   0.6943   0.6944
     0.6944   0.6944   0.6944   1.0296   1.0296   1.0296   1.0298   1.0298
     1.0298   1.0298   1.0298   1.0298   1.0298   1.0298   1.0299   1.0299
     1.0299   1.0299   1.0299   1.0299   1.0300   1.0300   1.0300   1.0300
     1.0300   1.0300   1.0301   2.0095   2.0096   2.0096   2.0096   2.0096
     2.0096   2.0096   2.0096   2.0096   2.0096   2.0096   2.0096   3.6390
     3.6390   3.6390   3.6390   3.6390   3.6390   3.6390   3.6390   3.7315
     3.7315   3.7315   3.7315   3.7315   3.7315   3.7315   3.7315   3.7315
     3.7315   3.7315   3.7315   4.2355   4.2355   4.2355   4.2355   4.2355
     4.2356   4.2356   4.2356   4.2356   4.2356   4.2356   4.2356   4.2356
     4.2356   4.2356   4.2356   4.2356   4.2356   4.2356   4.2357   4.2357
     4.2357   4.2357   4.2357   5.2662   5.2662   5.2662   5.2662   5.2662
     5.2662   5.2662   5.2662   5.2662   5.2663   5.2663   5.2663   5.2666
     5.2666   5.2666   5.2666   5.2666   5.2666   5.2667   5.2667   5.2667
     5.2667   5.2667   5.2667   5.7269   5.7269   5.7269   5.7269   5.7269
     5.7269   5.7372   5.7372   5.7372   5.7372   5.7372   5.7372   5.7372
     5.7372   5.7373   5.7373   5.7373   5.7373   5.7374   5.7374   5.7374
     5.7374   5.7374   5.7374   5.7374   5.7374   5.7374   5.7375   5.7375
     5.7375   6.7168   6.7168   6.7168   6.7170   6.7170   6.7170   7.2581
     7.2581   7.2581   7.2581   7.2581   7.2582   7.2582   7.2582   7.2582
     7.2582   7.2582   7.2583   7.6984   7.6984   7.6984   7.6984   7.6984
     7.6984   7.6984   7.6984   7.6984   7.6984   7.6984   7.6984   7.9907
     7.9907   7.9907   7.9909   7.9909   7.9909   7.9909   7.9911   7.9911
     7.9911   7.9911   7.9911   7.9911   7.9913   7.9913   7.9913   7.9914
     7.9914   7.9914   7.9914   7.9914   7.9915   7.9915   7.9915   8.2083
     8.2083   8.2083   8.2083   8.2083   8.2083   8.2083   8.2084   8.2084
     8.2084   8.2084   8.2084   8.2087   8.2087   8.2087   8.2087   8.2087
     8.2088   8.2088   8.2088   8.2088   8.2089   8.2089   8.2089   8.2117
     8.2117   8.2117   8.2117   8.2117   8.2117   8.2117   8.2117   8.2117
     8.2117   8.2117   8.2117   8.3123   8.3124   8.3124   8.3124   8.3124
     8.3124   8.3124   8.3125   8.3125   8.3126   8.3126   8.3126   9.0236
     9.0236   9.0236   9.0236   9.0236   9.0236   9.0236   9.0236   9.0237
     9.0238   9.0238   9.0238   9.0239   9.0239   9.0239   9.0239   9.0239
     9.0240   9.0240   9.0240   9.0240   9.0240   9.0240   9.0241  10.4171
    10.4171  10.4171  10.4172  10.4172  10.4172  10.4172  10.4172  10.4172
    10.4172  10.4172  10.4172  10.6512  10.6512  10.6513  10.6513  10.6513
    10.6513  10.6513  10.6513  10.6513  10.6513  10.6513  10.6513  10.6513
    10.6513  10.6513  10.6513  10.6791  10.6791  10.6792  10.6792  10.6792
    10.6795  11.5853  11.5853  11.5853  11.5853  11.5853  11.5853  11.5853
    11.5853  11.5853  11.5853  11.5853  11.5854  12.9566  12.9566  12.9566
    17.2699  17.2699  17.2699  17.2699  17.2699  17.2699  17.9331  17.9331
    17.9334  17.9334  17.9334  17.9341  17.9905  17.9905  17.9906  17.9906
    17.9906  17.9909  18.6201  18.6201  18.6201  19.5014  19.5014  19.5014
    19.5014  19.5014  19.5014  19.5014  19.5014  19.5014  19.5014  19.5014
    19.5014  20.2091  20.2091  20.2091  20.2091  20.2091  20.2092  20.2092
    20.2092  20.2092  20.2092  20.2093  20.2093  20.2093  20.2093  20.2093
    20.2093  20.2096  20.2096  20.2096  20.2097  20.2097  20.2097  20.2097
    20.2098  20.6509  20.6509  20.6509  20.6510  20.6510  20.6510  20.6510
    20.6510  20.6510  20.6510  20.6510  20.6510  20.7731  20.7731  20.7732
    20.7732  20.7732  20.7733  20.7734  20.7734  20.7734  20.7734  20.7734
    20.7734  20.7734  20.7734  20.7734  20.7735  20.7735

     occupation numbers 
     1.0000   1.0000   1.0000   1.0000   1.0000   1.0000   1.0000   1.0000
     1.0000   1.0000   1.0000   1.0000   1.0000   1.0000   1.0000   1.0000
     1.0000   1.0000   1.0000   1.0000   1.0000   1.0000   1.0000   1.0000
     1.0000   1.0000   1.0000   1.0000   1.0000   1.0000   1.0000   1.0000
     1.0000   1.0000   1.0000   1.0000   1.0000   1.0000   1.0000   1.0000
     1.0000   1.0000   1.0000   1.0000   1.0000   1.0000   1.0000   1.0000
     1.0000   1.0000   1.0000   1.0000   1.0000   1.0000   1.0000   1.0000
     1.0000   1.0000   1.0000   1.0000   1.0000   1.0000   1.0000   1.0000
     1.0000   1.0000   1.0000   1.0000   1.0000   1.0000   1.0000   1.0000
     1.0000   1.0000   1.0000   1.0000   1.0000   1.0000   1.0000   1.0000
     1.0000   1.0000   1.0000   1.0000   1.0000   1.0000   1.0000   1.0000
     1.0000   1.0000   1.0000   1.0000   1.0000   1.0000   1.0000   1.0000
     1.0000   1.0000   1.0000   1.0000   1.0000   1.0000   1.0000   1.0000
     1.0000   1.0000   1.0000   1.0000   1.0000   1.0000   1.0000   1.0000
     1.0000   1.0000   1.0000   1.0000   1.0000   1.0000   1.0000   1.0000
     1.0000   1.0000   1.0000   1.0000   1.0000   1.0000   1.0000   1.0000
     1.0000   1.0000   1.0000   1.0000   1.0000   1.0000   1.0000   1.0000
     1.0000   1.0000   1.0000   1.0000   1.0000   1.0000   1.0000   1.0000
     1.0000   1.0000   1.0000   1.0000   1.0000   1.0000   1.0000   1.0000
     1.0000   1.0000   1.0000   1.0000   1.0000   1.0000   1.0000   1.0000
     1.0000   1.0000   1.0000   1.0000   1.0000   1.0000   1.0000   1.0000
     1.0000   1.0000   1.0000   1.0000   1.0000   1.0000   1.0000   1.0000
     1.0000   1.0000   1.0000   1.0000   1.0000   1.0000   1.0000   1.0000
     1.0000   1.0000   1.0000   1.0000   1.0000   1.0000   1.0000   1.0000
     1.0000   1.0000   1.0000   1.0000   1.0000   1.0000   1.0000   1.0000
     1.0000   1.0000   1.0000   1.0000   1.0000   1.0000   1.0000   1.0000
     1.0000   1.0000   1.0000   1.0000   1.0000   1.0000   1.0000   1.0000
     1.0000   1.0000   1.0000   1.0000   1.0000   1.0000   1.0000   1.0000
     1.0000   1.0000   1.0000   1.0000   1.0000   1.0000   1.0000   1.0000
     1.0000   1.0000   1.0000   1.0000   1.0000   1.0000   1.0000   1.0000
     1.0000   1.0000   1.0000   1.0000   1.0000   1.0000   1.0000   1.0000
     1.0000   1.0000   1.0000   1.0000   1.0000   1.0000   1.0000   1.0000
     1.0000   1.0000   1.0000   1.0000   1.0000   1.0000   1.0000   1.0000
     1.0000   1.0000   1.0000   1.0000   1.0000   1.0000   1.0000   1.0000
     1.0000   1.0000   1.0000   1.0000   1.0000   1.0000   1.0000   1.0000
     1.0000   1.0000   1.0000   1.0000   1.0000   1.0000   1.0000   1.0000
     1.0000   1.0000   1.0000   1.0000   1.0000   1.0000   1.0000   1.0000
     1.0000   1.0000   1.0000   1.0000   1.0000   1.0000   1.0000   1.0000
     1.0000   1.0000   1.0000   1.0000   1.0000   1.0000   1.0000   1.0000
     1.0000   1.0000   1.0000   1.0000   1.0000   1.0000   1.0000   1.0000
     1.0000   1.0000   1.0000   1.0000   1.0000   1.0000   1.0000   1.0000
     1.0000   1.0000   1.0000   1.0000   1.0000   1.0000   1.0000   1.0000
     1.0000   1.0000   1.0000   1.0000   1.0000   1.0000   1.0000   1.0000
     1.0000   1.0000   1.0000   1.0000   1.0000   1.0000   1.0000   1.0000
     1.0000   1.0000   1.0000   1.0000   1.0000   1.0000   1.0000   1.0000
     1.0000   1.0000   1.0000   1.0000   1.0000   1.0000   1.0000   1.0000
     1.0000   1.0000   1.0000   1.0000   1.0000   1.0000   1.0000   1.0000
     1.0000   1.0000   1.0000   1.0000   1.0000   1.0000   1.0000   1.0000
     1.0000   1.0000   1.0000   1.0000   1.0000   1.0000   1.0000   1.0000
     1.0000   1.0000   1.0000   1.0000   1.0000   1.0000   1.0000   1.0000
     1.0000   1.0000   1.0000   1.0000   1.0000   1.0000   1.0000   1.0000
     1.0000   1.0000   1.0000   1.0000   1.0000   1.0000   1.0000   1.0000
     1.0000   1.0000   1.0000   1.0000   1.0000   1.0000   1.0000   1.0000
     1.0000   1.0000   1.0000   1.0000   1.0000   1.0000   1.0000   1.0000
     0.0000   0.0000   0.0000   0.0000   0.0000   0.0000   0.0000   0.0000
     0.0000   0.0000   0.0000   0.0000   0.0000   0.0000   0.0000   0.0000
     0.0000   0.0000   0.0000   0.0000   0.0000   0.0000   0.0000   0.0000
     0.0000   0.0000   0.0000   0.0000   0.0000   0.0000   0.0000   0.0000
     0.0000   0.0000   0.0000   0.0000   0.0000   0.0000   0.0000   0.0000
     0.0000   0.0000   0.0000   0.0000   0.0000   0.0000   0.0000   0.0000
     0.0000   0.0000   0.0000   0.0000   0.0000   0.0000   0.0000   0.0000
     0.0000   0.0000   0.0000   0.0000   0.0000   0.0000   0.0000   0.0000
     0.0000   0.0000   0.0000   0.0000   0.0000   0.0000   0.0000   0.0000
     0.0000   0.0000   0.0000   0.0000   0.0000   0.0000   0.0000   0.0000
     0.0000   0.0000   0.0000   0.0000   0.0000   0.0000

          k = 0.0000 0.0000-0.5000 ( 81982 PWs)   bands (ev):

    -8.2080  -8.2080  -7.1967  -7.1967  -7.1967  -7.1967  -7.1966  -7.1966
    -7.1966  -7.1965  -6.2022  -6.2022  -6.2022  -6.2022  -6.2022  -6.2022
    -6.2021  -6.2021  -6.1944  -6.1941  -5.2202  -5.2201  -5.2201  -5.2200
    -5.2198  -5.2197  -5.2197  -5.2196  -4.2950  -4.2950  -4.2950  -4.2950
    -4.2946  -4.2946  -4.2946  -4.2946  -4.2373  -4.2373  -4.2373  -4.2373
    -4.2373  -4.2373  -4.2373  -4.2373  -3.3407  -3.3407  -3.3407  -3.3406
    -3.3406  -3.3406  -3.3405  -3.3405  -3.3405  -3.3405  -3.3405  -3.3405
    -3.3405  -3.3405  -3.3404  -3.3404  -2.4636  -2.4636  -2.4636  -2.4636
    -2.4633  -2.4633  -2.4633  -2.4633  -2.3464  -2.3464  -2.3463  -2.3463
    -2.3461  -2.3461  -2.3460  -2.3460  -2.3220  -2.3220  -1.5169  -1.5169
    -1.5168  -1.5168  -1.5168  -1.5168  -1.5167  -1.5167  -1.4599  -1.4599
    -1.4599  -1.4599  -1.4598  -1.4598  -1.4598  -1.4598   0.0258   0.0258
     0.0258   0.0259   0.0259   0.0259   0.0259   0.0259   0.1759   0.1759
     0.1760   0.1760   0.1761   0.1761   0.1762   0.1762   0.3323   0.3324
     0.3325   0.3325   0.3326   0.3326   0.3327   0.3327   0.9209   0.9212
     0.9212   0.9214   0.9779   0.9780   0.9780   0.9780   0.9780   0.9780
     0.9780   0.9780   1.2439   1.2439   1.2439   1.2439   1.2440   1.2440
     1.2440   1.2440   2.0710   2.0710   2.0710   2.0710   2.0713   2.0713
     2.0713   2.0713   2.6941   2.6941   2.6941   2.6942   2.6944   2.6945
     2.6945   2.6945   2.7651   2.7651   2.7652   2.7652   2.7652   2.7652
     2.7652   2.7652   2.7653   2.7653   2.7653   2.7653   2.7653   2.7653
     2.7654   2.7654   2.9209   2.9215   3.0447   3.0447   3.0447   3.0448
     3.0448   3.0448   3.0448   3.0448   3.9187   3.9187   3.9187   3.9187
     3.9190   3.9190   3.9190   3.9190   4.4853   4.4853   4.4853   4.4853
     4.4854   4.4854   4.4854   4.4855   4.7803   4.7803   4.7803   4.7803
     5.1764   5.1764   5.1765   5.1765   5.1765   5.1765   5.1765   5.1766
     5.2855   5.2855   5.2855   5.2855   5.2855   5.2855   5.2855   5.2856
     5.5259   5.5259   5.5259   5.5259   5.5263   5.5263   5.5263   5.5264
     5.5585   5.5585   5.5585   5.5585   5.5587   5.5587   5.5587   5.5587
     5.6738   5.6738   5.6738   5.6738   5.6738   5.6738   5.6738   5.6739
     6.2193   6.2194   6.2194   6.2194   6.2197   6.2198   6.2198   6.2199
     6.2759   6.2759   6.2759   6.2760   6.2761   6.2761   6.2761   6.2762
     6.7970   6.7970   6.7970   6.7970   6.7971   6.7972   6.7972   6.7972
     6.9649   6.9649   6.9650   6.9650   7.0088   7.0088   7.0088   7.0088
     7.0088   7.0088   7.0088   7.0088   7.0091   7.0091   7.0091   7.0091
     7.0091   7.0091   7.0091   7.0091   7.0561   7.0561   7.0561   7.0561
     7.0566   7.0566   7.0566   7.0566   7.0584   7.0584   7.0584   7.0584
     7.0584   7.0584   7.0584   7.0584   7.8398   7.8398   7.8398   7.8398
     7.8398   7.8398   7.8398   7.8398   8.2712   8.2712   8.2714   8.2714
     8.2716   8.2717   8.2718   8.2718   8.3875   8.3875   8.4272   8.4272
     8.4274   8.4274   8.4275   8.4275   8.4276   8.4276   8.4276   8.4276
     8.4278   8.4278   8.4279   8.4279   8.4280   8.4280   8.4972   8.4973
     8.4973   8.4973   8.4973   8.4973   8.4973   8.4974   8.5508   8.5508
     8.5508   8.5508   8.5510   8.5510   8.5510   8.5510   8.8790   8.8790
     8.8796   8.8796   8.9538   8.9538   8.9539   8.9539   8.9540   8.9540
     8.9540   8.9540   9.3156   9.3156   9.3157   9.3157   9.3157   9.3157
     9.3157   9.3157   9.6791   9.6791   9.6791   9.6791   9.6791   9.6791
     9.6791   9.6791   9.7069   9.7069   9.7069   9.7069   9.7075   9.7075
     9.7075   9.7075   9.7995   9.7995   9.7996   9.7996   9.8001   9.8001
     9.8001   9.8001   9.9685   9.9685   9.9685   9.9685   9.9686   9.9686
     9.9687   9.9687  10.2758  10.2758  10.2758  10.2759  10.2760  10.2760
    10.2760  10.2761  11.3269  11.3269  11.3269  11.3269  11.3271  11.3271
    11.3271  11.3271  11.6121  11.6121  11.6121  11.6121  11.6121  11.6121
    11.6122  11.6122  12.0607  12.0607  12.0610  12.0610  12.3293  12.3293
    17.3622  17.3627  17.5314  17.5316  18.3085  18.3085  18.3085  18.3085
    18.3085  18.3085  18.3085  18.3085  18.4334  18.4334  18.9234  18.9234
    18.9237  18.9237  18.9237  18.9237  18.9240  18.9240  18.9711  18.9711
    18.9712  18.9712  18.9712  18.9712  18.9713  18.9713  19.0969  19.0971
    19.6847  19.6847  19.6847  19.6847  19.6847  19.6847  19.6848  19.6848
    19.6938  19.6938  19.6938  19.6939  19.6942  19.6943  19.6943  19.6943
    19.7382  19.7382  19.7384  19.7384  20.2013  20.2013  20.2015  20.2015
    20.2015  20.2015  20.2016  20.2016  20.2016  20.2016  20.2017  20.2017
    20.2018  20.2018  20.2019  20.2019  20.7931  20.7931  20.7931  20.7931
    20.7932  20.7932  20.7932  20.7932  20.8433  20.8434  20.8434  20.8434
    20.8437  20.8437  20.8438  20.8438  20.8732  20.8734

     occupation numbers 
     1.0000   1.0000   1.0000   1.0000   1.0000   1.0000   1.0000   1.0000
     1.0000   1.0000   1.0000   1.0000   1.0000   1.0000   1.0000   1.0000
     1.0000   1.0000   1.0000   1.0000   1.0000   1.0000   1.0000   1.0000
     1.0000   1.0000   1.0000   1.0000   1.0000   1.0000   1.0000   1.0000
     1.0000   1.0000   1.0000   1.0000   1.0000   1.0000   1.0000   1.0000
     1.0000   1.0000   1.0000   1.0000   1.0000   1.0000   1.0000   1.0000
     1.0000   1.0000   1.0000   1.0000   1.0000   1.0000   1.0000   1.0000
     1.0000   1.0000   1.0000   1.0000   1.0000   1.0000   1.0000   1.0000
     1.0000   1.0000   1.0000   1.0000   1.0000   1.0000   1.0000   1.0000
     1.0000   1.0000   1.0000   1.0000   1.0000   1.0000   1.0000   1.0000
     1.0000   1.0000   1.0000   1.0000   1.0000   1.0000   1.0000   1.0000
     1.0000   1.0000   1.0000   1.0000   1.0000   1.0000   1.0000   1.0000
     1.0000   1.0000   1.0000   1.0000   1.0000   1.0000   1.0000   1.0000
     1.0000   1.0000   1.0000   1.0000   1.0000   1.0000   1.0000   1.0000
     1.0000   1.0000   1.0000   1.0000   1.0000   1.0000   1.0000   1.0000
     1.0000   1.0000   1.0000   1.0000   1.0000   1.0000   1.0000   1.0000
     1.0000   1.0000   1.0000   1.0000   1.0000   1.0000   1.0000   1.0000
     1.0000   1.0000   1.0000   1.0000   1.0000   1.0000   1.0000   1.0000
     1.0000   1.0000   1.0000   1.0000   1.0000   1.0000   1.0000   1.0000
     1.0000   1.0000   1.0000   1.0000   1.0000   1.0000   1.0000   1.0000
     1.0000   1.0000   1.0000   1.0000   1.0000   1.0000   1.0000   1.0000
     1.0000   1.0000   1.0000   1.0000   1.0000   1.0000   1.0000   1.0000
     1.0000   1.0000   1.0000   1.0000   1.0000   1.0000   1.0000   1.0000
     1.0000   1.0000   1.0000   1.0000   1.0000   1.0000   1.0000   1.0000
     1.0000   1.0000   1.0000   1.0000   1.0000   1.0000   1.0000   1.0000
     1.0000   1.0000   1.0000   1.0000   1.0000   1.0000   1.0000   1.0000
     1.0000   1.0000   1.0000   1.0000   1.0000   1.0000   1.0000   1.0000
     1.0000   1.0000   1.0000   1.0000   1.0000   1.0000   1.0000   1.0000
     1.0000   1.0000   1.0000   1.0000   1.0000   1.0000   1.0000   1.0000
     1.0000   1.0000   1.0000   1.0000   1.0000   1.0000   1.0000   1.0000
     1.0000   1.0000   1.0000   1.0000   1.0000   1.0000   1.0000   1.0000
     1.0000   1.0000   1.0000   1.0000   1.0000   1.0000   1.0000   1.0000
     1.0000   1.0000   1.0000   1.0000   1.0000   1.0000   1.0000   1.0000
     1.0000   1.0000   1.0000   1.0000   1.0000   1.0000   1.0000   1.0000
     1.0000   1.0000   1.0000   1.0000   1.0000   1.0000   1.0000   1.0000
     1.0000   1.0000   1.0000   1.0000   1.0000   1.0000   1.0000   1.0000
     1.0000   1.0000   1.0000   1.0000   1.0000   1.0000   1.0000   1.0000
     1.0000   1.0000   1.0000   1.0000   1.0000   1.0000   1.0000   1.0000
     1.0000   1.0000   1.0000   1.0000   1.0000   1.0000   1.0000   1.0000
     1.0000   1.0000   1.0000   1.0000   1.0000   1.0000   1.0000   1.0000
     1.0000   1.0000   1.0000   1.0000   1.0000   1.0000   1.0000   1.0000
     1.0000   1.0000   1.0000   1.0000   1.0000   1.0000   1.0000   1.0000
     1.0000   1.0000   1.0000   1.0000   1.0000   1.0000   1.0000   1.0000
     1.0000   1.0000   1.0000   1.0000   1.0000   1.0000   1.0000   1.0000
     1.0000   1.0000   1.0000   1.0000   1.0000   1.0000   1.0000   1.0000
     1.0000   1.0000   1.0000   1.0000   1.0000   1.0000   1.0000   1.0000
     1.0000   1.0000   1.0000   1.0000   1.0000   1.0000   1.0000   1.0000
     1.0000   1.0000   1.0000   1.0000   1.0000   1.0000   1.0000   1.0000
     1.0000   1.0000   1.0000   1.0000   1.0000   1.0000   1.0000   1.0000
     1.0000   1.0000   1.0000   1.0000   1.0000   1.0000   1.0000   1.0000
     1.0000   1.0000   1.0000   1.0000   1.0000   1.0000   1.0000   1.0000
     1.0000   1.0000   1.0000   1.0000   1.0000   1.0000   1.0000   1.0000
     1.0000   1.0000   1.0000   1.0000   1.0000   1.0000   1.0000   1.0000
     1.0000   1.0000   1.0000   1.0000   1.0000   1.0000   1.0000   1.0000
     0.0000   0.0000   0.0000   0.0000   0.0000   0.0000   0.0000   0.0000
     0.0000   0.0000   0.0000   0.0000   0.0000   0.0000   0.0000   0.0000
     0.0000   0.0000   0.0000   0.0000   0.0000   0.0000   0.0000   0.0000
     0.0000   0.0000   0.0000   0.0000   0.0000   0.0000   0.0000   0.0000
     0.0000   0.0000   0.0000   0.0000   0.0000   0.0000   0.0000   0.0000
     0.0000   0.0000   0.0000   0.0000   0.0000   0.0000   0.0000   0.0000
     0.0000   0.0000   0.0000   0.0000   0.0000   0.0000   0.0000   0.0000
     0.0000   0.0000   0.0000   0.0000   0.0000   0.0000   0.0000   0.0000
     0.0000   0.0000   0.0000   0.0000   0.0000   0.0000   0.0000   0.0000
     0.0000   0.0000   0.0000   0.0000   0.0000   0.0000   0.0000   0.0000
     0.0000   0.0000   0.0000   0.0000   0.0000   0.0000

[...]
                                0.00      0.00 -16280.15

     hubbard stress (kbar)      0.00      0.00      0.00
                                0.00      0.00      0.00
                                0.00      0.00      0.00

     DFT-D   stress (kbar)      0.00      0.00      0.00
                                0.00      0.00      0.00
                                0.00      0.00      0.00

     XDM     stress (kbar)      0.00      0.00      0.00
                                0.00      0.00      0.00
                                0.00      0.00      0.00

     dft-nl  stress (kbar)     24.81     -0.00     -0.00
                               -0.00     24.81     -0.00
                               -0.00     -0.00     24.81

     TS-vdW  stress (kbar)      0.00      0.00      0.00
                                0.00      0.00      0.00
                                0.00      0.00      0.00

     MDB     stress (kbar)      0.00      0.00      0.00
                                0.00      0.00      0.00
                                0.00      0.00      0.00

     3D-RISM stress (kbar)      0.00      0.00      0.00
                                0.00      0.00      0.00
                                0.00      0.00      0.00


     BFGS Geometry Optimization
     Energy error            =      0.0E+00 Ry
     Gradient error          =      9.1E-04 Ry/Bohr

     bfgs converged in   1 scf cycles and   0 bfgs steps
     (criteria: energy <  1.0E-04 Ry, force <  1.0E-03 Ry/Bohr)

     End of BFGS Geometry Optimization

     Final energy             =   -4102.4532493459 Ry
Begin final coordinates

ATOMIC_POSITIONS (angstrom)
C             0.8930972754        2.6792058776        0.8930972754
C             0.8930972754        2.6792058776        4.4654004266
C             0.8930972754        2.6792058776        8.0377035777
C             0.8930972754        6.2515090288        0.8930972754
C             0.8930972754        6.2515090288        4.4654004266
C             0.8930972754        6.2515090288        8.0377035777
C             0.8930972754        9.8238121799        0.8930972754
C             0.8930972754        9.8238121799        4.4654004266
C             0.8930972754        9.8238121799        8.0377035777
C             4.4654004266        2.6792058776        0.8930972754
C             4.4654004266        2.6792058776        4.4654004266
C             4.4654004266        2.6792058776        8.0377035777
C             4.4654004266        6.2515090288        0.8930972754
C             4.4654004266        6.2515090288        4.4654004266
C             4.4654004266        6.2515090288        8.0377035777
C             4.4654004266        9.8238121799        0.8930972754
C             4.4654004266        9.8238121799        4.4654004266
C             4.4654004266        9.8238121799        8.0377035777
C             8.0377035777        2.6792058776        0.8930972754
C             8.0377035777        2.6792058776        4.4654004266
C             8.0377035777        2.6792058776        8.0377035777
C             8.0377035777        6.2515090288        0.8930972754
C             8.0377035777        6.2515090288        4.4654004266
C             8.0377035777        6.2515090288        8.0377035777
C             8.0377035777        9.8238121799        0.8930972754
C             8.0377035777        9.8238121799        4.4654004266
C             8.0377035777        9.8238121799        8.0377035777
C             0.0000000000        0.0000000000        1.7861515765
C             0.0000000000        0.0000000000        5.3584547277
C             0.0000000000        0.0000000000        8.9307578788
C             0.0000000000        3.5723031512        1.7861515765
C             0.0000000000        3.5723031512        5.3584547277
C             0.0000000000        3.5723031512        8.9307578788
C             0.0000000000        7.1446063023        1.7861515765
C             0.0000000000        7.1446063023        5.3584547277
C             0.0000000000        7.1446063023        8.9307578788
C             3.5723031512        0.0000000000        1.7861515765
C             3.5723031512        0.0000000000        5.3584547277
C             3.5723031512        0.0000000000        8.9307578788
C             3.5723031512        3.5723031512        1.7861515765
C             3.5723031512        3.5723031512        5.3584547277
C             3.5723031512        3.5723031512        8.9307578788
C             3.5723031512        7.1446063023        1.7861515765
C             3.5723031512        7.1446063023        5.3584547277
C             3.5723031512        7.1446063023        8.9307578788
C             7.1446063023        0.0000000000        1.7861515765
C             7.1446063023        0.0000000000        5.3584547277
C             7.1446063023        0.0000000000        8.9307578788
C             7.1446063023        3.5723031512        1.7861515765
C             7.1446063023        3.5723031512        5.3584547277
C             7.1446063023        3.5723031512        8.9307578788
C             7.1446063023        7.1446063023        1.7861515765
C             7.1446063023        7.1446063023        5.3584547277
C             7.1446063023        7.1446063023        8.9307578788
C             0.8930972754        0.8930972754        2.6792058776
C             0.8930972754        0.8930972754        6.2515090288
C             0.8930972754        0.8930972754        9.8238121799
C             0.8930972754        4.4654004266        2.6792058776
C             0.8930972754        4.4654004266        6.2515090288
C             0.8930972754        4.4654004266        9.8238121799
C             0.8930972754        8.0377035777        2.6792058776
C             0.8930972754        8.0377035777        6.2515090288
C             0.8930972754        8.0377035777        9.8238121799
C             4.4654004266        0.8930972754        2.6792058776
C             4.4654004266        0.8930972754        6.2515090288
C             4.4654004266        0.8930972754        9.8238121799
C             4.4654004266        4.4654004266        2.6792058776
C             4.4654004266        4.4654004266        6.2515090288
C             4.4654004266        4.4654004266        9.8238121799
C             4.4654004266        8.0377035777        2.6792058776
C             4.4654004266        8.0377035777        6.2515090288
C             4.4654004266        8.0377035777        9.8238121799
C             8.0377035777        0.8930972754        2.6792058776
C             8.0377035777        0.8930972754        6.2515090288
C             8.0377035777        0.8930972754        9.8238121799
C             8.0377035777        4.4654004266        2.6792058776
C             8.0377035777        4.4654004266        6.2515090288
C             8.0377035777        4.4654004266        9.8238121799
C             8.0377035777        8.0377035777        2.6792058776
C             8.0377035777        8.0377035777        6.2515090288
C             8.0377035777        8.0377035777        9.8238121799
C             0.0000000000        1.7861515765        0.0000000000
C             0.0000000000        1.7861515765        3.5723031512
C             0.0000000000        1.7861515765        7.1446063023
C             0.0000000000        5.3584547277        0.0000000000
C             0.0000000000        5.3584547277        3.5723031512
C             0.0000000000        5.3584547277        7.1446063023
C             0.0000000000        8.9307578788        0.0000000000
C             0.0000000000        8.9307578788        3.5723031512
C             0.0000000000        8.9307578788        7.1446063023
C             3.5723031512        1.7861515765        0.0000000000
C             3.5723031512        1.7861515765        3.5723031512
C             3.5723031512        1.7861515765        7.1446063023
C             3.5723031512        5.3584547277        0.0000000000
C             3.5723031512        5.3584547277        3.5723031512
C             3.5723031512        5.3584547277        7.1446063023
C             3.5723031512        8.9307578788        0.0000000000
C             3.5723031512        8.9307578788        3.5723031512
C             3.5723031512        8.9307578788        7.1446063023
C             7.1446063023        1.7861515765        0.0000000000
C             7.1446063023        1.7861515765        3.5723031512
C             7.1446063023        1.7861515765        7.1446063023
C             7.1446063023        5.3584547277        0.0000000000
C             7.1446063023        5.3584547277        3.5723031512
C             7.1446063023        5.3584547277        7.1446063023
C             7.1446063023        8.9307578788        0.0000000000
C             7.1446063023        8.9307578788        3.5723031512
C             7.1446063023        8.9307578788        7.1446063023
C             2.6792058776        2.6792058776        2.6792058776
C             2.6792058776        2.6792058776        6.2515090288
C             2.6792058776        2.6792058776        9.8238121799
C             2.6792058776        6.2515090288        2.6792058776
C             2.6792058776        6.2515090288        6.2515090288
C             2.6792058776        6.2515090288        9.8238121799
C             2.6792058776        9.8238121799        2.6792058776
C             2.6792058776        9.8238121799        6.2515090288
C             2.6792058776        9.8238121799        9.8238121799
C             6.2515090288        2.6792058776        2.6792058776
C             6.2515090288        2.6792058776        6.2515090288
C             6.2515090288        2.6792058776        9.8238121799
C             6.2515090288        6.2515090288        2.6792058776
C             6.2515090288        6.2515090288        6.2515090288
C             6.2515090288        6.2515090288        9.8238121799
C             6.2515090288        9.8238121799        2.6792058776
C             6.2515090288        9.8238121799        6.2515090288
C             6.2515090288        9.8238121799        9.8238121799
C             9.8238121799        2.6792058776        2.6792058776
C             9.8238121799        2.6792058776        6.2515090288
C             9.8238121799        2.6792058776        9.8238121799
C             9.8238121799        6.2515090288        2.6792058776
C             9.8238121799        6.2515090288        6.2515090288
C             9.8238121799        6.2515090288        9.8238121799
C             9.8238121799        9.8238121799        2.6792058776
C             9.8238121799        9.8238121799        6.2515090288
C             9.8238121799        9.8238121799        9.8238121799
C             1.7861515765        0.0000000000        0.0000000000
C             1.7861515765        0.0000000000        3.5723031512
C             1.7861515765        0.0000000000        7.1446063023
C             1.7861515765        3.5723031512        0.0000000000
C             1.7861515765        3.5723031512        3.5723031512
C             1.7861515765        3.5723031512        7.1446063023
C             1.7861515765        7.1446063023        0.0000000000
C             1.7861515765        7.1446063023        3.5723031512
C             1.7861515765        7.1446063023        7.1446063023
C             5.3584547277        0.0000000000        0.0000000000
C             5.3584547277        0.0000000000        3.5723031512
C             5.3584547277        0.0000000000        7.1446063023
C             5.3584547277        3.5723031512        0.0000000000
C             5.3584547277        3.5723031512        3.5723031512
C             5.3584547277        3.5723031512        7.1446063023
C             5.3584547277        7.1446063023        0.0000000000
C             5.3584547277        7.1446063023        3.5723031512
C             5.3584547277        7.1446063023        7.1446063023
C             8.9307578788        0.0000000000        0.0000000000
C             8.9307578788        0.0000000000        3.5723031512
C             8.9307578788        0.0000000000        7.1446063023
C             8.9307578788        3.5723031512        0.0000000000
C             8.9307578788        3.5723031512        3.5723031512
C             8.9307578788        3.5723031512        7.1446063023
C             8.9307578788        7.1446063023        0.0000000000
C             8.9307578788        7.1446063023        3.5723031512
C             8.9307578788        7.1446063023        7.1446063023
C             2.6792058776        0.8930972754        0.8930972754
C             2.6792058776        0.8930972754        4.4654004266
C             2.6792058776        0.8930972754        8.0377035777
C             2.6792058776        4.4654004266        0.8930972754
C             2.6792058776        4.4654004266        4.4654004266
C             2.6792058776        4.4654004266        8.0377035777
C             2.6792058776        8.0377035777        0.8930972754
C             2.6792058776        8.0377035777        4.4654004266
C             2.6792058776        8.0377035777        8.0377035777
C             6.2515090288        0.8930972754        0.8930972754
C             6.2515090288        0.8930972754        4.4654004266
C             6.2515090288        0.8930972754        8.0377035777
C             6.2515090288        4.4654004266        0.8930972754
C             6.2515090288        4.4654004266        4.4654004266
C             6.2515090288        4.4654004266        8.0377035777
C             6.2515090288        8.0377035777        0.8930972754
C             6.2515090288        8.0377035777        4.4654004266
C             6.2515090288        8.0377035777        8.0377035777
C             9.8238121799        0.8930972754        0.8930972754
C             9.8238121799        0.8930972754        4.4654004266
C             9.8238121799        0.8930972754        8.0377035777
C             9.8238121799        4.4654004266        0.8930972754
C             9.8238121799        4.4654004266        4.4654004266
C             9.8238121799        4.4654004266        8.0377035777
C             9.8238121799        8.0377035777        0.8930972754
C             9.8238121799        8.0377035777        4.4654004266
C             9.8238121799        8.0377035777        8.0377035777
C             1.7861515765        1.7861515765        1.7861515765
C             1.7861515765        1.7861515765        5.3584547277
C             1.7861515765        1.7861515765        8.9307578788
C             1.7861515765        5.3584547277        1.7861515765
C             1.7861515765        5.3584547277        5.3584547277
C             1.7861515765        5.3584547277        8.9307578788
C             1.7861515765        8.9307578788        1.7861515765
C             1.7861515765        8.9307578788        5.3584547277
C             1.7861515765        8.9307578788        8.9307578788
C             5.3584547277        1.7861515765        1.7861515765
C             5.3584547277        1.7861515765        5.3584547277
C             5.3584547277        1.7861515765        8.9307578788
C             5.3584547277        5.3584547277        1.7861515765
C             5.3584547277        5.3584547277        5.3584547277
C             5.3584547277        5.3584547277        8.9307578788
C             5.3584547277        8.9307578788        1.7861515765
C             5.3584547277        8.9307578788        5.3584547277
C             5.3584547277        8.9307578788        8.9307578788
C             8.9307578788        1.7861515765        1.7861515765
C             8.9307578788        1.7861515765        5.3584547277
C             8.9307578788        1.7861515765        8.9307578788
C             8.9307578788        5.3584547277        1.7861515765
C             8.9307578788        5.3584547277        5.3584547277
C             8.9307578788        5.3584547277        8.9307578788
C             8.9307578788        8.9307578788        1.7861515765
C             8.9307578788        8.9307578788        5.3584547277
C             8.9307578788        8.9307578788        8.9307578788
End final coordinates



     Writing all to output data dir ./diamond.save/
 
     init_run     :      6.05s CPU      6.43s WALL (       1 calls)
     electrons    :    516.59s CPU    526.05s WALL (       1 calls)
     forces       :      2.29s CPU      2.39s WALL (       1 calls)
     stress       :     30.12s CPU     30.45s WALL (       1 calls)

     Called by init_run:
     wfcinit      :      4.55s CPU      4.76s WALL (       1 calls)
     wfcinit:atom :      0.02s CPU      0.04s WALL (       1 calls)
     wfcinit:wfcr :      4.24s CPU      4.36s WALL (       1 calls)
     potinit      :      0.46s CPU      0.52s WALL (       1 calls)
     hinit0       :      0.50s CPU      0.56s WALL (       1 calls)

     Called by electrons:
     c_bands      :    506.87s CPU    515.98s WALL (       8 calls)
     sum_band     :      6.68s CPU      6.80s WALL (       8 calls)
     v_of_rho     :      1.87s CPU      1.96s WALL (       9 calls)
     v_h          :      0.02s CPU      0.02s WALL (       9 calls)
     v_xc         :      2.23s CPU      2.33s WALL (      11 calls)
     newd         :      0.33s CPU      0.35s WALL (       9 calls)
     PAW_pot      :      0.57s CPU      0.58s WALL (       9 calls)
     mix_rho      :      0.07s CPU      0.08s WALL (       8 calls)
     vdW_kernel   :      0.16s CPU      0.17s WALL (       1 calls)

     Called by c_bands:
     init_us_2    :      0.38s CPU      0.43s WALL (      17 calls)
     init_us_2:cp :      0.38s CPU      0.43s WALL (      17 calls)
     cegterg      :    402.56s CPU    406.71s WALL (      10 calls)

     Called by sum_band:
     sum_band:wei :      0.01s CPU      0.01s WALL (       8 calls)
     sum_band:loo :      5.61s CPU      5.71s WALL (       8 calls)
     sum_band:buf :      0.00s CPU      0.00s WALL (       8 calls)
     sum_band:ini :      0.31s CPU      0.33s WALL (       8 calls)
     sum_band:cal :      3.09s CPU      3.12s WALL (       8 calls)
     sum_band:bec :      0.08s CPU      0.08s WALL (       8 calls)
     addusdens    :      0.40s CPU      0.41s WALL (       8 calls)
     addusd:skk   :      0.09s CPU      0.09s WALL (       8 calls)
     addusd:dgemm :      0.11s CPU      0.11s WALL (       8 calls)
     addusd:qvan2 :      0.01s CPU      0.01s WALL (       8 calls)

     Called by *egterg:
     cdiaghg      :    303.39s CPU    305.13s WALL (     141 calls)
     cegterg:over :     19.17s CPU     19.72s WALL (     131 calls)
     cegterg:upda :     10.16s CPU     10.40s WALL (     131 calls)
     cegterg:last :      5.13s CPU      5.17s WALL (      12 calls)
     h_psi        :     46.81s CPU     47.84s WALL (     142 calls)
     s_psi        :     13.20s CPU     13.35s WALL (     142 calls)
     g_psi        :      0.04s CPU      0.04s WALL (     131 calls)

     Called by h_psi:
     h_psi:calbec :     15.54s CPU     15.70s WALL (     142 calls)
     vloc_psi     :     17.66s CPU     17.96s WALL (     142 calls)
     add_vuspsi   :     13.28s CPU     13.62s WALL (     142 calls)

     General routines
     calbec       :     20.59s CPU     20.80s WALL (     155 calls)
     fft          :      1.22s CPU      1.26s WALL (     734 calls)
     ffts         :      0.04s CPU      0.04s WALL (      17 calls)
     fftw         :     18.67s CPU     18.99s WALL (   39718 calls)
     interpolate  :      0.03s CPU      0.03s WALL (       9 calls)
 
     Parallel routines

     PAW routines
     PAW_pot      :      0.57s CPU      0.58s WALL (       9 calls)
     PAW_symme    :      0.07s CPU      0.07s WALL (      17 calls)
 
     PWSCF        :   9m18.67s CPU   9m32.16s WALL

 
   This run was terminated on:  11: 4:17  19Feb2024            

=------------------------------------------------------------------------------=
   JOB DONE.
=------------------------------------------------------------------------------=
