
     Program PWSCF v.7.1 starts on 27Mar2024 at 20:23:27 

     This program is part of the open-source Quantum ESPRESSO suite
     for quantum simulation of materials; please cite
         "P. Giannozzi et al., J. Phys.:Condens. Matter 21 395502 (2009);
         "P. Giannozzi et al., J. Phys.:Condens. Matter 29 465901 (2017);
         "P. Giannozzi et al., J. Chem. Phys. 152 154105 (2020);
          URL http://www.quantum-espresso.org", 
     in publications or presentations arising from this work. More details at
     http://www.quantum-espresso.org/quote

     Parallel version (MPI & OpenMP), running on      27 processor cores
     Number of MPI processes:                27
     Threads/MPI process:                     1

     MPI processes distributed on     1 nodes
     1973100 MiB available memory on the printing compute node when the environment starts
 
     Reading input from espresso.pwi
Warning: card &CELL ignored
Warning: card    CELL_DYNAMICS    = 'BFGS' ignored
Warning: card / ignored

     Current dimensions of program PWSCF are:
     Max number of different atomic species (ntypx) = 10
     Max number of k-points (npk) =  40000
     Max angular momentum in pseudopotentials (lmaxx) =  4
     file Ga.pbe-dn-kjpaw_psl.1.0.0.UPF: wavefunction(s)  4S renormalized
     file N.pbe-n-kjpaw_psl.1.0.0.UPF: wavefunction(s)  2S renormalized

     **************************************************************************
     Initializing libbeef V0.1.2 with the BEEF-vdW functional.
     Citation: Wellendorff et al., PRB 85, 235149 (2012).
     **************************************************************************


     IMPORTANT: XC functional enforced from input :
     Exchange-correlation= BEEF-VDW
                           (   1   4  43  14   2   0   0)
     Any further DFT definition will be discarded
     Please, verify this is what you really want

 
     R & G space division:  proc/nbgrp/npool/nimage =      27
     Subspace diagonalization in iterative solution of the eigenvalue problem:
     a serial algorithm will be used

 
     Parallelization info
     --------------------
     sticks:   dense  smooth     PW     G-vecs:    dense   smooth      PW
     Min         134     107     28                10662     7629    1068
     Max         135     108     29                10667     7636    1077
     Sum        3643    2905    769               287969   206075   28939
 
     Using Slab Decomposition
 


     bravais-lattice index     =            4
     lattice parameter (alat)  =      12.2626  a.u.
     unit-cell volume          =    2602.7676 (a.u.)^3
     number of atoms/cell      =           32
     number of atomic types    =            2
     number of electrons       =       295.00
     number of Kohn-Sham states=          178
     kinetic-energy cutoff     =      70.0000  Ry
     charge density cutoff     =     350.0000  Ry
     scf convergence threshold =      1.0E-07
     mixing beta               =       0.7000
     number of iterations used =            8  plain     mixing
     energy convergence thresh.=      1.0E-04
     force convergence thresh. =      1.0E-03
     Exchange-correlation= BEEF-VDW
                           (   1   4  43  14   2   0   0)
     nstep                     =           50


     celldm(1)=  12.262616  celldm(2)=   0.000000  celldm(3)=   1.629879
     celldm(4)=   0.000000  celldm(5)=   0.000000  celldm(6)=   0.000000

     crystal axes: (cart. coord. in units of alat)
               a(1) = (   1.000000   0.000000   0.000000 )  
               a(2) = (  -0.500000   0.866025   0.000000 )  
               a(3) = (   0.000000   0.000000   1.629879 )  

     reciprocal axes: (cart. coord. in units 2 pi/alat)
               b(1) = (  1.000000  0.577350 -0.000000 )  
               b(2) = (  0.000000  1.154701  0.000000 )  
               b(3) = (  0.000000 -0.000000  0.613542 )  


     PseudoPot. # 1 for Ga read from file:
     /trace/group/acmegroup/atimmins/packages/espresso/pseudo/psl_1.0.0/pslibrary.1.0.0/pbe/PSEUDOPOTENTIALS/Ga.pbe-dn-kjpaw_psl.1.0.0.UPF
     MD5 check sum: cd2a01e492f15b435d17032472d8505c
     Pseudo is Projector augmented-wave + core cor, Zval = 13.0
     Generated using 'atomic' code by A. Dal Corso  v.7.1
     Shape of augmentation charge: PSQ
     Using radial grid of 1205 points,  6 beta functions with: 
                l(1) =   0
                l(2) =   0
                l(3) =   1
                l(4) =   1
                l(5) =   2
                l(6) =   2
     Q(r) pseudized with 0 coefficients 


     PseudoPot. # 2 for N  read from file:
     /trace/group/acmegroup/atimmins/packages/espresso/pseudo/psl_1.0.0/pslibrary.1.0.0/pbe/PSEUDOPOTENTIALS/N.pbe-n-kjpaw_psl.1.0.0.UPF
     MD5 check sum: f77f775694dac7e2c3fe1c82443d1a16
     Pseudo is Projector augmented-wave + core cor, Zval =  5.0
     Generated using 'atomic' code by A. Dal Corso  v.7.1
     Shape of augmentation charge: PSQ
     Using radial grid of 1085 points,  4 beta functions with: 
                l(1) =   0
                l(2) =   0
                l(3) =   1
                l(4) =   1
     Q(r) pseudized with 0 coefficients 


     atomic species   valence    mass     pseudopotential
        Ga            13.00    69.72300     Ga( 1.00)
        N              5.00    14.00700     N ( 1.00)

      6 Sym. Ops. (no inversion) found ( 4 have fractional translation)


                                    s                        frac. trans.

      isym =  1     identity                                     

 cryst.   s( 1) = (     1          0          0      )
                  (     0          1          0      )
                  (     0          0          1      )

 cart.    s( 1) = (  1.0000000  0.0000000  0.0000000 )
                  (  0.0000000  1.0000000  0.0000000 )
                  (  0.0000000  0.0000000  1.0000000 )


      isym =  2     120 deg rotation - cryst. axis [0,0,1]       

 cryst.   s( 2) = (     0          1          0      )    f =(  0.4999999 )
                  (    -1         -1          0      )       (  0.0000004 )
                  (     0          0          1      )       (  0.0000000 )

 cart.    s( 2) = ( -0.5000000 -0.8660254  0.0000000 )    f =(  0.4999998 )
                  (  0.8660254 -0.5000000  0.0000000 )       (  0.0000003 )
                  (  0.0000000  0.0000000  1.0000000 )       (  0.0000000 )


      isym =  3     120 deg rotation - cryst. axis [0,0,-1]      

 cryst.   s( 3) = (    -1         -1          0      )    f =(  0.4999996 )
                  (     1          0          0      )       (  0.4999999 )
                  (     0          0          1      )       (  0.0000000 )

 cart.    s( 3) = ( -0.5000000  0.8660254  0.0000000 )    f =(  0.2499996 )
                  ( -0.8660254 -0.5000000  0.0000000 )       (  0.4330127 )
                  (  0.0000000  0.0000000  1.0000000 )       (  0.0000000 )


      isym =  4     inv. 180 deg rotation - cart. axis [1,0,0]   

 cryst.   s( 4) = (    -1          0          0      )    f =(  0.4999996 )
                  (     1          1          0      )       (  0.0000000 )
                  (     0          0          1      )       (  0.0000000 )

 cart.    s( 4) = ( -1.0000000  0.0000000  0.0000000 )    f =(  0.4999996 )
                  (  0.0000000  1.0000000  0.0000000 )       (  0.0000000 )
                  (  0.0000000  0.0000000  1.0000000 )       (  0.0000000 )


      isym =  5     inv. 180 deg rotation - cryst. axis [0,1,0]  

 cryst.   s( 5) = (     1          1          0      )
                  (     0         -1          0      )
                  (     0          0          1      )

 cart.    s( 5) = (  0.5000000  0.8660254  0.0000000 )
                  (  0.8660254 -0.5000000  0.0000000 )
                  (  0.0000000  0.0000000  1.0000000 )


      isym =  6     inv. 180 deg rotation - cryst. axis [1,1,0]  

 cryst.   s( 6) = (     0         -1          0      )    f =(  0.4999999 )
                  (    -1          0          0      )       (  0.4999999 )
                  (     0          0          1      )       (  0.0000000 )

 cart.    s( 6) = (  0.5000000 -0.8660254  0.0000000 )    f =(  0.2500000 )
                  ( -0.8660254 -0.5000000  0.0000000 )       (  0.4330127 )
                  (  0.0000000  0.0000000  1.0000000 )       (  0.0000000 )


     point group C_3v (3m)  
     there are  3 classes
     the character table:

       E     2C3   3s_v 
A_1    1.00  1.00  1.00
A_2    1.00  1.00 -1.00
E      2.00 -1.00  0.00

     the symmetry operations in each class and the name of the first element:

     E        1
          identity                                               
     2C3      2    3
          120 deg rotation - cryst. axis [0,0,1]                 
     3s_v     4    5    6
          inv. 180 deg rotation - cart. axis [1,0,0]             

   Cartesian axes

     site n.     atom                  positions (alat units)
         1           Ga  tau(   1) = (   0.2500002   0.1443375   0.4067871  )
         2           Ga  tau(   2) = (   0.2500002   0.1443375   1.2217266  )
         3           Ga  tau(   3) = (   0.0000002   0.5773502   0.4067871  )
         4           Ga  tau(   4) = (   0.0000002   0.5773502   1.2217266  )
         5           Ga  tau(   5) = (   0.7500002   0.1443375   0.4067871  )
         6           Ga  tau(   6) = (   0.7500002   0.1443375   1.2217266  )
         7           Ga  tau(   7) = (   0.5000002   0.5773502   0.4067871  )
         8           Ga  tau(   8) = (   0.5000002   0.5773502   1.2217266  )
         9           Ga  tau(   9) = (  -0.0000003   0.2886754   0.8142568  )
        10           Ga  tau(  10) = (  -0.0000003   0.2886754   1.6291964  )
        11           Ga  tau(  11) = (  -0.2500003   0.7216881   0.8142568  )
        12           Ga  tau(  12) = (  -0.2500003   0.7216881   1.6291964  )
        13           Ga  tau(  13) = (   0.4999997   0.2886754   0.8142568  )
        14           Ga  tau(  14) = (   0.4999997   0.2886754   1.6291964  )
        15           Ga  tau(  15) = (   0.2499997   0.7216881   0.8142568  )
        16           Ga  tau(  16) = (   0.2499997   0.7216881   1.6291964  )
        17           N   tau(  17) = (   0.2500002   0.1443375   1.5286943  )
        18           N   tau(  18) = (   0.0000002   0.5773502   0.7137548  )
        19           N   tau(  19) = (   0.0000002   0.5773502   1.5286943  )
        20           N   tau(  20) = (   0.7500002   0.1443375   0.7137548  )
        21           N   tau(  21) = (   0.7500002   0.1443375   1.5286943  )
        22           N   tau(  22) = (   0.5000002   0.5773502   0.7137548  )
        23           N   tau(  23) = (   0.5000002   0.5773502   1.5286943  )
        24           N   tau(  24) = (  -0.0000003   0.2886754   0.3062850  )
        25           N   tau(  25) = (  -0.0000003   0.2886754   1.1212245  )
        26           N   tau(  26) = (  -0.2500003   0.7216881   0.3062850  )
        27           N   tau(  27) = (  -0.2500003   0.7216881   1.1212245  )
        28           N   tau(  28) = (   0.4999997   0.2886754   0.3062850  )
        29           N   tau(  29) = (   0.4999997   0.2886754   1.1212245  )
        30           N   tau(  30) = (   0.2499997   0.7216881   0.3062850  )
        31           N   tau(  31) = (   0.2499997   0.7216881   1.1212245  )
        32           Ga  tau(  32) = (   0.2500002   0.1443375   0.7137548  )

   Crystallographic axes

     site n.     atom                  positions (cryst. coord.)
         1           Ga  tau(   1) = (  0.3333335  0.1666666  0.2495811  )
         2           Ga  tau(   2) = (  0.3333335  0.1666666  0.7495811  )
         3           Ga  tau(   3) = (  0.3333335  0.6666666  0.2495811  )
         4           Ga  tau(   4) = (  0.3333335  0.6666666  0.7495811  )
         5           Ga  tau(   5) = (  0.8333335  0.1666666  0.2495811  )
         6           Ga  tau(   6) = (  0.8333335  0.1666666  0.7495811  )
         7           Ga  tau(   7) = (  0.8333335  0.6666666  0.2495811  )
         8           Ga  tau(   8) = (  0.8333335  0.6666666  0.7495811  )
         9           Ga  tau(   9) = (  0.1666665  0.3333336  0.4995811  )
        10           Ga  tau(  10) = (  0.1666665  0.3333336  0.9995811  )
        11           Ga  tau(  11) = (  0.1666665  0.8333336  0.4995811  )
        12           Ga  tau(  12) = (  0.1666665  0.8333336  0.9995811  )
        13           Ga  tau(  13) = (  0.6666665  0.3333336  0.4995811  )
        14           Ga  tau(  14) = (  0.6666665  0.3333336  0.9995811  )
        15           Ga  tau(  15) = (  0.6666665  0.8333336  0.4995811  )
        16           Ga  tau(  16) = (  0.6666665  0.8333336  0.9995811  )
        17           N   tau(  17) = (  0.3333335  0.1666666  0.9379189  )
        18           N   tau(  18) = (  0.3333335  0.6666666  0.4379189  )
        19           N   tau(  19) = (  0.3333335  0.6666666  0.9379189  )
        20           N   tau(  20) = (  0.8333335  0.1666666  0.4379189  )
        21           N   tau(  21) = (  0.8333335  0.1666666  0.9379189  )
        22           N   tau(  22) = (  0.8333335  0.6666666  0.4379189  )
        23           N   tau(  23) = (  0.8333335  0.6666666  0.9379189  )
        24           N   tau(  24) = (  0.1666665  0.3333336  0.1879189  )
        25           N   tau(  25) = (  0.1666665  0.3333336  0.6879189  )
        26           N   tau(  26) = (  0.1666665  0.8333336  0.1879189  )
        27           N   tau(  27) = (  0.1666665  0.8333336  0.6879189  )
        28           N   tau(  28) = (  0.6666665  0.3333336  0.1879189  )
        29           N   tau(  29) = (  0.6666665  0.3333336  0.6879189  )
        30           N   tau(  30) = (  0.6666665  0.8333336  0.1879189  )
        31           N   tau(  31) = (  0.6666665  0.8333336  0.6879189  )
        32           Ga  tau(  32) = (  0.3333335  0.1666666  0.4379189  )

     number of k points=     8  Gaussian smearing, width (Ry)=  0.0100
                       cart. coord. in units 2pi/alat
        k(    1) = (   0.0000000   0.0000000   0.0000000), wk =   0.0625000
        k(    2) = (   0.0000000   0.0000000  -0.3067712), wk =   0.0625000
        k(    3) = (   0.0000000   0.2886751   0.0000000), wk =   0.3750000
        k(    4) = (   0.0000000   0.2886751  -0.3067712), wk =   0.3750000
        k(    5) = (   0.0000000  -0.5773503   0.0000000), wk =   0.1875000
        k(    6) = (   0.0000000  -0.5773503  -0.3067712), wk =   0.1875000
        k(    7) = (   0.2500000   0.4330127   0.0000000), wk =   0.3750000
        k(    8) = (   0.2500000   0.4330127  -0.3067712), wk =   0.3750000

                       cryst. coord.
        k(    1) = (   0.0000000   0.0000000   0.0000000), wk =   0.0625000
        k(    2) = (   0.0000000   0.0000000  -0.5000000), wk =   0.0625000
        k(    3) = (   0.0000000   0.2500000   0.0000000), wk =   0.3750000
        k(    4) = (   0.0000000   0.2500000  -0.5000000), wk =   0.3750000
        k(    5) = (   0.0000000  -0.5000000   0.0000000), wk =   0.1875000
        k(    6) = (   0.0000000  -0.5000000  -0.5000000), wk =   0.1875000
        k(    7) = (   0.2500000   0.2500000   0.0000000), wk =   0.3750000
        k(    8) = (   0.2500000   0.2500000  -0.5000000), wk =   0.3750000

     Dense  grid:   287969 G-vectors     FFT dimensions: (  80,  80, 120)

     Smooth grid:   206075 G-vectors     FFT dimensions: (  72,  72, 108)

     Dynamical RAM for                 wfc:       2.59 MB

     Dynamical RAM for     wfc (w. buffer):      23.30 MB

     Dynamical RAM for           str. fact:       0.33 MB

     Dynamical RAM for           local pot:       0.00 MB

     Dynamical RAM for          nlocal pot:       6.19 MB

     Dynamical RAM for                qrad:       3.00 MB

     Dynamical RAM for          rho,v,vnew:       1.22 MB

     Dynamical RAM for               rhoin:       0.41 MB

     Dynamical RAM for            rho*nmix:       2.60 MB

     Dynamical RAM for           G-vectors:       0.67 MB

     Dynamical RAM for          h,s,v(r/c):      23.21 MB

     Dynamical RAM for          <psi|beta>:       1.16 MB

     Dynamical RAM for                 psi:      10.35 MB

     Dynamical RAM for                hpsi:      10.35 MB

     Dynamical RAM for                spsi:      10.35 MB

     Dynamical RAM for      wfcinit/wfcrot:       7.23 MB

     Dynamical RAM for           addusdens:      33.04 MB

     Dynamical RAM for          addusforce:      38.40 MB

     Dynamical RAM for         addusstress:      32.72 MB

     Estimated static dynamical RAM per process >      36.82 MB

     Estimated max dynamical RAM per process >      94.85 MB

     Estimated total dynamical RAM >       2.50 GB

     Check: negative core charge=   -0.000003

     Initial potential from superposition of free atoms

     starting charge     295.9497, renormalised to     295.0000


     %%%%%%%%%%%%%%%%%%%%%%%%%%%%%%%%%%%%%%%%%%%%%%%%%%%%%%%%%%%%%%%%%%%%%%%%
     %                                                                      %
     % You are using vdW-DF, which was implemented by the Thonhauser group. %
     % Please cite the following two papers that made this development      %
     % possible and the two reviews that describe the various versions:     %
     %                                                                      %
     %   T. Thonhauser et al., PRL 115, 136402 (2015).                      %
     %   T. Thonhauser et al., PRB 76, 125112 (2007).                       %
     %   K. Berland et al., Rep. Prog. Phys. 78, 066501 (2015).             %
     %   D.C. Langreth et al., J. Phys.: Condens. Matter 21, 084203 (2009). %
     %                                                                      %
     % If you are calculating stress with vdW-DF, please also cite:         %
     %                                                                      %
     %   R. Sabatini et al., J. Phys.: Condens. Matter 24, 424209 (2012).   %
     %                                                                      %
     %%%%%%%%%%%%%%%%%%%%%%%%%%%%%%%%%%%%%%%%%%%%%%%%%%%%%%%%%%%%%%%%%%%%%%%%

     %%%%%%%%%%%%%%%%%%%%%%%%%%%%%%%%%%%%%%%%%%%%%%%%%%%%%%%%%%%%%%%%%%%%%%%%
     %                                                                      %
     %  vdW-DF NEWS:                                                        %
     %                                                                      %
     %  * vdW-DF3 is now available. DOI: 10.1021/acs.jctc.0c00471           %
     %    use with input_dft = 'vdW-DF3-opt1' or 'vdW-DF3-opt2'             %
     %                                                                      %
     %  * Unscreened and range-separated vdW-DF hybrid functionals          %
     %    DOI: 10.1063/1.4986522 and 10.1088/1361-648X/ac2ad2               %
     %    use with input_dft = 'vdW-DF-cx0' (etc) and 'vdW-DF-ahcx'         %
     %                                                                      %
     %%%%%%%%%%%%%%%%%%%%%%%%%%%%%%%%%%%%%%%%%%%%%%%%%%%%%%%%%%%%%%%%%%%%%%%%


     Carrying out vdW-DF run using the following parameters:
     Nqs    =  20  Npoints =  1024  r_max =  100.000
     q_mesh =  0.00001000  0.04494208  0.09755937  0.15916263
               0.23128650  0.31572767  0.41458969  0.53033537
               0.66584808  0.82450364  1.01025438  1.22772762
               1.48234092  1.78043706  2.12944203  2.53805004
               3.01644009  3.57652955  4.23227104  5.00000000


     -----------------------------------------------
     Non-local corr. energy    =       8.63491800 Ry
     -----------------------------------------------

     Starting wfcs are  213 randomized atomic wfcs
     Checking if some PAW data can be deallocated... 
       PAW data deallocated on   15 nodes for type:  1
       PAW data deallocated on   12 nodes for type:  2

     total cpu time spent up to now is        4.3 secs

     Self-consistent Calculation

     iteration #  1     ecut=    70.00 Ry     beta= 0.70
     Davidson diagonalization with overlap

---- Real-time Memory Report at c_bands before calling an iterative solver
           250 MiB given to the printing process from OS
             0 MiB allocation reported by mallinfo(arena+hblkhd)
       1971212 MiB available memory on the node where the printing process lives
------------------
     ethr =  1.00E-02,  avg # of iterations =  4.8


     -----------------------------------------------
     Non-local corr. energy    =       9.00768741 Ry
     -----------------------------------------------


     total cpu time spent up to now is       12.8 secs

     total energy              =   -5244.92168140 Ry
     estimated scf accuracy    <       9.64516840 Ry

     iteration #  2     ecut=    70.00 Ry     beta= 0.70
     Davidson diagonalization with overlap

---- Real-time Memory Report at c_bands before calling an iterative solver
           283 MiB given to the printing process from OS
             0 MiB allocation reported by mallinfo(arena+hblkhd)
       1970401 MiB available memory on the node where the printing process lives
------------------
     ethr =  3.27E-03,  avg # of iterations =  6.4


     -----------------------------------------------
     Non-local corr. energy    =       8.95885175 Ry
     -----------------------------------------------


     total cpu time spent up to now is       28.1 secs

     total energy              =   -5246.93856302 Ry
     estimated scf accuracy    <      20.39923312 Ry

     iteration #  3     ecut=    70.00 Ry     beta= 0.70
     Davidson diagonalization with overlap

---- Real-time Memory Report at c_bands before calling an iterative solver
           304 MiB given to the printing process from OS
             0 MiB allocation reported by mallinfo(arena+hblkhd)
       1970288 MiB available memory on the node where the printing process lives
------------------
     ethr =  3.27E-03,  avg # of iterations =  8.0


     -----------------------------------------------
     Non-local corr. energy    =       8.97273926 Ry
     -----------------------------------------------


     total cpu time spent up to now is       42.0 secs

     total energy              =   -5249.61879643 Ry
     estimated scf accuracy    <      10.29125944 Ry

     iteration #  4     ecut=    70.00 Ry     beta= 0.70
     Davidson diagonalization with overlap

---- Real-time Memory Report at c_bands before calling an iterative solver
           304 MiB given to the printing process from OS
             0 MiB allocation reported by mallinfo(arena+hblkhd)
       1970272 MiB available memory on the node where the printing process lives
------------------
     ethr =  3.27E-03,  avg # of iterations =  7.4


     -----------------------------------------------
     Non-local corr. energy    =       9.03298661 Ry
     -----------------------------------------------


     total cpu time spent up to now is       53.6 secs

     total energy              =   -5250.95173415 Ry
     estimated scf accuracy    <       0.20560878 Ry

     iteration #  5     ecut=    70.00 Ry     beta= 0.70
     Davidson diagonalization with overlap

---- Real-time Memory Report at c_bands before calling an iterative solver
           304 MiB given to the printing process from OS
             0 MiB allocation reported by mallinfo(arena+hblkhd)
       1970309 MiB available memory on the node where the printing process lives
------------------
     ethr =  6.97E-05,  avg # of iterations =  7.6


     -----------------------------------------------
     Non-local corr. energy    =       9.08317294 Ry
     -----------------------------------------------


     total cpu time spent up to now is       71.0 secs

     total energy              =   -5250.99631152 Ry
     estimated scf accuracy    <       0.15409325 Ry

     iteration #  6     ecut=    70.00 Ry     beta= 0.70
     Davidson diagonalization with overlap

---- Real-time Memory Report at c_bands before calling an iterative solver
           304 MiB given to the printing process from OS
             0 MiB allocation reported by mallinfo(arena+hblkhd)
       1970290 MiB available memory on the node where the printing process lives
------------------
     ethr =  5.22E-05,  avg # of iterations =  9.8


     -----------------------------------------------
     Non-local corr. energy    =       9.08589817 Ry
     -----------------------------------------------


     total cpu time spent up to now is       86.0 secs

     total energy              =   -5251.01304670 Ry
     estimated scf accuracy    <       0.12948232 Ry

     iteration #  7     ecut=    70.00 Ry     beta= 0.70
     Davidson diagonalization with overlap

---- Real-time Memory Report at c_bands before calling an iterative solver
           304 MiB given to the printing process from OS
             0 MiB allocation reported by mallinfo(arena+hblkhd)
       1970282 MiB available memory on the node where the printing process lives
------------------
     ethr =  4.39E-05,  avg # of iterations =  9.8


     -----------------------------------------------
     Non-local corr. energy    =       9.08225967 Ry
     -----------------------------------------------


     total cpu time spent up to now is      100.3 secs

     total energy              =   -5251.03074373 Ry
     estimated scf accuracy    <       0.01820699 Ry

     iteration #  8     ecut=    70.00 Ry     beta= 0.70
     Davidson diagonalization with overlap

---- Real-time Memory Report at c_bands before calling an iterative solver
           306 MiB given to the printing process from OS
             0 MiB allocation reported by mallinfo(arena+hblkhd)
       1970238 MiB available memory on the node where the printing process lives
------------------
     ethr =  6.17E-06,  avg # of iterations = 11.3


     -----------------------------------------------
     Non-local corr. energy    =       9.08247045 Ry
     -----------------------------------------------


     total cpu time spent up to now is      116.9 secs

     total energy              =   -5251.03391622 Ry
     estimated scf accuracy    <       0.00626610 Ry

     iteration #  9     ecut=    70.00 Ry     beta= 0.70
     Davidson diagonalization with overlap

---- Real-time Memory Report at c_bands before calling an iterative solver
           306 MiB given to the printing process from OS
             0 MiB allocation reported by mallinfo(arena+hblkhd)
       1970232 MiB available memory on the node where the printing process lives
------------------
     ethr =  2.12E-06,  avg # of iterations =  9.8


     -----------------------------------------------
     Non-local corr. energy    =       9.08534782 Ry
     -----------------------------------------------


     total cpu time spent up to now is      131.2 secs

     total energy              =   -5251.03517183 Ry
     estimated scf accuracy    <       0.00046358 Ry

     iteration # 10     ecut=    70.00 Ry     beta= 0.70
     Davidson diagonalization with overlap

---- Real-time Memory Report at c_bands before calling an iterative solver
           307 MiB given to the printing process from OS
             0 MiB allocation reported by mallinfo(arena+hblkhd)
       1970229 MiB available memory on the node where the printing process lives
------------------
     ethr =  1.57E-07,  avg # of iterations =  4.9


     -----------------------------------------------
     Non-local corr. energy    =       9.08559743 Ry
     -----------------------------------------------


     total cpu time spent up to now is      144.7 secs

     total energy              =   -5251.03551005 Ry
     estimated scf accuracy    <       0.00028898 Ry

     iteration # 11     ecut=    70.00 Ry     beta= 0.70
     Davidson diagonalization with overlap

---- Real-time Memory Report at c_bands before calling an iterative solver
           309 MiB given to the printing process from OS
             0 MiB allocation reported by mallinfo(arena+hblkhd)
       1970250 MiB available memory on the node where the printing process lives
------------------
     ethr =  9.80E-08,  avg # of iterations =  5.8


     -----------------------------------------------
     Non-local corr. energy    =       9.08838594 Ry
     -----------------------------------------------


     total cpu time spent up to now is      153.0 secs

     total energy              =   -5251.03545933 Ry
     estimated scf accuracy    <       0.00018339 Ry

     iteration # 12     ecut=    70.00 Ry     beta= 0.70
     Davidson diagonalization with overlap

---- Real-time Memory Report at c_bands before calling an iterative solver
           309 MiB given to the printing process from OS
             0 MiB allocation reported by mallinfo(arena+hblkhd)
       1970208 MiB available memory on the node where the printing process lives
------------------
     ethr =  6.22E-08,  avg # of iterations =  7.9


     -----------------------------------------------
     Non-local corr. energy    =       9.08843996 Ry
     -----------------------------------------------


     total cpu time spent up to now is      165.6 secs

     total energy              =   -5251.03547844 Ry
     estimated scf accuracy    <       0.00005312 Ry

     iteration # 13     ecut=    70.00 Ry     beta= 0.70
     Davidson diagonalization with overlap

---- Real-time Memory Report at c_bands before calling an iterative solver
           309 MiB given to the printing process from OS
             0 MiB allocation reported by mallinfo(arena+hblkhd)
       1970285 MiB available memory on the node where the printing process lives
------------------
     ethr =  1.80E-08,  avg # of iterations =  7.1


     -----------------------------------------------
     Non-local corr. energy    =       9.08765759 Ry
     -----------------------------------------------


     total cpu time spent up to now is      180.1 secs

     total energy              =   -5251.03549275 Ry
     estimated scf accuracy    <       0.00002129 Ry

     iteration # 14     ecut=    70.00 Ry     beta= 0.70
     Davidson diagonalization with overlap

---- Real-time Memory Report at c_bands before calling an iterative solver
           309 MiB given to the printing process from OS
             0 MiB allocation reported by mallinfo(arena+hblkhd)
       1970284 MiB available memory on the node where the printing process lives
------------------
     ethr =  7.22E-09,  avg # of iterations =  5.6


     -----------------------------------------------
     Non-local corr. energy    =       9.08748435 Ry
     -----------------------------------------------


     total cpu time spent up to now is      189.2 secs

     total energy              =   -5251.03549289 Ry
     estimated scf accuracy    <       0.00000636 Ry

     iteration # 15     ecut=    70.00 Ry     beta= 0.70
     Davidson diagonalization with overlap

---- Real-time Memory Report at c_bands before calling an iterative solver
           309 MiB given to the printing process from OS
             0 MiB allocation reported by mallinfo(arena+hblkhd)
       1970296 MiB available memory on the node where the printing process lives
------------------
     ethr =  2.15E-09,  avg # of iterations =  6.4


     -----------------------------------------------
     Non-local corr. energy    =       9.08752988 Ry
     -----------------------------------------------


     total cpu time spent up to now is      202.8 secs

     total energy              =   -5251.03549488 Ry
     estimated scf accuracy    <       0.00000066 Ry

     iteration # 16     ecut=    70.00 Ry     beta= 0.70
     Davidson diagonalization with overlap

---- Real-time Memory Report at c_bands before calling an iterative solver
           315 MiB given to the printing process from OS
             0 MiB allocation reported by mallinfo(arena+hblkhd)
       1970234 MiB available memory on the node where the printing process lives
------------------
     ethr =  2.23E-10,  avg # of iterations =  7.9


     -----------------------------------------------
     Non-local corr. energy    =       9.08760870 Ry
     -----------------------------------------------


     total cpu time spent up to now is      216.2 secs

     End of self-consistent calculation

          k = 0.0000 0.0000 0.0000 ( 25781 PWs)   bands (ev):

    -7.1566  -7.1428  -7.1428  -6.8398  -6.8398  -6.5109  -6.2651  -6.2136
    -6.2135  -6.1533  -6.0866  -6.0865  -6.0144  -6.0144  -5.9573  -5.8822
    -5.8567  -5.7867  -5.7779  -5.7779  -5.7303  -5.4344  -5.4344  -5.4242
    -5.2668  -5.2524  -5.2524  -5.1887  -5.1533  -5.1533  -5.0979  -5.0979
    -5.0699  -5.0699  -5.0209  -4.9943  -4.9943  -4.9153  -4.9153  -4.9055
    -4.7952  -4.7719  -4.7719  -4.7552  -4.7552  -4.7505  -4.7505  -4.7276
    -4.7253  -4.7253  -4.7173  -4.6978  -4.6978  -4.6801  -4.6673  -4.6673
    -4.6610  -4.6610  -4.6502  -4.6449  -4.6449  -4.6314  -4.6314  -4.6272
    -4.6048  -4.6048  -4.5695  -4.5660  -4.5660  -4.5539  -4.5504  -4.5481
    -4.5481  -4.5374  -4.5374  -4.5208  -4.5208  -4.5109  -4.4952  -4.4952
    -4.4909  -4.4497  -4.4497  -4.4271  -4.3954  -4.3954  -4.3893  -4.3334
    -3.3126  -3.3126  -3.1700  -3.0047  -3.0047  -3.0027  -2.9845  -2.9845
    -2.8899  -2.6152  -2.6152  -2.6054   0.5678   2.4538   2.6911   2.6911
     2.7748   2.8002   2.8838   2.8838   3.0508   3.0508   3.2083   4.0582
     4.0583   4.1936   5.1658   5.1658   5.3134   5.5153   5.7937   6.4831
     6.6816   6.6816   7.0551   7.0552   7.2587   7.2814   7.2814   7.2973
     7.3000   7.3033   7.3033   7.3924   7.3924   7.4991   7.5816   7.5816
     8.1378   8.1378   8.1769   8.2391   8.4603   8.4603   8.6390   8.6390
     9.0932   9.0933   9.6784  10.4024  10.4025  11.0737  13.0429  13.1970
    13.2475  13.3402  13.3402  13.4262  13.4262  13.6392  14.1458  14.2143
    14.2144  14.2841  14.5604  14.5605  15.2231  15.2231  15.6674  16.5862
    16.6047  16.6048  16.6707  16.8623  16.8623  17.0560  17.3825  17.6960
    17.7141  17.7141

     occupation numbers 
     1.0000   1.0000   1.0000   1.0000   1.0000   1.0000   1.0000   1.0000
     1.0000   1.0000   1.0000   1.0000   1.0000   1.0000   1.0000   1.0000
     1.0000   1.0000   1.0000   1.0000   1.0000   1.0000   1.0000   1.0000
     1.0000   1.0000   1.0000   1.0000   1.0000   1.0000   1.0000   1.0000
     1.0000   1.0000   1.0000   1.0000   1.0000   1.0000   1.0000   1.0000
     1.0000   1.0000   1.0000   1.0000   1.0000   1.0000   1.0000   1.0000
     1.0000   1.0000   1.0000   1.0000   1.0000   1.0000   1.0000   1.0000
     1.0000   1.0000   1.0000   1.0000   1.0000   1.0000   1.0000   1.0000
     1.0000   1.0000   1.0000   1.0000   1.0000   1.0000   1.0000   1.0000
     1.0000   1.0000   1.0000   1.0000   1.0000   1.0000   1.0000   1.0000
     1.0000   1.0000   1.0000   1.0000   1.0000   1.0000   1.0000   1.0000
     1.0000   1.0000   1.0000   1.0000   1.0000   1.0000   1.0000   1.0000
     1.0000   1.0000   1.0000   1.0000   1.0000   1.0000   1.0000   1.0000
     1.0000   1.0000   1.0000   1.0000   1.0000   1.0000   1.0000   1.0000
     1.0000   1.0000   1.0000   1.0000   1.0000   1.0000   1.0000   1.0000
     1.0000   1.0000   1.0000   1.0000   1.0000   1.0000   1.0000   1.0000
     1.0000   1.0000   1.0000   1.0000   1.0000   1.0000   1.0000   1.0000
     1.0000   1.0000   1.0000   1.0000   1.0000   1.0000   1.0000   1.0000
     1.0000   1.0000   0.0392   0.0000   0.0000   0.0000   0.0000   0.0000
     0.0000   0.0000   0.0000   0.0000   0.0000   0.0000   0.0000   0.0000
     0.0000   0.0000   0.0000   0.0000   0.0000   0.0000   0.0000   0.0000
     0.0000   0.0000   0.0000   0.0000   0.0000   0.0000   0.0000   0.0000
     0.0000   0.0000

          k = 0.0000 0.0000-0.3068 ( 25758 PWs)   bands (ev):

    -7.1564  -7.1428  -7.1428  -6.8398  -6.8398  -6.4604  -6.3089  -6.2121
    -6.2121  -6.1793  -6.0770  -6.0770  -6.0262  -6.0262  -5.9385  -5.8802
    -5.8657  -5.7837  -5.7784  -5.7784  -5.7370  -5.4339  -5.4339  -5.4252
    -5.2668  -5.2529  -5.2529  -5.1886  -5.1537  -5.1537  -5.0970  -5.0970
    -5.0680  -5.0680  -5.0211  -4.9956  -4.9956  -4.9143  -4.9143  -4.9060
    -4.7840  -4.7715  -4.7715  -4.7550  -4.7550  -4.7483  -4.7483  -4.7269
    -4.7213  -4.7213  -4.7194  -4.6983  -4.6983  -4.6942  -4.6708  -4.6708
    -4.6688  -4.6646  -4.6646  -4.6489  -4.6489  -4.6471  -4.6358  -4.6358
    -4.6242  -4.6020  -4.6020  -4.5686  -4.5643  -4.5643  -4.5553  -4.5479
    -4.5474  -4.5474  -4.5340  -4.5340  -4.5209  -4.5209  -4.5067  -4.4958
    -4.4958  -4.4912  -4.4498  -4.4498  -4.4272  -4.3954  -4.3954  -3.6839
    -3.5391  -3.3018  -3.3018  -3.1068  -3.1068  -3.0336  -2.8941  -2.8659
    -2.8659  -2.6395  -2.6395  -2.6027   0.5308   2.6025   2.6025   2.6674
     2.7658   2.8279   2.8279   3.3227   3.4601   3.4601   3.4633   3.5882
     3.5944   3.5945   3.9561   5.9334   5.9335   6.0810   6.0810   6.2476
     6.3242   6.5853   6.8601   6.8780   6.8780   6.9118   6.9119   7.4734
     7.4734   7.5704   7.6285   7.6286   7.6607   7.7638   7.9359   7.9359
     7.9544   8.0047   8.0206   8.0206   8.3880   8.3881   8.6534   8.6534
     8.8977   9.1040   9.1041  10.3955  10.3956  12.2310  12.2537  13.0691
    13.2666  13.2666  13.3021  13.3663  13.3664  13.5034  14.0129  14.0406
    14.0406  14.3629  14.3630  14.4816  16.0244  16.3006  16.3007  16.4254
    16.5973  16.5973  16.6111  16.7031  16.7031  17.0115  17.3435  17.3435
    17.7684  18.2142

     occupation numbers 
     1.0000   1.0000   1.0000   1.0000   1.0000   1.0000   1.0000   1.0000
     1.0000   1.0000   1.0000   1.0000   1.0000   1.0000   1.0000   1.0000
     1.0000   1.0000   1.0000   1.0000   1.0000   1.0000   1.0000   1.0000
     1.0000   1.0000   1.0000   1.0000   1.0000   1.0000   1.0000   1.0000
     1.0000   1.0000   1.0000   1.0000   1.0000   1.0000   1.0000   1.0000
     1.0000   1.0000   1.0000   1.0000   1.0000   1.0000   1.0000   1.0000
     1.0000   1.0000   1.0000   1.0000   1.0000   1.0000   1.0000   1.0000
     1.0000   1.0000   1.0000   1.0000   1.0000   1.0000   1.0000   1.0000
     1.0000   1.0000   1.0000   1.0000   1.0000   1.0000   1.0000   1.0000
     1.0000   1.0000   1.0000   1.0000   1.0000   1.0000   1.0000   1.0000
     1.0000   1.0000   1.0000   1.0000   1.0000   1.0000   1.0000   1.0000
     1.0000   1.0000   1.0000   1.0000   1.0000   1.0000   1.0000   1.0000
     1.0000   1.0000   1.0000   1.0000   1.0000   1.0000   1.0000   1.0000
     1.0000   1.0000   1.0000   1.0000   1.0000   1.0000   1.0000   1.0000
     1.0000   1.0000   1.0000   1.0000   1.0000   1.0000   1.0000   1.0000
     1.0000   1.0000   1.0000   1.0000   1.0000   1.0000   1.0000   1.0000
     1.0000   1.0000   1.0000   1.0000   1.0000   1.0000   1.0000   1.0000
     1.0000   1.0000   1.0000   1.0000   1.0000   1.0000   1.0000   1.0000
     1.0000   1.0000   1.0000   0.0000   0.0000   0.0000   0.0000   0.0000
     0.0000   0.0000   0.0000   0.0000   0.0000   0.0000   0.0000   0.0000
     0.0000   0.0000   0.0000   0.0000   0.0000   0.0000   0.0000   0.0000
     0.0000   0.0000   0.0000   0.0000   0.0000   0.0000   0.0000   0.0000
     0.0000   0.0000

          k = 0.0000 0.2887 0.0000 ( 25764 PWs)   bands (ev):

    -7.1560  -7.1473  -7.1435  -6.8381  -6.8323  -6.4281  -6.2409  -6.2256
    -6.2082  -6.1204  -6.0830  -6.0823  -6.0206  -6.0092  -5.9323  -5.8724
    -5.8524  -5.7918  -5.7780  -5.7735  -5.7252  -5.4169  -5.4111  -5.4054
    -5.2725  -5.2587  -5.2498  -5.2006  -5.1518  -5.1430  -5.1004  -5.0801
    -5.0652  -5.0638  -5.0062  -4.9979  -4.9828  -4.9206  -4.9201  -4.9050
    -4.7908  -4.7672  -4.7666  -4.7539  -4.7510  -4.7454  -4.7380  -4.7322
    -4.7264  -4.7138  -4.7121  -4.6937  -4.6902  -4.6788  -4.6709  -4.6645
    -4.6576  -4.6539  -4.6481  -4.6448  -4.6436  -4.6354  -4.6282  -4.6238
    -4.6201  -4.6091  -4.5879  -4.5815  -4.5791  -4.5700  -4.5668  -4.5584
    -4.5510  -4.5445  -4.5403  -4.5288  -4.5206  -4.5181  -4.5005  -4.4996
    -4.4989  -4.4725  -4.4547  -4.4435  -4.4116  -4.4071  -4.2508  -4.1991
    -3.7591  -3.4047  -3.3175  -3.2896  -3.1446  -3.0097  -2.9949  -2.9921
    -2.9293  -2.6155  -2.5240  -2.4936   0.3510   2.6602   2.9637   3.0309
     3.0846   3.1316   3.2326   3.2884   3.3641   3.4747   3.6578   4.2311
     4.3073   4.5626   5.0811   5.1483   5.2624   5.4260   5.8292   6.0064
     6.1554   6.5612   6.5784   6.6169   6.7479   6.8534   7.1456   7.1754
     7.2244   7.3425   7.4555   7.4664   7.4780   7.5727   7.6155   7.6534
     7.6825   7.7196   7.7950   7.9233   8.0703   8.1372   8.3726   8.3774
     8.4190   8.9291   9.2719   9.6372  10.1401  12.0925  13.6699  13.7321
    13.7781  13.9274  13.9513  13.9913  14.1146  14.1274  14.2570  14.5599
    14.7948  15.0492  15.1267  15.2027  15.2583  15.3628  15.8277  16.6028
    16.6628  16.7557  16.7777  16.8796  16.9852  16.9861  17.0785  17.2420
    17.5352  17.5704

     occupation numbers 
     1.0000   1.0000   1.0000   1.0000   1.0000   1.0000   1.0000   1.0000
     1.0000   1.0000   1.0000   1.0000   1.0000   1.0000   1.0000   1.0000
     1.0000   1.0000   1.0000   1.0000   1.0000   1.0000   1.0000   1.0000
     1.0000   1.0000   1.0000   1.0000   1.0000   1.0000   1.0000   1.0000
     1.0000   1.0000   1.0000   1.0000   1.0000   1.0000   1.0000   1.0000
     1.0000   1.0000   1.0000   1.0000   1.0000   1.0000   1.0000   1.0000
     1.0000   1.0000   1.0000   1.0000   1.0000   1.0000   1.0000   1.0000
     1.0000   1.0000   1.0000   1.0000   1.0000   1.0000   1.0000   1.0000
     1.0000   1.0000   1.0000   1.0000   1.0000   1.0000   1.0000   1.0000
     1.0000   1.0000   1.0000   1.0000   1.0000   1.0000   1.0000   1.0000
     1.0000   1.0000   1.0000   1.0000   1.0000   1.0000   1.0000   1.0000
     1.0000   1.0000   1.0000   1.0000   1.0000   1.0000   1.0000   1.0000
     1.0000   1.0000   1.0000   1.0000   1.0000   1.0000   1.0000   1.0000
     1.0000   1.0000   1.0000   1.0000   1.0000   1.0000   1.0000   1.0000
     1.0000   1.0000   1.0000   1.0000   1.0000   1.0000   1.0000   1.0000
     1.0000   1.0000   1.0000   1.0000   1.0000   1.0000   1.0000   1.0000
     1.0000   1.0000   1.0000   1.0000   1.0000   1.0000   1.0000   1.0000
     1.0000   1.0000   1.0000   1.0000   1.0000   1.0000   1.0000   1.0000
     1.0000   1.0000   0.9931   0.0915   0.0000   0.0000   0.0000   0.0000
     0.0000   0.0000   0.0000   0.0000   0.0000   0.0000   0.0000   0.0000
     0.0000   0.0000   0.0000   0.0000   0.0000   0.0000   0.0000   0.0000
     0.0000   0.0000   0.0000   0.0000   0.0000   0.0000   0.0000   0.0000
     0.0000   0.0000

          k = 0.0000 0.2887-0.3068 ( 25732 PWs)   bands (ev):

    -7.1558  -7.1473  -7.1435  -6.8381  -6.8323  -6.3959  -6.2344  -6.2246
    -6.2231  -6.1496  -6.0725  -6.0725  -6.0374  -6.0213  -5.9162  -5.8762
    -5.8568  -5.7902  -5.7778  -5.7742  -5.7306  -5.4166  -5.4118  -5.4050
    -5.2725  -5.2592  -5.2500  -5.2005  -5.1511  -5.1434  -5.1009  -5.0785
    -5.0639  -5.0622  -5.0068  -4.9994  -4.9823  -4.9202  -4.9192  -4.9035
    -4.7888  -4.7663  -4.7654  -4.7510  -4.7510  -4.7437  -4.7394  -4.7327
    -4.7172  -4.7140  -4.7099  -4.6927  -4.6878  -4.6860  -4.6714  -4.6676
    -4.6593  -4.6552  -4.6535  -4.6474  -4.6435  -4.6403  -4.6290  -4.6216
    -4.6144  -4.6064  -4.5873  -4.5867  -4.5788  -4.5727  -4.5677  -4.5567
    -4.5508  -4.5489  -4.5428  -4.5389  -4.5270  -4.5184  -4.5179  -4.5019
    -4.4998  -4.4980  -4.4615  -4.4548  -4.4436  -4.4099  -4.4072  -3.7256
    -3.5806  -3.5406  -3.4093  -3.3827  -3.1686  -3.1233  -3.0581  -2.8049
    -2.8022  -2.6931  -2.5773  -2.5471   0.3146   2.8674   2.9029   3.0224
     3.0632   3.1162   3.2280   3.4619   3.6281   3.6907   3.8070   3.8144
     3.9016   4.2423   4.5906   5.6839   5.6941   5.7985   5.8302   5.9545
     5.9944   6.3918   6.5222   6.5677   6.5985   6.9907   7.0616   7.1159
     7.2287   7.2716   7.3702   7.3768   7.4408   7.5417   7.6636   7.7416
     7.7458   7.7687   7.9033   7.9293   8.1044   8.1816   8.3087   8.4152
     8.4760   8.9385   9.2935   9.4893  10.1094  12.7906  12.8544  13.4013
    13.6117  13.8429  13.8443  14.0000  14.0878  14.1297  14.3647  14.7004
    14.8234  14.9350  15.1979  15.3178  16.1032  16.1401  16.1662  16.2573
    16.4894  16.5258  16.7750  16.8280  16.9030  16.9507  17.1513  17.3697
    17.4085  17.5957

     occupation numbers 
     1.0000   1.0000   1.0000   1.0000   1.0000   1.0000   1.0000   1.0000
     1.0000   1.0000   1.0000   1.0000   1.0000   1.0000   1.0000   1.0000
     1.0000   1.0000   1.0000   1.0000   1.0000   1.0000   1.0000   1.0000
     1.0000   1.0000   1.0000   1.0000   1.0000   1.0000   1.0000   1.0000
     1.0000   1.0000   1.0000   1.0000   1.0000   1.0000   1.0000   1.0000
     1.0000   1.0000   1.0000   1.0000   1.0000   1.0000   1.0000   1.0000
     1.0000   1.0000   1.0000   1.0000   1.0000   1.0000   1.0000   1.0000
     1.0000   1.0000   1.0000   1.0000   1.0000   1.0000   1.0000   1.0000
     1.0000   1.0000   1.0000   1.0000   1.0000   1.0000   1.0000   1.0000
     1.0000   1.0000   1.0000   1.0000   1.0000   1.0000   1.0000   1.0000
     1.0000   1.0000   1.0000   1.0000   1.0000   1.0000   1.0000   1.0000
     1.0000   1.0000   1.0000   1.0000   1.0000   1.0000   1.0000   1.0000
     1.0000   1.0000   1.0000   1.0000   1.0000   1.0000   1.0000   1.0000
     1.0000   1.0000   1.0000   1.0000   1.0000   1.0000   1.0000   1.0000
     1.0000   1.0000   1.0000   1.0000   1.0000   1.0000   1.0000   1.0000
     1.0000   1.0000   1.0000   1.0000   1.0000   1.0000   1.0000   1.0000
     1.0000   1.0000   1.0000   1.0000   1.0000   1.0000   1.0000   1.0000
     1.0000   1.0000   1.0000   1.0000   1.0000   1.0000   1.0000   1.0000
     1.0000   1.0000   0.9875   0.5814   0.0000   0.0000   0.0000   0.0000
     0.0000   0.0000   0.0000   0.0000   0.0000   0.0000   0.0000   0.0000
     0.0000   0.0000   0.0000   0.0000   0.0000   0.0000   0.0000   0.0000
     0.0000   0.0000   0.0000   0.0000   0.0000   0.0000   0.0000   0.0000
     0.0000   0.0000

          k = 0.0000-0.5774 0.0000 ( 25772 PWs)   bands (ev):

    -7.1552  -7.1521  -7.1442  -6.8365  -6.8245  -6.3228  -6.2572  -6.2380
    -6.1511  -6.1257  -6.0789  -6.0644  -6.0278  -6.0041  -5.9091  -5.8500
    -5.8396  -5.8208  -5.7741  -5.7691  -5.7214  -5.3988  -5.3924  -5.3747
    -5.2702  -5.2698  -5.2478  -5.2192  -5.1506  -5.1311  -5.0972  -5.0683
    -5.0528  -5.0505  -5.0062  -4.9999  -4.9660  -4.9256  -4.9243  -4.8986
    -4.7858  -4.7739  -4.7712  -4.7527  -4.7451  -4.7413  -4.7310  -4.7149
    -4.7107  -4.7032  -4.6931  -4.6883  -4.6880  -4.6793  -4.6684  -4.6624
    -4.6589  -4.6543  -4.6441  -4.6439  -4.6381  -4.6302  -4.6267  -4.6203
    -4.6110  -4.6043  -4.6001  -4.5991  -4.5931  -4.5852  -4.5772  -4.5620
    -4.5535  -4.5365  -4.5341  -4.5302  -4.5207  -4.5189  -4.5106  -4.4978
    -4.4879  -4.4645  -4.4602  -4.4478  -4.4196  -4.4175  -4.3549  -3.8881
    -3.8678  -3.8240  -3.7333  -3.4767  -3.2124  -3.0151  -3.0078  -2.9430
    -2.8257  -2.7422  -2.4670  -2.4493   0.1903   3.1628   3.2087   3.3376
     3.3721   3.4481   3.4770   3.6553   3.6993   4.2854   4.2909   4.6745
     4.7020   4.7147   5.2424   5.3022   5.3694   5.3782   5.4280   5.4992
     5.7297   5.9918   6.0080   6.0287   6.1347   6.5059   6.7997   7.1693
     7.1882   7.2000   7.2423   7.2493   7.2899   7.3173   7.3866   7.5230
     7.6011   7.6109   7.6181   7.8696   7.9153   7.9853   8.0011   8.2050
     8.4482   8.4791   8.7061   9.5267   9.9193  13.3238  13.4293  14.1200
    14.2172  14.3180  14.4910  14.6347  14.7072  14.8877  14.9302  15.0555
    15.1333  15.2193  15.3733  15.6364  16.2498  16.3025  16.4632  16.4718
    16.5405  16.6094  16.6179  16.7746  16.8346  16.8663  16.9560  16.9683
    17.1513  17.4450

     occupation numbers 
     1.0000   1.0000   1.0000   1.0000   1.0000   1.0000   1.0000   1.0000
     1.0000   1.0000   1.0000   1.0000   1.0000   1.0000   1.0000   1.0000
     1.0000   1.0000   1.0000   1.0000   1.0000   1.0000   1.0000   1.0000
     1.0000   1.0000   1.0000   1.0000   1.0000   1.0000   1.0000   1.0000
     1.0000   1.0000   1.0000   1.0000   1.0000   1.0000   1.0000   1.0000
     1.0000   1.0000   1.0000   1.0000   1.0000   1.0000   1.0000   1.0000
     1.0000   1.0000   1.0000   1.0000   1.0000   1.0000   1.0000   1.0000
     1.0000   1.0000   1.0000   1.0000   1.0000   1.0000   1.0000   1.0000
     1.0000   1.0000   1.0000   1.0000   1.0000   1.0000   1.0000   1.0000
     1.0000   1.0000   1.0000   1.0000   1.0000   1.0000   1.0000   1.0000
     1.0000   1.0000   1.0000   1.0000   1.0000   1.0000   1.0000   1.0000
     1.0000   1.0000   1.0000   1.0000   1.0000   1.0000   1.0000   1.0000
     1.0000   1.0000   1.0000   1.0000   1.0000   1.0000   1.0000   1.0000
     1.0000   1.0000   1.0000   1.0000   1.0000   1.0000   1.0000   1.0000
     1.0000   1.0000   1.0000   1.0000   1.0000   1.0000   1.0000   1.0000
     1.0000   1.0000   1.0000   1.0000   1.0000   1.0000   1.0000   1.0000
     1.0000   1.0000   1.0000   1.0000   1.0000   1.0000   1.0000   1.0000
     1.0000   1.0000   1.0000   1.0000   1.0000   1.0000   1.0000   1.0000
     1.0000   1.0000   1.0000   0.4273   0.0000   0.0000   0.0000   0.0000
     0.0000   0.0000   0.0000   0.0000   0.0000   0.0000   0.0000   0.0000
     0.0000   0.0000   0.0000   0.0000   0.0000   0.0000   0.0000   0.0000
     0.0000   0.0000   0.0000   0.0000   0.0000   0.0000   0.0000   0.0000
     0.0000   0.0000

          k = 0.0000-0.5774-0.3068 ( 25740 PWs)   bands (ev):

    -7.1550  -7.1520  -7.1442  -6.8365  -6.8245  -6.3168  -6.2452  -6.2374
    -6.1290  -6.1182  -6.0863  -6.0677  -6.0572  -6.0164  -5.8930  -5.8722
    -5.8344  -5.8163  -5.7744  -5.7699  -5.7255  -5.3988  -5.3934  -5.3740
    -5.2702  -5.2698  -5.2476  -5.2191  -5.1490  -5.1317  -5.0978  -5.0649
    -5.0529  -5.0503  -5.0080  -5.0000  -4.9671  -4.9260  -4.9234  -4.8982
    -4.7867  -4.7726  -4.7706  -4.7516  -4.7430  -4.7412  -4.7309  -4.7247
    -4.7092  -4.7090  -4.6966  -4.6906  -4.6837  -4.6772  -4.6658  -4.6630
    -4.6588  -4.6493  -4.6485  -4.6404  -4.6307  -4.6298  -4.6255  -4.6187
    -4.6100  -4.6049  -4.6007  -4.6005  -4.5939  -4.5854  -4.5764  -4.5609
    -4.5544  -4.5360  -4.5349  -4.5252  -4.5214  -4.5180  -4.5108  -4.4995
    -4.4855  -4.4646  -4.4604  -4.4314  -4.4177  -4.3874  -4.2436  -4.2230
    -4.2167  -3.4464  -3.3300  -3.2601  -3.2169  -3.1875  -3.0805  -3.0349
    -2.8598  -2.7556  -2.5287  -2.4999   0.1407   3.2640   3.2781   3.3856
     3.4071   3.6379   3.6748   3.7619   3.7982   3.9078   4.0133   4.0283
     4.3583   5.2845   5.3978   5.5116   5.5307   5.5863   5.6047   5.6580
     5.9846   6.0785   6.1527   6.1819   6.1967   6.2827   6.3264   6.4975
     6.6549   6.6990   6.9004   6.9285   7.3420   7.4098   7.5184   7.5851
     7.6414   7.6945   7.8755   7.9209   7.9591   8.2470   8.3116   8.3622
     8.5205   8.5663   8.6874   9.5586   9.8753  13.2996  13.4641  13.4957
    13.8085  14.6319  14.7799  14.8529  14.9580  14.9770  15.0146  15.1199
    15.2892  15.3360  15.3904  15.4816  16.1403  16.2648  16.3678  16.5152
    16.5489  16.5886  16.8130  16.8433  16.9460  16.9767  16.9996  17.1261
    17.1456  17.1781

     occupation numbers 
     1.0000   1.0000   1.0000   1.0000   1.0000   1.0000   1.0000   1.0000
     1.0000   1.0000   1.0000   1.0000   1.0000   1.0000   1.0000   1.0000
     1.0000   1.0000   1.0000   1.0000   1.0000   1.0000   1.0000   1.0000
     1.0000   1.0000   1.0000   1.0000   1.0000   1.0000   1.0000   1.0000
     1.0000   1.0000   1.0000   1.0000   1.0000   1.0000   1.0000   1.0000
     1.0000   1.0000   1.0000   1.0000   1.0000   1.0000   1.0000   1.0000
     1.0000   1.0000   1.0000   1.0000   1.0000   1.0000   1.0000   1.0000
     1.0000   1.0000   1.0000   1.0000   1.0000   1.0000   1.0000   1.0000
     1.0000   1.0000   1.0000   1.0000   1.0000   1.0000   1.0000   1.0000
     1.0000   1.0000   1.0000   1.0000   1.0000   1.0000   1.0000   1.0000
     1.0000   1.0000   1.0000   1.0000   1.0000   1.0000   1.0000   1.0000
     1.0000   1.0000   1.0000   1.0000   1.0000   1.0000   1.0000   1.0000
     1.0000   1.0000   1.0000   1.0000   1.0000   1.0000   1.0000   1.0000
     1.0000   1.0000   1.0000   1.0000   1.0000   1.0000   1.0000   1.0000
     1.0000   1.0000   1.0000   1.0000   1.0000   1.0000   1.0000   1.0000
     1.0000   1.0000   1.0000   1.0000   1.0000   1.0000   1.0000   1.0000
     1.0000   1.0000   1.0000   1.0000   1.0000   1.0000   1.0000   1.0000
     1.0000   1.0000   1.0000   1.0000   1.0000   1.0000   1.0000   1.0000
     1.0000   1.0000   1.0000   0.3035   0.0001   0.0000   0.0000   0.0000
     0.0000   0.0000   0.0000   0.0000   0.0000   0.0000   0.0000   0.0000
     0.0000   0.0000   0.0000   0.0000   0.0000   0.0000   0.0000   0.0000
     0.0000   0.0000   0.0000   0.0000   0.0000   0.0000   0.0000   0.0000
     0.0000   0.0000

          k = 0.2500 0.4330 0.0000 ( 25702 PWs)   bands (ev):

    -7.1551  -7.1509  -7.1453  -6.8334  -6.8275  -6.3312  -6.2464  -6.2399
    -6.1621  -6.1125  -6.0845  -6.0612  -6.0237  -6.0085  -5.9103  -5.8513
    -5.8431  -5.8006  -5.7944  -5.7629  -5.7221  -5.3981  -5.3886  -5.3794
    -5.2708  -5.2692  -5.2482  -5.2158  -5.1481  -5.1300  -5.0956  -5.0758
    -5.0650  -5.0453  -5.0092  -4.9949  -4.9612  -4.9436  -4.9171  -4.8904
    -4.7854  -4.7756  -4.7687  -4.7579  -4.7504  -4.7336  -4.7278  -4.7210
    -4.7139  -4.6949  -4.6935  -4.6916  -4.6892  -4.6784  -4.6766  -4.6621
    -4.6589  -4.6528  -4.6506  -4.6422  -4.6351  -4.6261  -4.6235  -4.6181
    -4.6155  -4.6095  -4.5980  -4.5975  -4.5937  -4.5882  -4.5760  -4.5692
    -4.5419  -4.5386  -4.5342  -4.5313  -4.5222  -4.5187  -4.5047  -4.5035
    -4.4996  -4.4834  -4.4643  -4.4571  -4.4277  -4.4183  -4.0711  -4.0361
    -3.9731  -3.8510  -3.5091  -3.4836  -3.4368  -3.3141  -2.8903  -2.7593
    -2.7280  -2.6437  -2.5436  -2.4900   0.2023   3.0319   3.1135   3.1717
     3.4659   3.4860   3.6160   4.0159   4.0202   4.0401   4.1117   4.3671
     4.6474   4.8343   4.9007   5.0041   5.2392   5.3798   5.5376   5.5891
     5.8826   6.0422   6.1208   6.5556   6.6270   6.7440   6.8006   6.9057
     6.9812   7.0055   7.0872   7.2619   7.3821   7.4053   7.4304   7.4432
     7.5738   7.5834   7.7722   7.8628   7.9076   7.9132   8.0341   8.0634
     8.4090   8.5020   8.6828   9.4928   9.5547  13.1442  14.2294  14.2675
    14.3569  14.3913  14.4187  14.5423  14.6817  14.7321  14.8692  14.9202
    15.1103  15.4230  15.5824  15.8358  15.9578  16.1837  16.3571  16.4328
    16.5086  16.5785  16.6714  16.7395  16.8095  16.8593  16.9841  17.0405
    17.0525  17.2965

     occupation numbers 
     1.0000   1.0000   1.0000   1.0000   1.0000   1.0000   1.0000   1.0000
     1.0000   1.0000   1.0000   1.0000   1.0000   1.0000   1.0000   1.0000
     1.0000   1.0000   1.0000   1.0000   1.0000   1.0000   1.0000   1.0000
     1.0000   1.0000   1.0000   1.0000   1.0000   1.0000   1.0000   1.0000
     1.0000   1.0000   1.0000   1.0000   1.0000   1.0000   1.0000   1.0000
     1.0000   1.0000   1.0000   1.0000   1.0000   1.0000   1.0000   1.0000
     1.0000   1.0000   1.0000   1.0000   1.0000   1.0000   1.0000   1.0000
     1.0000   1.0000   1.0000   1.0000   1.0000   1.0000   1.0000   1.0000
     1.0000   1.0000   1.0000   1.0000   1.0000   1.0000   1.0000   1.0000
     1.0000   1.0000   1.0000   1.0000   1.0000   1.0000   1.0000   1.0000
     1.0000   1.0000   1.0000   1.0000   1.0000   1.0000   1.0000   1.0000
     1.0000   1.0000   1.0000   1.0000   1.0000   1.0000   1.0000   1.0000
     1.0000   1.0000   1.0000   1.0000   1.0000   1.0000   1.0000   1.0000
     1.0000   1.0000   1.0000   1.0000   1.0000   1.0000   1.0000   1.0000
     1.0000   1.0000   1.0000   1.0000   1.0000   1.0000   1.0000   1.0000
     1.0000   1.0000   1.0000   1.0000   1.0000   1.0000   1.0000   1.0000
     1.0000   1.0000   1.0000   1.0000   1.0000   1.0000   1.0000   1.0000
     1.0000   1.0000   1.0000   1.0000   1.0000   1.0000   1.0000   1.0000
     1.0000   1.0000   1.0000   0.5672   0.3177   0.0000   0.0000   0.0000
     0.0000   0.0000   0.0000   0.0000   0.0000   0.0000   0.0000   0.0000
     0.0000   0.0000   0.0000   0.0000   0.0000   0.0000   0.0000   0.0000
     0.0000   0.0000   0.0000   0.0000   0.0000   0.0000   0.0000   0.0000
     0.0000   0.0000

          k = 0.2500 0.4330-0.3068 ( 25730 PWs)   bands (ev):

    -7.1550  -7.1509  -7.1454  -6.8335  -6.8276  -6.3215  -6.2408  -6.2367
    -6.1410  -6.1207  -6.0722  -6.0702  -6.0476  -6.0238  -5.8942  -5.8724
    -5.8369  -5.7991  -5.7938  -5.7636  -5.7262  -5.3980  -5.3896  -5.3788
    -5.2706  -5.2695  -5.2480  -5.2157  -5.1481  -5.1287  -5.0962  -5.0727
    -5.0650  -5.0453  -5.0101  -4.9958  -4.9625  -4.9444  -4.9165  -4.8885
    -4.7866  -4.7752  -4.7671  -4.7562  -4.7493  -4.7350  -4.7339  -4.7233
    -4.7166  -4.6982  -4.6931  -4.6900  -4.6873  -4.6777  -4.6729  -4.6639
    -4.6575  -4.6541  -4.6452  -4.6414  -4.6314  -4.6264  -4.6241  -4.6160
    -4.6137  -4.6098  -4.6000  -4.5983  -4.5920  -4.5883  -4.5747  -4.5674
    -4.5424  -4.5389  -4.5364  -4.5268  -4.5236  -4.5082  -4.5044  -4.5032
    -4.4915  -4.4667  -4.4645  -4.4417  -4.4237  -4.4160  -4.3431  -4.0100
    -3.8359  -3.8144  -3.7988  -3.2973  -3.1692  -3.0173  -2.9626  -2.8076
    -2.8019  -2.7405  -2.7211  -2.4938   0.1453   3.1736   3.3218   3.5079
     3.5155   3.5832   3.6127   3.6365   3.6966   3.7291   3.9740   4.6743
     4.7732   4.7911   4.8072   4.9508   5.2934   5.7557   5.7992   5.8663
     5.9304   6.1325   6.2654   6.4172   6.4702   6.5213   6.5847   6.7412
     6.7516   6.7688   6.8474   6.9122   6.9989   7.4124   7.4530   7.4852
     7.5639   7.8371   7.8467   7.9091   8.0761   8.1295   8.1816   8.3076
     8.3161   8.4857   8.9056   9.4544   9.5874  13.4096  13.5707  13.9098
    13.9674  14.0942  14.5174  14.7970  14.9006  15.0772  15.2718  15.3625
    15.4627  15.5896  15.7894  15.8515  15.9363  16.0448  16.1205  16.2156
    16.3425  16.4357  16.6331  16.7215  16.8023  16.9357  16.9708  17.0821
    17.1297  17.2596

     occupation numbers 
     1.0000   1.0000   1.0000   1.0000   1.0000   1.0000   1.0000   1.0000
     1.0000   1.0000   1.0000   1.0000   1.0000   1.0000   1.0000   1.0000
     1.0000   1.0000   1.0000   1.0000   1.0000   1.0000   1.0000   1.0000
     1.0000   1.0000   1.0000   1.0000   1.0000   1.0000   1.0000   1.0000
     1.0000   1.0000   1.0000   1.0000   1.0000   1.0000   1.0000   1.0000
     1.0000   1.0000   1.0000   1.0000   1.0000   1.0000   1.0000   1.0000
     1.0000   1.0000   1.0000   1.0000   1.0000   1.0000   1.0000   1.0000
     1.0000   1.0000   1.0000   1.0000   1.0000   1.0000   1.0000   1.0000
     1.0000   1.0000   1.0000   1.0000   1.0000   1.0000   1.0000   1.0000
     1.0000   1.0000   1.0000   1.0000   1.0000   1.0000   1.0000   1.0000
     1.0000   1.0000   1.0000   1.0000   1.0000   1.0000   1.0000   1.0000
     1.0000   1.0000   1.0000   1.0000   1.0000   1.0000   1.0000   1.0000
     1.0000   1.0000   1.0000   1.0000   1.0000   1.0000   1.0000   1.0000
     1.0000   1.0000   1.0000   1.0000   1.0000   1.0000   1.0000   1.0000
     1.0000   1.0000   1.0000   1.0000   1.0000   1.0000   1.0000   1.0000
     1.0000   1.0000   1.0000   1.0000   1.0000   1.0000   1.0000   1.0000
     1.0000   1.0000   1.0000   1.0000   1.0000   1.0000   1.0000   1.0000
     1.0000   1.0000   1.0000   1.0000   1.0000   1.0000   1.0000   1.0000
     1.0000   1.0000   1.0000   0.7151   0.2078   0.0000   0.0000   0.0000
     0.0000   0.0000   0.0000   0.0000   0.0000   0.0000   0.0000   0.0000
     0.0000   0.0000   0.0000   0.0000   0.0000   0.0000   0.0000   0.0000
     0.0000   0.0000   0.0000   0.0000   0.0000   0.0000   0.0000   0.0000
     0.0000   0.0000

     the Fermi energy is     9.5091 ev

!    total energy              =   -5251.03549501 Ry
     total all-electron energy =    -67843.316706 Ry
     estimated scf accuracy    <       0.00000009 Ry
     smearing contrib. (-TS)   =      -0.00627754 Ry
     internal energy E=F+TS    =   -5251.02921747 Ry

     The total energy is F=E-TS. E is the sum of the following terms:
     one-electron contribution =   -1609.13481074 Ry
     hartree contribution      =    1119.79959810 Ry
     xc contribution           =    -760.98808168 Ry
     ewald contribution        =   -1905.91046658 Ry
     one-center paw contrib.   =   -2094.79545658 Ry
      -> PAW hartree energy AE =     292.29276749 Ry
      -> PAW hartree energy PS =    -289.41750456 Ry
      -> PAW xc energy AE      =    -314.08979470 Ry
      -> PAW xc energy PS      =      79.65188261 Ry
      -> total E_H with PAW    =    1122.67486103 Ry
      -> total E_XC with PAW   =    -995.42599377 Ry

     convergence has been achieved in  16 iterations


     -----------------------------------------------
     Non-local corr. energy    =       9.08760870 Ry
     -----------------------------------------------


     Forces acting on atoms (cartesian axes, Ry/au):

     atom    1 type  1   force =     0.00000000    0.00000000   -0.32213645
     atom    2 type  1   force =     0.00000000    0.00000000    0.01846667
     atom    3 type  1   force =     0.00421408    0.00243300   -0.00908277
     atom    4 type  1   force =     0.00786780    0.00454248    0.00411907
     atom    5 type  1   force =     0.00000000   -0.00486600   -0.00908277
     atom    6 type  1   force =     0.00000000   -0.00908496    0.00411907
     atom    7 type  1   force =    -0.00421408    0.00243300   -0.00908277
     atom    8 type  1   force =    -0.00786780    0.00454248    0.00411907
     atom    9 type  1   force =    -0.26114424    0.15077170    0.11374318
     atom   10 type  1   force =     0.00179645   -0.00103718   -0.01282274
     atom   11 type  1   force =     0.00000000   -0.30154339    0.11374318
     atom   12 type  1   force =     0.00000000    0.00207436   -0.01282274
     atom   13 type  1   force =     0.26114424    0.15077170    0.11374318
     atom   14 type  1   force =    -0.00179645   -0.00103718   -0.01282274
     atom   15 type  1   force =     0.00000000    0.00000000    0.01243696
     atom   16 type  1   force =     0.00000000    0.00000000   -0.00317935
     atom   17 type  2   force =     0.00000000    0.00000000    0.00076542
     atom   18 type  2   force =     0.00088431    0.00051056   -0.00344347
     atom   19 type  2   force =    -0.00108109   -0.00062417    0.00318555
     atom   20 type  2   force =     0.00000000   -0.00102111   -0.00344347
     atom   21 type  2   force =     0.00000000    0.00124833    0.00318555
     atom   22 type  2   force =    -0.00088431    0.00051056   -0.00344347
     atom   23 type  2   force =     0.00108109   -0.00062417    0.00318555
     atom   24 type  2   force =    -0.00429076    0.00247727    0.00286336
     atom   25 type  2   force =    -0.00554389    0.00320077   -0.00029560
     atom   26 type  2   force =     0.00000000   -0.00495454    0.00286336
     atom   27 type  2   force =    -0.00000000   -0.00640154   -0.00029560
     atom   28 type  2   force =     0.00429076    0.00247727    0.00286336
     atom   29 type  2   force =     0.00554389    0.00320077   -0.00029560
     atom   30 type  2   force =     0.00000000    0.00000000    0.00691345
     atom   31 type  2   force =     0.00000000    0.00000000   -0.00364479
     atom   32 type  1   force =     0.00000000    0.00000000   -0.00442163
     The non-local contrib.  to forces
     atom    1 type  1   force =     0.00000000    0.00000000    0.43910228
     atom    2 type  1   force =     0.00000000    0.00000000   -0.07272761
     atom    3 type  1   force =    -0.03129707   -0.01806937    0.05192179
     atom    4 type  1   force =    -0.03786835   -0.02186330   -0.02308802
     atom    5 type  1   force =     0.00000000    0.03613874    0.05192179
     atom    6 type  1   force =     0.00000000    0.04372660   -0.02308802
     atom    7 type  1   force =     0.03129707   -0.01806937    0.05192179
     atom    8 type  1   force =     0.03786835   -0.02186330   -0.02308802
     atom    9 type  1   force =     0.26985185   -0.15579904   -0.11934081
     atom   10 type  1   force =    -0.00630841    0.00364216    0.07988440
     atom   11 type  1   force =     0.00000000    0.31159808   -0.11934081
     atom   12 type  1   force =     0.00000000   -0.00728432    0.07988440
     atom   13 type  1   force =    -0.26985185   -0.15579904   -0.11934081
     atom   14 type  1   force =     0.00630841    0.00364216    0.07988440
     atom   15 type  1   force =     0.00000000    0.00000000   -0.08002936
     atom   16 type  1   force =     0.00000000    0.00000000    0.02489053
     atom   17 type  2   force =     0.00000000    0.00000000    0.00296465
     atom   18 type  2   force =     0.00269030    0.00155325    0.00958228
     atom   19 type  2   force =    -0.00271466   -0.00156731    0.01408168
     atom   20 type  2   force =     0.00000000   -0.00310649    0.00958228
     atom   21 type  2   force =     0.00000000    0.00313461    0.01408168
     atom   22 type  2   force =    -0.00269030    0.00155325    0.00958228
     atom   23 type  2   force =     0.00271466   -0.00156731    0.01408168
     atom   24 type  2   force =    -0.01509370    0.00871435    0.02682240
     atom   25 type  2   force =    -0.00500523    0.00288977    0.00664880
     atom   26 type  2   force =    -0.00000000   -0.01742870    0.02682240
     atom   27 type  2   force =    -0.00000000   -0.00577954    0.00664880
     atom   28 type  2   force =     0.01509370    0.00871435    0.02682240
     atom   29 type  2   force =     0.00500523    0.00288977    0.00664880
     atom   30 type  2   force =     0.00000000    0.00000000    0.04340515
     atom   31 type  2   force =     0.00000000   -0.00000000   -0.00990268
     atom   32 type  1   force =     0.00000000   -0.00000000    0.04358412
     The ionic contribution  to forces
     atom    1 type  1   force =    -0.00003333    0.00002030  -15.05556552
     atom    2 type  1   force =    -0.00003333    0.00002030    5.57978386
     atom    3 type  1   force =    -0.00003334    0.00002124   -4.09231076
     atom    4 type  1   force =    -0.00003332    0.00002122    3.44263938
     atom    5 type  1   force =    -0.00003251    0.00002077   -4.09231098
     atom    6 type  1   force =    -0.00003254    0.00002077    3.44263916
     atom    7 type  1   force =    -0.00003251    0.00002171   -4.09231087
     atom    8 type  1   force =    -0.00003253    0.00002169    3.44263927
     atom    9 type  1   force =   -10.18593745    5.88085209    5.49662999
     atom   10 type  1   force =    -0.20807080    0.12012686   -1.11898156
     atom   11 type  1   force =     0.00001166  -11.76185156    5.49667161
     atom   12 type  1   force =     0.00003215   -0.24031812   -1.11898271
     atom   13 type  1   force =    10.18606321    5.88091138    5.49666994
     atom   14 type  1   force =     0.20813670    0.12012783   -1.11898244
     atom   15 type  1   force =     0.00004100   -0.00002514    2.03946030
     atom   16 type  1   force =     0.00003371   -0.00002054   -0.95544483
     atom   17 type  2   force =    -0.00002983    0.00001855   -0.15864965
     atom   18 type  2   force =    -0.00002982    0.00001901   -0.15865046
     atom   19 type  2   force =    -0.00002980    0.00001898   -0.15864977
     atom   20 type  2   force =    -0.00002943    0.00001879   -0.15865024
     atom   21 type  2   force =    -0.00002947    0.00001879   -0.15864955
     atom   22 type  2   force =    -0.00002941    0.00001926   -0.15865034
     atom   23 type  2   force =    -0.00002943    0.00001923   -0.15864966
     atom   24 type  2   force =    -0.59706615    0.34471415   -2.21429394
     atom   25 type  2   force =    -0.59706615    0.34471415    1.89699312
     atom   26 type  2   force =     0.00002828   -0.68948712   -2.21429849
     atom   27 type  2   force =     0.00002828   -0.68948713    1.89699790
     atom   28 type  2   force =     0.59712619    0.34471623   -2.21429850
     atom   29 type  2   force =     0.59712620    0.34471624    1.89699746
     atom   30 type  2   force =     0.00003067   -0.00001908   -1.58910753
     atom   31 type  2   force =     0.00003067   -0.00001908    1.27180671
     atom   32 type  1   force =    -0.00007756    0.00004822   -0.41249090
     The local contribution  to forces
     atom    1 type  1   force =    -0.00007771    0.00025021   14.26437049
     atom    2 type  1   force =    -0.00007741    0.00024727   -5.48861237
     atom    3 type  1   force =     0.03546409    0.02077145    4.03088952
     atom    4 type  1   force =     0.04583140    0.02675763   -3.41572586
     atom    5 type  1   force =    -0.00007153   -0.04079473    4.03088949
     atom    6 type  1   force =    -0.00007193   -0.05276697   -3.41572589
     atom    7 type  1   force =    -0.03561864    0.02076969    4.03088952
     atom    8 type  1   force =    -0.04598609    0.02675744   -3.41572585
     atom    9 type  1   force =     9.63094339   -5.56029798   -5.25323393
     atom   10 type  1   force =     0.21735479   -0.12535817    1.02604867
     atom   11 type  1   force =     0.00110795   11.11915717   -5.25325328
     atom   12 type  1   force =     0.00109093    0.24922279    1.02604958
     atom   13 type  1   force =    -9.62880897   -5.56033532   -5.25326721
     atom   14 type  1   force =    -0.21516320   -0.12535868    1.02604971
     atom   15 type  1   force =     0.00108393   -0.00049267   -1.94737463
     atom   16 type  1   force =     0.00109567   -0.00049483    0.92714007
     atom   17 type  2   force =    -0.00001030    0.00002246    0.15623688
     atom   18 type  2   force =    -0.00184510   -0.00097556    0.14557123
     atom   19 type  2   force =     0.00158651    0.00094478    0.14770409
     atom   20 type  2   force =     0.00000884    0.00211421    0.14557128
     atom   21 type  2   force =    -0.00000985   -0.00182167    0.14770410
     atom   22 type  2   force =     0.00180416   -0.00104103    0.14557126
     atom   23 type  2   force =    -0.00160709    0.00094475    0.14770409
     atom   24 type  2   force =     0.60777812   -0.35089004    2.19042953
     atom   25 type  2   force =     0.59655092   -0.34440802   -1.90403029
     atom   26 type  2   force =     0.00008544    0.70166668    2.19043191
     atom   27 type  2   force =     0.00008537    0.68870263   -1.90403273
     atom   28 type  2   force =    -0.60760849   -0.35089110    2.19043256
     atom   29 type  2   force =    -0.59638132   -0.34440902   -1.90403337
     atom   30 type  2   force =     0.00008441   -0.00003764    1.55299502
     atom   31 type  2   force =     0.00008434   -0.00003762   -1.26588674
     atom   32 type  1   force =    -0.00008048    0.00019074    0.36441092
     The core correction contribution to forces
     atom    1 type  1   force =    -0.00000624    0.00001818    0.02952228
     atom    2 type  1   force =    -0.00000627    0.00001824   -0.00019683
     atom    3 type  1   force =     0.00002241    0.00003522    0.00008533
     atom    4 type  1   force =    -0.00016013   -0.00007014    0.00018277
     atom    5 type  1   force =    -0.00000588   -0.00001509    0.00008533
     atom    6 type  1   force =    -0.00000587    0.00019568    0.00018277
     atom    7 type  1   force =    -0.00003491    0.00003525    0.00008533
     atom    8 type  1   force =     0.00014760   -0.00007014    0.00018277
     atom    9 type  1   force =     0.02511832   -0.01449269   -0.01054305
     atom   10 type  1   force =    -0.00004016    0.00003261   -0.00003758
     atom   11 type  1   force =     0.00007977    0.02887504   -0.01054243
     atom   12 type  1   force =     0.00008021   -0.00017587   -0.00003759
     atom   13 type  1   force =    -0.02495816   -0.01449213   -0.01054296
     atom   14 type  1   force =     0.00020137    0.00003261   -0.00003759
     atom   15 type  1   force =     0.00008044   -0.00003660    0.00020731
     atom   16 type  1   force =     0.00008061   -0.00003666   -0.00000766
     atom   17 type  2   force =     0.00000025   -0.00000033   -0.00004127
     atom   18 type  2   force =    -0.00000468   -0.00000261   -0.00020289
     atom   19 type  2   force =     0.00004529    0.00002566   -0.00021215
     atom   20 type  2   force =     0.00000061    0.00000511   -0.00020289
     atom   21 type  2   force =     0.00000024   -0.00005235   -0.00021215
     atom   22 type  2   force =     0.00000438   -0.00000266   -0.00020289
     atom   23 type  2   force =    -0.00004480    0.00002566   -0.00021215
     atom   24 type  2   force =     0.00023016   -0.00013292   -0.00038687
     atom   25 type  2   force =     0.00009055   -0.00005231   -0.00012132
     atom   26 type  2   force =    -0.00000241    0.00026974   -0.00038702
     atom   27 type  2   force =    -0.00000242    0.00010853   -0.00012117
     atom   28 type  2   force =    -0.00023486   -0.00013284   -0.00038703
     atom   29 type  2   force =    -0.00009524   -0.00005222   -0.00012116
     atom   30 type  2   force =    -0.00000234    0.00000130   -0.00069578
     atom   31 type  2   force =    -0.00000235    0.00000131    0.00015801
     atom   32 type  1   force =    -0.00000625    0.00001366   -0.00035472
     The Hubbard contrib.    to forces
     atom    1 type  1   force =     0.00000000    0.00000000    0.00000000
     atom    2 type  1   force =     0.00000000    0.00000000    0.00000000
     atom    3 type  1   force =     0.00000000    0.00000000    0.00000000
     atom    4 type  1   force =     0.00000000    0.00000000    0.00000000
     atom    5 type  1   force =     0.00000000    0.00000000    0.00000000
     atom    6 type  1   force =     0.00000000    0.00000000    0.00000000
     atom    7 type  1   force =     0.00000000    0.00000000    0.00000000
     atom    8 type  1   force =     0.00000000    0.00000000    0.00000000
     atom    9 type  1   force =     0.00000000    0.00000000    0.00000000
     atom   10 type  1   force =     0.00000000    0.00000000    0.00000000
     atom   11 type  1   force =     0.00000000    0.00000000    0.00000000
     atom   12 type  1   force =     0.00000000    0.00000000    0.00000000
     atom   13 type  1   force =     0.00000000    0.00000000    0.00000000
     atom   14 type  1   force =     0.00000000    0.00000000    0.00000000
     atom   15 type  1   force =     0.00000000    0.00000000    0.00000000
     atom   16 type  1   force =     0.00000000    0.00000000    0.00000000
     atom   17 type  2   force =     0.00000000    0.00000000    0.00000000
     atom   18 type  2   force =     0.00000000    0.00000000    0.00000000
     atom   19 type  2   force =     0.00000000    0.00000000    0.00000000
     atom   20 type  2   force =     0.00000000    0.00000000    0.00000000
     atom   21 type  2   force =     0.00000000    0.00000000    0.00000000
     atom   22 type  2   force =     0.00000000    0.00000000    0.00000000
     atom   23 type  2   force =     0.00000000    0.00000000    0.00000000
     atom   24 type  2   force =     0.00000000    0.00000000    0.00000000
     atom   25 type  2   force =     0.00000000    0.00000000    0.00000000
     atom   26 type  2   force =     0.00000000    0.00000000    0.00000000
     atom   27 type  2   force =     0.00000000    0.00000000    0.00000000
     atom   28 type  2   force =     0.00000000    0.00000000    0.00000000
     atom   29 type  2   force =     0.00000000    0.00000000    0.00000000
     atom   30 type  2   force =     0.00000000    0.00000000    0.00000000
     atom   31 type  2   force =     0.00000000    0.00000000    0.00000000
     atom   32 type  1   force =     0.00000000    0.00000000    0.00000000
     The SCF correction term to forces
     atom    1 type  1   force =     0.00000000   -0.00000000    0.00017745
     atom    2 type  1   force =     0.00000000   -0.00000000   -0.00003693
     atom    3 type  1   force =    -0.00006076   -0.00003508    0.00007490
     atom    4 type  1   force =    -0.00002130   -0.00001230   -0.00014565
     atom    5 type  1   force =     0.00000000    0.00007016    0.00007490
     atom    6 type  1   force =     0.00000000    0.00002460   -0.00014565
     atom    7 type  1   force =     0.00006076   -0.00003508    0.00007490
     atom    8 type  1   force =     0.00002130   -0.00001230   -0.00014565
     atom    9 type  1   force =     0.00009681   -0.00005590   -0.00003546
     atom   10 type  1   force =     0.00006715   -0.00003877    0.00000680
     atom   11 type  1   force =     0.00000000    0.00011179   -0.00003547
     atom   12 type  1   force =    -0.00000002    0.00007756    0.00000680
     atom   13 type  1   force =    -0.00009681   -0.00005590   -0.00003547
     atom   14 type  1   force =    -0.00006718   -0.00003877    0.00000680
     atom   15 type  1   force =    -0.00000002    0.00000001   -0.00008322
     atom   16 type  1   force =    -0.00000002    0.00000001   -0.00001403
     atom   17 type  2   force =    -0.00000000    0.00000000   -0.00000175
     atom   18 type  2   force =     0.00001221    0.00000705   -0.00000033
     atom   19 type  2   force =    -0.00000847   -0.00000489    0.00000502
     atom   20 type  2   force =     0.00000000   -0.00001410   -0.00000033
     atom   21 type  2   force =     0.00000000    0.00000978    0.00000502
     atom   22 type  2   force =    -0.00001221    0.00000705   -0.00000033
     atom   23 type  2   force =     0.00000847   -0.00000489    0.00000502
     atom   24 type  2   force =    -0.00002672    0.00001543    0.00003701
     atom   25 type  2   force =    -0.00000151    0.00000087   -0.00004378
     atom   26 type  2   force =     0.00000000   -0.00003085    0.00003701
     atom   27 type  2   force =    -0.00000000   -0.00000174   -0.00004378
     atom   28 type  2   force =     0.00002672    0.00001543    0.00003701
     atom   29 type  2   force =     0.00000151    0.00000087   -0.00004378
     atom   30 type  2   force =    -0.00000000    0.00000000    0.00006003
     atom   31 type  2   force =    -0.00000000    0.00000000   -0.00007665
     atom   32 type  1   force =     0.00000000    0.00000000    0.00017238

     Total force =     0.646046     Total SCF correction =     0.000499


     Computing stress (Cartesian axis) and pressure



     -----------------------------------------------
     Non-local corr. energy    =       9.08760870 Ry
     -----------------------------------------------

          total   stress  (Ry/bohr**3)                   (kbar)     P=       49.37
   0.00033455  -0.00000000   0.00000000           49.21       -0.00        0.00
  -0.00000000   0.00033455  -0.00000000           -0.00       49.21       -0.00
   0.00000000  -0.00000000   0.00033776            0.00       -0.00       49.69

     kinetic stress (kbar)  18546.69     -0.00      0.00
                                0.00  18546.69     -0.00
                                0.00     -0.00  18516.71

     local   stress (kbar)   5295.50     -0.08     -0.00
                               -0.08   5295.39      0.00
                               -0.00      0.00   4612.84

     nonloc. stress (kbar)    314.48     -0.00      0.00
                                0.00    314.48     -0.00
                                0.00      0.00    331.11

     hartree stress (kbar)  21003.44     -0.00      0.00
                               -0.00  21003.44     -0.00
                                0.00     -0.00  21282.75

     exc-cor stress (kbar)   5682.84      0.00     -0.00
                                0.00   5682.84      0.00
                               -0.00      0.00   5682.67

     corecor stress (kbar) -14917.62     -0.00     -0.00
                               -0.00 -14917.62     -0.00
[...]
     atom   26 type  2   force =     0.00002759   -0.92778390    1.39080540
     atom   27 type  2   force =     0.00003356    0.87532543    0.46919465
     atom   28 type  2   force =     0.80349669    0.46386513    1.39080470
     atom   29 type  2   force =    -0.75803826   -0.43769477    0.46919429
     atom   30 type  2   force =     0.00003360   -0.00002093    1.20560984
     atom   31 type  2   force =     0.00002827   -0.00001754   -1.14706306
     atom   32 type  1   force =    -0.00004902    0.00003035   -1.34620807
     The local contribution  to forces
     atom    1 type  1   force =    -0.00007740    0.00022056    0.42064671
     atom    2 type  1   force =    -0.00007741    0.00024461    2.10168220
     atom    3 type  1   force =    -0.46407640   -0.26767910   -3.05655920
     atom    4 type  1   force =    -1.03838939   -0.59921555    0.95196955
     atom    5 type  1   force =    -0.00008330    0.53604157   -3.05655817
     atom    6 type  1   force =    -0.00007052    1.19917773    0.95197000
     atom    7 type  1   force =     0.46393721   -0.26763882   -3.05655985
     atom    8 type  1   force =     1.03823388   -0.59921689    0.95196956
     atom    9 type  1   force =    -1.17691685    0.67958305    1.21981501
     atom   10 type  1   force =     0.09379318   -0.05402141   -0.01653522
     atom   11 type  1   force =     0.00112608   -1.36080774    1.21980623
     atom   12 type  1   force =     0.00108884    0.10654336   -0.01652781
     atom   13 type  1   force =     1.17910379    0.67964077    1.21980276
     atom   14 type  1   force =    -0.09160020   -0.05402332   -0.01652601
     atom   15 type  1   force =     0.00109015   -0.00050332    2.25943449
     atom   16 type  1   force =     0.00109574   -0.00049734   -1.86739570
     atom   17 type  2   force =    -0.00001069    0.00002248    0.08586306
     atom   18 type  2   force =    -1.08324128   -0.62532329    2.07975726
     atom   19 type  2   force =    -0.47814710   -0.27603039   -0.60152154
     atom   20 type  2   force =     0.00000785    1.25080156    2.07975614
     atom   21 type  2   force =    -0.00001001    0.55212744   -0.60152328
     atom   22 type  2   force =     1.08320771   -0.62538421    2.07975779
     atom   23 type  2   force =     0.47812387   -0.27602801   -0.60151926
     atom   24 type  2   force =     0.74418033   -0.42964235   -1.35160095
     atom   25 type  2   force =    -0.74270449    0.42881094   -0.32781088
     atom   26 type  2   force =     0.00008539    0.85916017   -1.35161039
     atom   27 type  2   force =     0.00008247   -0.85774145   -0.32780792
     atom   28 type  2   force =    -0.74401171   -0.42963200   -1.35161104
     atom   29 type  2   force =     0.74287713    0.42881475   -0.32780635
     atom   30 type  2   force =     0.00007847   -0.00003673   -1.17034067
     atom   31 type  2   force =     0.00008695   -0.00003837    1.10271697
     atom   32 type  1   force =    -0.00007556    0.00018938    1.00794276
     The core correction contribution to forces
     atom    1 type  1   force =    -0.00000619    0.00001561    0.01561813
     atom    2 type  1   force =    -0.00000631    0.00001821    0.00253376
     atom    3 type  1   force =    -0.00009175   -0.00003579   -0.00261763
     atom    4 type  1   force =     0.00037037    0.00023622    0.00153362
     atom    5 type  1   force =    -0.00000724    0.00011902   -0.00261759
     atom    6 type  1   force =    -0.00000565   -0.00041726    0.00153364
     atom    7 type  1   force =     0.00008085   -0.00003038   -0.00261770
     atom    8 type  1   force =    -0.00038302    0.00023598    0.00153363
     atom    9 type  1   force =     0.00838675   -0.00483650   -0.00291638
     atom   10 type  1   force =    -0.00087892    0.00051679    0.00142968
     atom   11 type  1   force =     0.00008317    0.00954936   -0.00291703
     atom   12 type  1   force =     0.00008023   -0.00114471    0.00142980
     atom   13 type  1   force =    -0.00822704   -0.00483113   -0.00291698
     atom   14 type  1   force =     0.00104036    0.00051647    0.00142982
     atom   15 type  1   force =     0.00007996   -0.00003737    0.00231099
     atom   16 type  1   force =     0.00008067   -0.00003695   -0.00002879
     atom   17 type  2   force =     0.00000023   -0.00000033    0.00087562
     atom   18 type  2   force =     0.00148252    0.00085569   -0.00313694
     atom   19 type  2   force =     0.00064300    0.00037077    0.00103910
     atom   20 type  2   force =     0.00000043   -0.00171200   -0.00313692
     atom   21 type  2   force =     0.00000024   -0.00074249    0.00103907
     atom   22 type  2   force =    -0.00148249    0.00085579   -0.00313696
     atom   23 type  2   force =    -0.00064253    0.00037078    0.00103916
     atom   24 type  2   force =    -0.00093260    0.00053822    0.00063919
     atom   25 type  2   force =     0.00023165   -0.00013378    0.00223600
     atom   26 type  2   force =    -0.00000241   -0.00107306    0.00063915
     atom   27 type  2   force =    -0.00000236    0.00027149    0.00223584
     atom   28 type  2   force =     0.00092783    0.00053879    0.00063939
     atom   29 type  2   force =    -0.00023634   -0.00013374    0.00223584
     atom   30 type  2   force =    -0.00000244    0.00000175    0.00056439
     atom   31 type  2   force =    -0.00000235    0.00000132   -0.00072094
     atom   32 type  1   force =    -0.00000579    0.00001333   -0.00426083
     The Hubbard contrib.    to forces
     atom    1 type  1   force =     0.00000000    0.00000000    0.00000000
     atom    2 type  1   force =     0.00000000    0.00000000    0.00000000
     atom    3 type  1   force =     0.00000000    0.00000000    0.00000000
     atom    4 type  1   force =     0.00000000    0.00000000    0.00000000
     atom    5 type  1   force =     0.00000000    0.00000000    0.00000000
     atom    6 type  1   force =     0.00000000    0.00000000    0.00000000
     atom    7 type  1   force =     0.00000000    0.00000000    0.00000000
     atom    8 type  1   force =     0.00000000    0.00000000    0.00000000
     atom    9 type  1   force =     0.00000000    0.00000000    0.00000000
     atom   10 type  1   force =     0.00000000    0.00000000    0.00000000
     atom   11 type  1   force =     0.00000000    0.00000000    0.00000000
     atom   12 type  1   force =     0.00000000    0.00000000    0.00000000
     atom   13 type  1   force =     0.00000000    0.00000000    0.00000000
     atom   14 type  1   force =     0.00000000    0.00000000    0.00000000
     atom   15 type  1   force =     0.00000000    0.00000000    0.00000000
     atom   16 type  1   force =     0.00000000    0.00000000    0.00000000
     atom   17 type  2   force =     0.00000000    0.00000000    0.00000000
     atom   18 type  2   force =     0.00000000    0.00000000    0.00000000
     atom   19 type  2   force =     0.00000000    0.00000000    0.00000000
     atom   20 type  2   force =     0.00000000    0.00000000    0.00000000
     atom   21 type  2   force =     0.00000000    0.00000000    0.00000000
     atom   22 type  2   force =     0.00000000    0.00000000    0.00000000
     atom   23 type  2   force =     0.00000000    0.00000000    0.00000000
     atom   24 type  2   force =     0.00000000    0.00000000    0.00000000
     atom   25 type  2   force =     0.00000000    0.00000000    0.00000000
     atom   26 type  2   force =     0.00000000    0.00000000    0.00000000
     atom   27 type  2   force =     0.00000000    0.00000000    0.00000000
     atom   28 type  2   force =     0.00000000    0.00000000    0.00000000
     atom   29 type  2   force =     0.00000000    0.00000000    0.00000000
     atom   30 type  2   force =     0.00000000    0.00000000    0.00000000
     atom   31 type  2   force =     0.00000000    0.00000000    0.00000000
     atom   32 type  1   force =     0.00000000    0.00000000    0.00000000
     The SCF correction term to forces
     atom    1 type  1   force =     0.00000000   -0.00000000   -0.00000013
     atom    2 type  1   force =     0.00000000   -0.00000000    0.00000224
     atom    3 type  1   force =    -0.00000326   -0.00000188    0.00000636
     atom    4 type  1   force =    -0.00000640   -0.00000369    0.00000105
     atom    5 type  1   force =    -0.00000000    0.00000377    0.00000636
     atom    6 type  1   force =    -0.00000000    0.00000739    0.00000105
     atom    7 type  1   force =     0.00000326   -0.00000188    0.00000636
     atom    8 type  1   force =     0.00000640   -0.00000369    0.00000105
     atom    9 type  1   force =     0.00000477   -0.00000275    0.00000336
     atom   10 type  1   force =    -0.00001019    0.00000588   -0.00001048
     atom   11 type  1   force =     0.00000000    0.00000551    0.00000336
     atom   12 type  1   force =    -0.00000000   -0.00001176   -0.00001048
     atom   13 type  1   force =    -0.00000477   -0.00000275    0.00000336
     atom   14 type  1   force =     0.00001019    0.00000588   -0.00001048
     atom   15 type  1   force =     0.00000000   -0.00000000    0.00000159
     atom   16 type  1   force =    -0.00000000    0.00000000   -0.00001947
     atom   17 type  2   force =     0.00000000   -0.00000000   -0.00000693
     atom   18 type  2   force =     0.00000005    0.00000003    0.00000268
     atom   19 type  2   force =     0.00000017    0.00000010   -0.00000546
     atom   20 type  2   force =     0.00000000   -0.00000006    0.00000268
     atom   21 type  2   force =    -0.00000000   -0.00000020   -0.00000546
     atom   22 type  2   force =    -0.00000005    0.00000003    0.00000268
     atom   23 type  2   force =    -0.00000017    0.00000010   -0.00000546
     atom   24 type  2   force =    -0.00000446    0.00000257    0.00000390
     atom   25 type  2   force =    -0.00000145    0.00000084   -0.00000184
     atom   26 type  2   force =    -0.00000000   -0.00000515    0.00000390
     atom   27 type  2   force =    -0.00000000   -0.00000167   -0.00000184
     atom   28 type  2   force =     0.00000446    0.00000257    0.00000390
     atom   29 type  2   force =     0.00000145    0.00000084   -0.00000184
     atom   30 type  2   force =    -0.00000000    0.00000000    0.00000311
     atom   31 type  2   force =    -0.00000000    0.00000000   -0.00000044
     atom   32 type  1   force =     0.00000000   -0.00000000    0.00001159

     Total force =     0.002145     Total SCF correction =     0.000045


     Computing stress (Cartesian axis) and pressure



     -----------------------------------------------
     Non-local corr. energy    =       9.09237600 Ry
     -----------------------------------------------

          total   stress  (Ry/bohr**3)                   (kbar)     P=       22.51
   0.00003591  -0.00000000   0.00000000            5.28       -0.00        0.00
  -0.00000000   0.00003591   0.00000000           -0.00        5.28        0.00
   0.00000000   0.00000000   0.00038720            0.00        0.00       56.96

     kinetic stress (kbar)  18543.69      0.00      0.00
                                0.00  18543.69      0.00
                                0.00      0.00  18639.61

     local   stress (kbar)   6976.04     -0.08     -0.00
                               -0.08   6975.94      0.00
                               -0.00      0.00   3067.12

     nonloc. stress (kbar)    257.22     -0.00      0.00
                               -0.00    257.22     -0.00
                                0.00     -0.00    228.74

     hartree stress (kbar)  20292.64     -0.00     -0.00
                               -0.00  20292.64     -0.00
                               -0.00     -0.00  21879.82

     exc-cor stress (kbar)   5679.33      0.00     -0.00
                                0.00   5679.33      0.00
                               -0.00      0.00   5685.51

     corecor stress (kbar) -14915.01     -0.00     -0.00
                               -0.00 -14915.01     -0.00
                               -0.00     -0.00 -14916.52

     ewald   stress (kbar) -36998.86      0.10      0.00
                                0.10 -36998.74     -0.00
                                0.00     -0.00 -34694.96

     hubbard stress (kbar)      0.00      0.00      0.00
                                0.00      0.00      0.00
                                0.00      0.00      0.00

     DFT-D   stress (kbar)      0.00      0.00      0.00
                                0.00      0.00      0.00
                                0.00      0.00      0.00

     XDM     stress (kbar)      0.00      0.00      0.00
                                0.00      0.00      0.00
                                0.00      0.00      0.00

     dft-nl  stress (kbar)    170.22     -0.00      0.00
                               -0.00    170.22     -0.00
                                0.00     -0.00    167.64

     TS-vdW  stress (kbar)      0.00      0.00      0.00
                                0.00      0.00      0.00
                                0.00      0.00      0.00

     MDB     stress (kbar)      0.00      0.00      0.00
                                0.00      0.00      0.00
                                0.00      0.00      0.00

     3D-RISM stress (kbar)      0.00      0.00      0.00
                                0.00      0.00      0.00
                                0.00      0.00      0.00

     Energy error            =      1.4E-05 Ry
     Gradient error          =      8.4E-04 Ry/Bohr

     bfgs converged in  18 scf cycles and  17 bfgs steps
     (criteria: energy <  1.0E-04 Ry, force <  1.0E-03 Ry/Bohr)

     End of BFGS Geometry Optimization

     Final energy             =   -5251.3793827615 Ry

     File ./GaN.bfgs deleted, as requested
Begin final coordinates

ATOMIC_POSITIONS (angstrom)
Ga            1.6222756606        0.9366198184        2.1685581235
Ga            1.6222756606        0.9366198184        7.9506919111
Ga           -0.0150938348        3.7377659036        2.6072053632
Ga            0.0373111039        3.7680219090        7.9986903163
Ga            4.8668240777        0.9540503543        2.6072053632
Ga            4.8668240777        0.8935383434        7.9986903163
Ga            3.2596451560        3.7377659036        2.6072053632
Ga            3.2072402173        3.7680219090        7.9986903163
Ga           -0.1725370465        1.9728556224        5.4733740863
Ga           -0.0325049556        1.8920080570       10.5002719294
Ga           -1.6222761733        4.4838774478        5.4733740863
Ga           -1.6222761733        4.6455725786       10.5002719294
Ga            3.4170815340        1.9728556224        5.4733740863
Ga            3.2770494431        1.8920080570       10.5002719294
Ga            1.6222722437        4.6831037996        5.2984579027
Ga            1.6222722437        4.6831037996       10.6346736185
N             1.6222756606        0.9366198184        9.9310256553
N            -0.0025373365        3.7450154012        4.6354619491
N             0.0313670811        3.7645901259        9.9316418291
N             4.8668240777        0.9395513589        4.6354619491
N             4.8668240777        0.9004019097        9.9316418291
N             3.2470886577        3.7450154012        4.6354619491
N             3.2131842401        3.7645901259        9.9316418291
N            -0.0583227402        1.9069139619        1.8801312821
N            -0.0317331791        1.8915624716        7.3901975179
N            -1.6222761733        4.6157607688        1.8801312821
N            -1.6222761733        4.6464637494        7.3901975179
N             3.3028672277        1.9069139619        1.8801312821
N             3.2762776666        1.8915624716        7.3901975179
N             1.6222722437        4.6831037996        2.0421363546
N             1.6222722437        4.6831037996        7.2661568975
Ga            1.6222756606        0.9366198184        4.4097971047
End final coordinates



     Writing all to output data dir ./GaN.save/
 
     init_run     :      3.81s CPU      3.93s WALL (       1 calls)
     electrons    :   2882.28s CPU   2945.17s WALL (      18 calls)
     update_pot   :     13.48s CPU     13.61s WALL (      17 calls)
     forces       :     23.58s CPU     23.91s WALL (      18 calls)
     stress       :    106.30s CPU    107.41s WALL (      18 calls)

     Called by init_run:
     wfcinit      :      2.02s CPU      2.07s WALL (       1 calls)
     wfcinit:atom :      0.02s CPU      0.02s WALL (       8 calls)
     wfcinit:wfcr :      1.90s CPU      1.94s WALL (       8 calls)
     potinit      :      1.52s CPU      1.56s WALL (       1 calls)
     hinit0       :      0.11s CPU      0.11s WALL (       1 calls)

     Called by electrons:
     c_bands      :   2543.95s CPU   2596.31s WALL (     252 calls)
     sum_band     :    174.91s CPU    182.75s WALL (     252 calls)
     v_of_rho     :     49.46s CPU     50.07s WALL (     270 calls)
     v_h          :      0.41s CPU      0.41s WALL (     270 calls)
     v_xc         :     55.60s CPU     56.28s WALL (     306 calls)
     newd         :     13.22s CPU     13.43s WALL (     270 calls)
     PAW_pot      :    116.19s CPU    116.92s WALL (     287 calls)
     mix_rho      :      1.72s CPU      1.81s WALL (     252 calls)
     vdW_kernel   :      0.85s CPU      0.86s WALL (       1 calls)

     Called by c_bands:
     init_us_2    :     18.66s CPU     18.97s WALL (    4464 calls)
     init_us_2:cp :     18.60s CPU     18.94s WALL (    4464 calls)
     cegterg      :   2502.57s CPU   2553.13s WALL (    2016 calls)

     Called by sum_band:
     sum_band:wei :      0.15s CPU      0.17s WALL (     252 calls)
     sum_band:loo :    157.82s CPU    160.28s WALL (     252 calls)
     sum_band:buf :      6.78s CPU      7.43s WALL (    2016 calls)
     sum_band:ini :      6.43s CPU      6.51s WALL (    2016 calls)
     sum_band:cal :     37.95s CPU     38.17s WALL (    2152 calls)
     sum_band:bec :      1.02s CPU      1.05s WALL (    2152 calls)
     addusdens    :     14.24s CPU     19.52s WALL (     252 calls)
     addusd:skk   :      0.42s CPU      0.79s WALL (     504 calls)
     addusd:dgemm :      8.32s CPU     13.09s WALL (     504 calls)
     addusd:qvan2 :      4.90s CPU      4.95s WALL (     504 calls)

     Called by *egterg:
     cdiaghg      :   1188.20s CPU   1195.03s WALL (   14747 calls)
     cegterg:over :    162.05s CPU    168.04s WALL (   12867 calls)
     cegterg:upda :    120.03s CPU    123.19s WALL (   12867 calls)
     cegterg:last :     49.00s CPU     49.43s WALL (    2225 calls)
     h_psi        :    809.65s CPU    825.20s WALL (   14891 calls)
     s_psi        :    102.30s CPU    103.11s WALL (   14891 calls)
     g_psi        :      1.09s CPU      1.11s WALL (   12867 calls)

     Called by h_psi:
     h_psi:calbec :    125.36s CPU    126.31s WALL (   14891 calls)
     vloc_psi     :    573.49s CPU    581.75s WALL (   14891 calls)
     add_vuspsi   :    102.84s CPU    104.38s WALL (   14891 calls)

     General routines
     calbec       :    180.60s CPU    181.94s WALL (   17763 calls)
     fft          :     27.09s CPU     27.41s WALL (   20033 calls)
     ffts         :      0.86s CPU      0.87s WALL (     522 calls)
     fftw         :    640.36s CPU    648.94s WALL ( 2352806 calls)
     interpolate  :      1.59s CPU      1.61s WALL (     270 calls)
 
     Parallel routines

     PAW routines
     PAW_pot      :    116.19s CPU    116.92s WALL (     287 calls)
     PAW_symme    :      0.16s CPU      0.16s WALL (     539 calls)
 
     PWSCF        :  50m42.69s CPU  51m49.55s WALL

 
   This run was terminated on:  21:15:17  27Mar2024            

=------------------------------------------------------------------------------=
   JOB DONE.
=------------------------------------------------------------------------------=
