
     Program PWSCF v.7.1 starts on  8Oct2023 at 10:46:33 

     This program is part of the open-source Quantum ESPRESSO suite
     for quantum simulation of materials; please cite
         "P. Giannozzi et al., J. Phys.:Condens. Matter 21 395502 (2009);
         "P. Giannozzi et al., J. Phys.:Condens. Matter 29 465901 (2017);
         "P. Giannozzi et al., J. Chem. Phys. 152 154105 (2020);
          URL http://www.quantum-espresso.org", 
     in publications or presentations arising from this work. More details at
     http://www.quantum-espresso.org/quote

     Parallel version (MPI & OpenMP), running on     256 processor cores
     Number of MPI processes:               256
     Threads/MPI process:                     1

     MPI processes distributed on     2 nodes
     2024542 MiB available memory on the printing compute node when the environment starts
 
     Reading input from espresso.pwi
Warning: card &CELL ignored
Warning: card    CELL_DYNAMICS    = 'BFGS' ignored
Warning: card / ignored

     Current dimensions of program PWSCF are:
     Max number of different atomic species (ntypx) = 10
     Max number of k-points (npk) =  40000
     Max angular momentum in pseudopotentials (lmaxx) =  4
     file C.pbe-n-kjpaw_psl.1.0.0.UPF: wavefunction(s)  2S 2P renormalized

     **************************************************************************
     Initializing libbeef V0.1.2 with the BEEF-vdW functional.
     Citation: Wellendorff et al., PRB 85, 235149 (2012).
     **************************************************************************


     IMPORTANT: XC functional enforced from input :
     Exchange-correlation= BEEF-VDW
                           (   1   4  43  14   2   0   0)
     Any further DFT definition will be discarded
     Please, verify this is what you really want

 
     K-points division:     npool     =       4
     R & G space division:  proc/nbgrp/npool/nimage =      64
     Subspace diagonalization in iterative solution of the eigenvalue problem:
     a serial algorithm will be used

 
     Parallelization info
     --------------------
     sticks:   dense  smooth     PW     G-vecs:    dense   smooth      PW
     Min         178     142     38                14350    10258    1410
     Max         179     143     39                14357    10265    1416
     Sum       11433    9133   2433               918657   656775   90447
 
     Using Slab Decomposition
 


     bravais-lattice index     =            1
     lattice parameter (alat)  =      20.2520  a.u.
     unit-cell volume          =    8306.2556 (a.u.)^3
     number of atoms/cell      =          215
     number of atomic types    =            1
     number of electrons       =       861.00
     number of Kohn-Sham states=          517
     kinetic-energy cutoff     =      70.0000  Ry
     charge density cutoff     =     350.0000  Ry
     scf convergence threshold =      1.0E-08
     mixing beta               =       0.7000
     number of iterations used =            8  plain     mixing
     Exchange-correlation= BEEF-VDW
                           (   1   4  43  14   2   0   0)

     celldm(1)=  20.252024  celldm(2)=   0.000000  celldm(3)=   0.000000
     celldm(4)=   0.000000  celldm(5)=   0.000000  celldm(6)=   0.000000

     crystal axes: (cart. coord. in units of alat)
               a(1) = (   1.000000   0.000000   0.000000 )  
               a(2) = (   0.000000   1.000000   0.000000 )  
               a(3) = (   0.000000   0.000000   1.000000 )  

     reciprocal axes: (cart. coord. in units 2 pi/alat)
               b(1) = (  1.000000  0.000000  0.000000 )  
               b(2) = (  0.000000  1.000000  0.000000 )  
               b(3) = (  0.000000  0.000000  1.000000 )  


     PseudoPot. # 1 for C  read from file:
     /trace/group/acmegroup/atimmins/packages/espresso/pseudo/psl_1.0.0/pslibrary.1.0.0/pbe/PSEUDOPOTENTIALS/C.pbe-n-kjpaw_psl.1.0.0.UPF
     MD5 check sum: 5459cf7f2c8c37df2f7cde8914797f4d
     Pseudo is Projector augmented-wave + core cor, Zval =  4.0
     Generated using 'atomic' code by A. Dal Corso  v.7.1
     Shape of augmentation charge: PSQ
     Using radial grid of 1073 points,  4 beta functions with: 
                l(1) =   0
                l(2) =   0
                l(3) =   1
                l(4) =   1
     Q(r) pseudized with 0 coefficients 


     atomic species   valence    mass     pseudopotential
        C              4.00    12.01100     C ( 1.00)

      6 Sym. Ops. (no inversion) found ( 4 have fractional translation)


                                    s                        frac. trans.

      isym =  1     identity                                     

 cryst.   s( 1) = (     1          0          0      )
                  (     0          1          0      )
                  (     0          0          1      )

 cart.    s( 1) = (  1.0000000  0.0000000  0.0000000 )
                  (  0.0000000  1.0000000  0.0000000 )
                  (  0.0000000  0.0000000  1.0000000 )


      isym =  2     120 deg rotation - cart. axis [1,-1,1]       

 cryst.   s( 2) = (     0          0          1      )    f =( -0.3333333 )
                  (    -1          0          0      )       ( -0.3333333 )
                  (     0         -1          0      )       (  0.0000000 )

 cart.    s( 2) = (  0.0000000 -1.0000000  0.0000000 )    f =( -0.3333333 )
                  (  0.0000000  0.0000000 -1.0000000 )       ( -0.3333333 )
                  (  1.0000000  0.0000000  0.0000000 )       (  0.0000000 )


      isym =  3     120 deg rotation - cart. axis [-1,1,-1]      

 cryst.   s( 3) = (     0         -1          0      )    f =(  0.0000000 )
                  (     0          0         -1      )       ( -0.3333333 )
                  (     1          0          0      )       ( -0.3333333 )

 cart.    s( 3) = (  0.0000000  0.0000000  1.0000000 )    f =(  0.0000000 )
                  ( -1.0000000  0.0000000  0.0000000 )       ( -0.3333333 )
                  (  0.0000000 -1.0000000  0.0000000 )       ( -0.3333333 )


      isym =  4     inv. 180 deg rotation - cart. axis [1,1,0]   

 cryst.   s( 4) = (     0         -1          0      )    f =( -0.3333333 )
                  (    -1          0          0      )       ( -0.3333333 )
                  (     0          0          1      )       (  0.0000000 )

 cart.    s( 4) = (  0.0000000 -1.0000000  0.0000000 )    f =( -0.3333333 )
                  ( -1.0000000  0.0000000  0.0000000 )       ( -0.3333333 )
                  (  0.0000000  0.0000000  1.0000000 )       (  0.0000000 )


      isym =  5     inv. 180 deg rotation - cart. axis [-1,0,1]  

 cryst.   s( 5) = (     0          0          1      )
                  (     0          1          0      )
                  (     1          0          0      )

 cart.    s( 5) = (  0.0000000  0.0000000  1.0000000 )
                  (  0.0000000  1.0000000  0.0000000 )
                  (  1.0000000  0.0000000  0.0000000 )


      isym =  6     inv. 180 deg rotation - cart. axis [0,1,1]   

 cryst.   s( 6) = (     1          0          0      )    f =(  0.0000000 )
                  (     0          0         -1      )       ( -0.3333333 )
                  (     0         -1          0      )       ( -0.3333333 )

 cart.    s( 6) = (  1.0000000  0.0000000  0.0000000 )    f =(  0.0000000 )
                  (  0.0000000  0.0000000 -1.0000000 )       ( -0.3333333 )
                  (  0.0000000 -1.0000000  0.0000000 )       ( -0.3333333 )


     point group C_3v (3m)  
     there are  3 classes
     the character table:

       E     2C3   3s_v 
A_1    1.00  1.00  1.00
A_2    1.00  1.00 -1.00
E      2.00 -1.00  0.00

     the symmetry operations in each class and the name of the first element:

     E        1
          identity                                               
     2C3      2    3
          120 deg rotation - cart. axis [1,-1,1]                 
     3s_v     4    5    6
          inv. 180 deg rotation - cart. axis [1,1,0]             

   Cartesian axes

     site n.     atom                  positions (alat units)
         1           C   tau(   1) = (   0.0833353   0.2499980   0.4166687  )
         2           C   tau(   2) = (   0.0833353   0.2499980   0.7500020  )
         3           C   tau(   3) = (   0.0833353   0.5833313   0.0833353  )
         4           C   tau(   4) = (   0.0833353   0.5833313   0.4166687  )
         5           C   tau(   5) = (   0.0833353   0.5833313   0.7500020  )
         6           C   tau(   6) = (   0.0833353   0.9166647   0.0833353  )
         7           C   tau(   7) = (   0.0833353   0.9166647   0.4166687  )
         8           C   tau(   8) = (   0.0833353   0.9166647   0.7500020  )
         9           C   tau(   9) = (   0.4166687   0.2499980   0.0833353  )
        10           C   tau(  10) = (   0.4166687   0.2499980   0.4166687  )
        11           C   tau(  11) = (   0.4166687   0.2499980   0.7500020  )
        12           C   tau(  12) = (   0.4166687   0.5833313   0.0833353  )
        13           C   tau(  13) = (   0.4166687   0.5833313   0.4166687  )
        14           C   tau(  14) = (   0.4166687   0.5833313   0.7500020  )
        15           C   tau(  15) = (   0.4166687   0.9166647   0.0833353  )
        16           C   tau(  16) = (   0.4166687   0.9166647   0.4166687  )
        17           C   tau(  17) = (   0.4166687   0.9166647   0.7500020  )
        18           C   tau(  18) = (   0.7500020   0.2499980   0.0833353  )
        19           C   tau(  19) = (   0.7500020   0.2499980   0.4166687  )
        20           C   tau(  20) = (   0.7500020   0.2499980   0.7500020  )
        21           C   tau(  21) = (   0.7500020   0.5833313   0.0833353  )
        22           C   tau(  22) = (   0.7500020   0.5833313   0.4166687  )
        23           C   tau(  23) = (   0.7500020   0.5833313   0.7500020  )
        24           C   tau(  24) = (   0.7500020   0.9166647   0.0833353  )
        25           C   tau(  25) = (   0.7500020   0.9166647   0.4166687  )
        26           C   tau(  26) = (   0.7500020   0.9166647   0.7500020  )
        27           C   tau(  27) = (   0.0000000   0.0000000   0.1666667  )
        28           C   tau(  28) = (   0.0000000   0.0000000   0.5000000  )
        29           C   tau(  29) = (   0.0000000   0.0000000   0.8333333  )
        30           C   tau(  30) = (   0.0000000   0.3333333   0.1666667  )
        31           C   tau(  31) = (   0.0000000   0.3333333   0.5000000  )
        32           C   tau(  32) = (   0.0000000   0.3333333   0.8333333  )
        33           C   tau(  33) = (   0.0000000   0.6666667   0.1666667  )
        34           C   tau(  34) = (   0.0000000   0.6666667   0.5000000  )
        35           C   tau(  35) = (   0.0000000   0.6666667   0.8333333  )
        36           C   tau(  36) = (   0.3333333   0.0000000   0.1666667  )
        37           C   tau(  37) = (   0.3333333   0.0000000   0.5000000  )
        38           C   tau(  38) = (   0.3333333   0.0000000   0.8333333  )
        39           C   tau(  39) = (   0.3333333   0.3333333   0.1666667  )
        40           C   tau(  40) = (   0.3333333   0.3333333   0.5000000  )
        41           C   tau(  41) = (   0.3333333   0.3333333   0.8333333  )
        42           C   tau(  42) = (   0.3333333   0.6666667   0.1666667  )
        43           C   tau(  43) = (   0.3333333   0.6666667   0.5000000  )
        44           C   tau(  44) = (   0.3333333   0.6666667   0.8333333  )
        45           C   tau(  45) = (   0.6666667   0.0000000   0.1666667  )
        46           C   tau(  46) = (   0.6666667   0.0000000   0.5000000  )
        47           C   tau(  47) = (   0.6666667   0.0000000   0.8333333  )
        48           C   tau(  48) = (   0.6666667   0.3333333   0.1666667  )
        49           C   tau(  49) = (   0.6666667   0.3333333   0.5000000  )
        50           C   tau(  50) = (   0.6666667   0.3333333   0.8333333  )
        51           C   tau(  51) = (   0.6666667   0.6666667   0.1666667  )
        52           C   tau(  52) = (   0.6666667   0.6666667   0.5000000  )
        53           C   tau(  53) = (   0.6666667   0.6666667   0.8333333  )
        54           C   tau(  54) = (   0.0833353   0.0833353   0.2499980  )
        55           C   tau(  55) = (   0.0833353   0.0833353   0.5833313  )
        56           C   tau(  56) = (   0.0833353   0.0833353   0.9166647  )
        57           C   tau(  57) = (   0.0833353   0.4166687   0.2499980  )
        58           C   tau(  58) = (   0.0833353   0.4166687   0.5833313  )
        59           C   tau(  59) = (   0.0833353   0.4166687   0.9166647  )
        60           C   tau(  60) = (   0.0833353   0.7500020   0.2499980  )
        61           C   tau(  61) = (   0.0833353   0.7500020   0.5833313  )
        62           C   tau(  62) = (   0.0833353   0.7500020   0.9166647  )
        63           C   tau(  63) = (   0.4166687   0.0833353   0.2499980  )
        64           C   tau(  64) = (   0.4166687   0.0833353   0.5833313  )
        65           C   tau(  65) = (   0.4166687   0.0833353   0.9166647  )
        66           C   tau(  66) = (   0.4166687   0.4166687   0.2499980  )
        67           C   tau(  67) = (   0.4166687   0.4166687   0.5833313  )
        68           C   tau(  68) = (   0.4166687   0.4166687   0.9166647  )
        69           C   tau(  69) = (   0.4166687   0.7500020   0.2499980  )
        70           C   tau(  70) = (   0.4166687   0.7500020   0.5833313  )
        71           C   tau(  71) = (   0.4166687   0.7500020   0.9166647  )
        72           C   tau(  72) = (   0.7500020   0.0833353   0.2499980  )
        73           C   tau(  73) = (   0.7500020   0.0833353   0.5833313  )
        74           C   tau(  74) = (   0.7500020   0.0833353   0.9166647  )
        75           C   tau(  75) = (   0.7500020   0.4166687   0.2499980  )
        76           C   tau(  76) = (   0.7500020   0.4166687   0.5833313  )
        77           C   tau(  77) = (   0.7500020   0.4166687   0.9166647  )
        78           C   tau(  78) = (   0.7500020   0.7500020   0.2499980  )
        79           C   tau(  79) = (   0.7500020   0.7500020   0.5833313  )
        80           C   tau(  80) = (   0.7500020   0.7500020   0.9166647  )
        81           C   tau(  81) = (   0.0000000   0.1666667   0.0000000  )
        82           C   tau(  82) = (   0.0000000   0.1666667   0.3333333  )
        83           C   tau(  83) = (   0.0000000   0.1666667   0.6666667  )
        84           C   tau(  84) = (   0.0000000   0.5000000   0.0000000  )
        85           C   tau(  85) = (   0.0000000   0.5000000   0.3333333  )
        86           C   tau(  86) = (   0.0000000   0.5000000   0.6666667  )
        87           C   tau(  87) = (   0.0000000   0.8333333   0.0000000  )
        88           C   tau(  88) = (   0.0000000   0.8333333   0.3333333  )
        89           C   tau(  89) = (   0.0000000   0.8333333   0.6666667  )
        90           C   tau(  90) = (   0.3333333   0.1666667   0.0000000  )
        91           C   tau(  91) = (   0.3333333   0.1666667   0.3333333  )
        92           C   tau(  92) = (   0.3333333   0.1666667   0.6666667  )
        93           C   tau(  93) = (   0.3333333   0.5000000   0.0000000  )
        94           C   tau(  94) = (   0.3333333   0.5000000   0.3333333  )
        95           C   tau(  95) = (   0.3333333   0.5000000   0.6666667  )
        96           C   tau(  96) = (   0.3333333   0.8333333   0.0000000  )
        97           C   tau(  97) = (   0.3333333   0.8333333   0.3333333  )
        98           C   tau(  98) = (   0.3333333   0.8333333   0.6666667  )
        99           C   tau(  99) = (   0.6666667   0.1666667   0.0000000  )
       100           C   tau( 100) = (   0.6666667   0.1666667   0.3333333  )
       101           C   tau( 101) = (   0.6666667   0.1666667   0.6666667  )
       102           C   tau( 102) = (   0.6666667   0.5000000   0.0000000  )
       103           C   tau( 103) = (   0.6666667   0.5000000   0.3333333  )
       104           C   tau( 104) = (   0.6666667   0.5000000   0.6666667  )
       105           C   tau( 105) = (   0.6666667   0.8333333   0.0000000  )
       106           C   tau( 106) = (   0.6666667   0.8333333   0.3333333  )
       107           C   tau( 107) = (   0.6666667   0.8333333   0.6666667  )
       108           C   tau( 108) = (   0.2499980   0.2499980   0.2499980  )
       109           C   tau( 109) = (   0.2499980   0.2499980   0.5833313  )
       110           C   tau( 110) = (   0.2499980   0.2499980   0.9166647  )
       111           C   tau( 111) = (   0.2499980   0.5833313   0.2499980  )
       112           C   tau( 112) = (   0.2499980   0.5833313   0.5833313  )
       113           C   tau( 113) = (   0.2499980   0.5833313   0.9166647  )
       114           C   tau( 114) = (   0.2499980   0.9166647   0.2499980  )
       115           C   tau( 115) = (   0.2499980   0.9166647   0.5833313  )
       116           C   tau( 116) = (   0.2499980   0.9166647   0.9166647  )
       117           C   tau( 117) = (   0.5833313   0.2499980   0.2499980  )
       118           C   tau( 118) = (   0.5833313   0.2499980   0.5833313  )
       119           C   tau( 119) = (   0.5833313   0.2499980   0.9166647  )
       120           C   tau( 120) = (   0.5833313   0.5833313   0.2499980  )
       121           C   tau( 121) = (   0.5833313   0.5833313   0.5833313  )
       122           C   tau( 122) = (   0.5833313   0.5833313   0.9166647  )
       123           C   tau( 123) = (   0.5833313   0.9166647   0.2499980  )
       124           C   tau( 124) = (   0.5833313   0.9166647   0.5833313  )
       125           C   tau( 125) = (   0.5833313   0.9166647   0.9166647  )
       126           C   tau( 126) = (   0.9166647   0.2499980   0.2499980  )
       127           C   tau( 127) = (   0.9166647   0.2499980   0.5833313  )
       128           C   tau( 128) = (   0.9166647   0.2499980   0.9166647  )
       129           C   tau( 129) = (   0.9166647   0.5833313   0.2499980  )
       130           C   tau( 130) = (   0.9166647   0.5833313   0.5833313  )
       131           C   tau( 131) = (   0.9166647   0.5833313   0.9166647  )
       132           C   tau( 132) = (   0.9166647   0.9166647   0.2499980  )
       133           C   tau( 133) = (   0.9166647   0.9166647   0.5833313  )
       134           C   tau( 134) = (   0.9166647   0.9166647   0.9166647  )
       135           C   tau( 135) = (   0.1666667   0.0000000   0.0000000  )
       136           C   tau( 136) = (   0.1666667   0.0000000   0.3333333  )
       137           C   tau( 137) = (   0.1666667   0.0000000   0.6666667  )
       138           C   tau( 138) = (   0.1666667   0.3333333   0.0000000  )
       139           C   tau( 139) = (   0.1666667   0.3333333   0.3333333  )
       140           C   tau( 140) = (   0.1666667   0.3333333   0.6666667  )
       141           C   tau( 141) = (   0.1666667   0.6666667   0.0000000  )
       142           C   tau( 142) = (   0.1666667   0.6666667   0.3333333  )
       143           C   tau( 143) = (   0.1666667   0.6666667   0.6666667  )
       144           C   tau( 144) = (   0.5000000   0.0000000   0.0000000  )
       145           C   tau( 145) = (   0.5000000   0.0000000   0.3333333  )
       146           C   tau( 146) = (   0.5000000   0.0000000   0.6666667  )
       147           C   tau( 147) = (   0.5000000   0.3333333   0.0000000  )
       148           C   tau( 148) = (   0.5000000   0.3333333   0.3333333  )
       149           C   tau( 149) = (   0.5000000   0.3333333   0.6666667  )
       150           C   tau( 150) = (   0.5000000   0.6666667   0.0000000  )
       151           C   tau( 151) = (   0.5000000   0.6666667   0.3333333  )
       152           C   tau( 152) = (   0.5000000   0.6666667   0.6666667  )
       153           C   tau( 153) = (   0.8333333   0.0000000   0.0000000  )
       154           C   tau( 154) = (   0.8333333   0.0000000   0.3333333  )
       155           C   tau( 155) = (   0.8333333   0.0000000   0.6666667  )
       156           C   tau( 156) = (   0.8333333   0.3333333   0.0000000  )
       157           C   tau( 157) = (   0.8333333   0.3333333   0.3333333  )
       158           C   tau( 158) = (   0.8333333   0.3333333   0.6666667  )
       159           C   tau( 159) = (   0.8333333   0.6666667   0.0000000  )
       160           C   tau( 160) = (   0.8333333   0.6666667   0.3333333  )
       161           C   tau( 161) = (   0.8333333   0.6666667   0.6666667  )
       162           C   tau( 162) = (   0.2499980   0.0833353   0.0833353  )
       163           C   tau( 163) = (   0.2499980   0.0833353   0.4166687  )
       164           C   tau( 164) = (   0.2499980   0.0833353   0.7500020  )
       165           C   tau( 165) = (   0.2499980   0.4166687   0.0833353  )
       166           C   tau( 166) = (   0.2499980   0.4166687   0.4166687  )
       167           C   tau( 167) = (   0.2499980   0.4166687   0.7500020  )
       168           C   tau( 168) = (   0.2499980   0.7500020   0.0833353  )
       169           C   tau( 169) = (   0.2499980   0.7500020   0.4166687  )
       170           C   tau( 170) = (   0.2499980   0.7500020   0.7500020  )
       171           C   tau( 171) = (   0.5833313   0.0833353   0.0833353  )
       172           C   tau( 172) = (   0.5833313   0.0833353   0.4166687  )
       173           C   tau( 173) = (   0.5833313   0.0833353   0.7500020  )
       174           C   tau( 174) = (   0.5833313   0.4166687   0.0833353  )
       175           C   tau( 175) = (   0.5833313   0.4166687   0.4166687  )
       176           C   tau( 176) = (   0.5833313   0.4166687   0.7500020  )
       177           C   tau( 177) = (   0.5833313   0.7500020   0.0833353  )
       178           C   tau( 178) = (   0.5833313   0.7500020   0.4166687  )
       179           C   tau( 179) = (   0.5833313   0.7500020   0.7500020  )
       180           C   tau( 180) = (   0.9166647   0.0833353   0.0833353  )
       181           C   tau( 181) = (   0.9166647   0.0833353   0.4166687  )
       182           C   tau( 182) = (   0.9166647   0.0833353   0.7500020  )
       183           C   tau( 183) = (   0.9166647   0.4166687   0.0833353  )
       184           C   tau( 184) = (   0.9166647   0.4166687   0.4166687  )
       185           C   tau( 185) = (   0.9166647   0.4166687   0.7500020  )
       186           C   tau( 186) = (   0.9166647   0.7500020   0.0833353  )
       187           C   tau( 187) = (   0.9166647   0.7500020   0.4166687  )
       188           C   tau( 188) = (   0.9166647   0.7500020   0.7500020  )
       189           C   tau( 189) = (   0.1666667   0.1666667   0.1666667  )
       190           C   tau( 190) = (   0.1666667   0.1666667   0.5000000  )
       191           C   tau( 191) = (   0.1666667   0.1666667   0.8333333  )
       192           C   tau( 192) = (   0.1666667   0.5000000   0.1666667  )
       193           C   tau( 193) = (   0.1666667   0.5000000   0.5000000  )
       194           C   tau( 194) = (   0.1666667   0.5000000   0.8333333  )
       195           C   tau( 195) = (   0.1666667   0.8333333   0.1666667  )
       196           C   tau( 196) = (   0.1666667   0.8333333   0.5000000  )
       197           C   tau( 197) = (   0.1666667   0.8333333   0.8333333  )
       198           C   tau( 198) = (   0.5000000   0.1666667   0.1666667  )
       199           C   tau( 199) = (   0.5000000   0.1666667   0.5000000  )
       200           C   tau( 200) = (   0.5000000   0.1666667   0.8333333  )
       201           C   tau( 201) = (   0.5000000   0.5000000   0.1666667  )
       202           C   tau( 202) = (   0.5000000   0.5000000   0.5000000  )
       203           C   tau( 203) = (   0.5000000   0.5000000   0.8333333  )
       204           C   tau( 204) = (   0.5000000   0.8333333   0.1666667  )
       205           C   tau( 205) = (   0.5000000   0.8333333   0.5000000  )
       206           C   tau( 206) = (   0.5000000   0.8333333   0.8333333  )
       207           C   tau( 207) = (   0.8333333   0.1666667   0.1666667  )
       208           C   tau( 208) = (   0.8333333   0.1666667   0.5000000  )
       209           C   tau( 209) = (   0.8333333   0.1666667   0.8333333  )
       210           C   tau( 210) = (   0.8333333   0.5000000   0.1666667  )
       211           C   tau( 211) = (   0.8333333   0.5000000   0.5000000  )
       212           C   tau( 212) = (   0.8333333   0.5000000   0.8333333  )
       213           C   tau( 213) = (   0.8333333   0.8333333   0.1666667  )
       214           C   tau( 214) = (   0.8333333   0.8333333   0.5000000  )
       215           C   tau( 215) = (   0.8333333   0.8333333   0.8333333  )

   Crystallographic axes

     site n.     atom                  positions (cryst. coord.)
         1           C   tau(   1) = (  0.0833353  0.2499980  0.4166687  )
         2           C   tau(   2) = (  0.0833353  0.2499980  0.7500020  )
         3           C   tau(   3) = (  0.0833353  0.5833313  0.0833353  )
         4           C   tau(   4) = (  0.0833353  0.5833313  0.4166687  )
         5           C   tau(   5) = (  0.0833353  0.5833313  0.7500020  )
         6           C   tau(   6) = (  0.0833353  0.9166647  0.0833353  )
         7           C   tau(   7) = (  0.0833353  0.9166647  0.4166687  )
         8           C   tau(   8) = (  0.0833353  0.9166647  0.7500020  )
         9           C   tau(   9) = (  0.4166687  0.2499980  0.0833353  )
        10           C   tau(  10) = (  0.4166687  0.2499980  0.4166687  )
        11           C   tau(  11) = (  0.4166687  0.2499980  0.7500020  )
        12           C   tau(  12) = (  0.4166687  0.5833313  0.0833353  )
        13           C   tau(  13) = (  0.4166687  0.5833313  0.4166687  )
        14           C   tau(  14) = (  0.4166687  0.5833313  0.7500020  )
        15           C   tau(  15) = (  0.4166687  0.9166647  0.0833353  )
        16           C   tau(  16) = (  0.4166687  0.9166647  0.4166687  )
        17           C   tau(  17) = (  0.4166687  0.9166647  0.7500020  )
        18           C   tau(  18) = (  0.7500020  0.2499980  0.0833353  )
        19           C   tau(  19) = (  0.7500020  0.2499980  0.4166687  )
        20           C   tau(  20) = (  0.7500020  0.2499980  0.7500020  )
        21           C   tau(  21) = (  0.7500020  0.5833313  0.0833353  )
        22           C   tau(  22) = (  0.7500020  0.5833313  0.4166687  )
        23           C   tau(  23) = (  0.7500020  0.5833313  0.7500020  )
        24           C   tau(  24) = (  0.7500020  0.9166647  0.0833353  )
        25           C   tau(  25) = (  0.7500020  0.9166647  0.4166687  )
        26           C   tau(  26) = (  0.7500020  0.9166647  0.7500020  )
        27           C   tau(  27) = (  0.0000000  0.0000000  0.1666667  )
        28           C   tau(  28) = (  0.0000000  0.0000000  0.5000000  )
        29           C   tau(  29) = (  0.0000000  0.0000000  0.8333333  )
        30           C   tau(  30) = (  0.0000000  0.3333333  0.1666667  )
        31           C   tau(  31) = (  0.0000000  0.3333333  0.5000000  )
        32           C   tau(  32) = (  0.0000000  0.3333333  0.8333333  )
        33           C   tau(  33) = (  0.0000000  0.6666667  0.1666667  )
        34           C   tau(  34) = (  0.0000000  0.6666667  0.5000000  )
        35           C   tau(  35) = (  0.0000000  0.6666667  0.8333333  )
        36           C   tau(  36) = (  0.3333333  0.0000000  0.1666667  )
        37           C   tau(  37) = (  0.3333333  0.0000000  0.5000000  )
        38           C   tau(  38) = (  0.3333333  0.0000000  0.8333333  )
        39           C   tau(  39) = (  0.3333333  0.3333333  0.1666667  )
        40           C   tau(  40) = (  0.3333333  0.3333333  0.5000000  )
        41           C   tau(  41) = (  0.3333333  0.3333333  0.8333333  )
        42           C   tau(  42) = (  0.3333333  0.6666667  0.1666667  )
        43           C   tau(  43) = (  0.3333333  0.6666667  0.5000000  )
        44           C   tau(  44) = (  0.3333333  0.6666667  0.8333333  )
        45           C   tau(  45) = (  0.6666667  0.0000000  0.1666667  )
        46           C   tau(  46) = (  0.6666667  0.0000000  0.5000000  )
        47           C   tau(  47) = (  0.6666667  0.0000000  0.8333333  )
        48           C   tau(  48) = (  0.6666667  0.3333333  0.1666667  )
        49           C   tau(  49) = (  0.6666667  0.3333333  0.5000000  )
        50           C   tau(  50) = (  0.6666667  0.3333333  0.8333333  )
        51           C   tau(  51) = (  0.6666667  0.6666667  0.1666667  )
        52           C   tau(  52) = (  0.6666667  0.6666667  0.5000000  )
        53           C   tau(  53) = (  0.6666667  0.6666667  0.8333333  )
        54           C   tau(  54) = (  0.0833353  0.0833353  0.2499980  )
        55           C   tau(  55) = (  0.0833353  0.0833353  0.5833313  )
        56           C   tau(  56) = (  0.0833353  0.0833353  0.9166647  )
        57           C   tau(  57) = (  0.0833353  0.4166687  0.2499980  )
        58           C   tau(  58) = (  0.0833353  0.4166687  0.5833313  )
        59           C   tau(  59) = (  0.0833353  0.4166687  0.9166647  )
        60           C   tau(  60) = (  0.0833353  0.7500020  0.2499980  )
        61           C   tau(  61) = (  0.0833353  0.7500020  0.5833313  )
        62           C   tau(  62) = (  0.0833353  0.7500020  0.9166647  )
        63           C   tau(  63) = (  0.4166687  0.0833353  0.2499980  )
        64           C   tau(  64) = (  0.4166687  0.0833353  0.5833313  )
        65           C   tau(  65) = (  0.4166687  0.0833353  0.9166647  )
        66           C   tau(  66) = (  0.4166687  0.4166687  0.2499980  )
        67           C   tau(  67) = (  0.4166687  0.4166687  0.5833313  )
        68           C   tau(  68) = (  0.4166687  0.4166687  0.9166647  )
        69           C   tau(  69) = (  0.4166687  0.7500020  0.2499980  )
        70           C   tau(  70) = (  0.4166687  0.7500020  0.5833313  )
        71           C   tau(  71) = (  0.4166687  0.7500020  0.9166647  )
        72           C   tau(  72) = (  0.7500020  0.0833353  0.2499980  )
        73           C   tau(  73) = (  0.7500020  0.0833353  0.5833313  )
        74           C   tau(  74) = (  0.7500020  0.0833353  0.9166647  )
        75           C   tau(  75) = (  0.7500020  0.4166687  0.2499980  )
        76           C   tau(  76) = (  0.7500020  0.4166687  0.5833313  )
        77           C   tau(  77) = (  0.7500020  0.4166687  0.9166647  )
        78           C   tau(  78) = (  0.7500020  0.7500020  0.2499980  )
        79           C   tau(  79) = (  0.7500020  0.7500020  0.5833313  )
        80           C   tau(  80) = (  0.7500020  0.7500020  0.9166647  )
        81           C   tau(  81) = (  0.0000000  0.1666667  0.0000000  )
        82           C   tau(  82) = (  0.0000000  0.1666667  0.3333333  )
        83           C   tau(  83) = (  0.0000000  0.1666667  0.6666667  )
        84           C   tau(  84) = (  0.0000000  0.5000000  0.0000000  )
        85           C   tau(  85) = (  0.0000000  0.5000000  0.3333333  )
        86           C   tau(  86) = (  0.0000000  0.5000000  0.6666667  )
        87           C   tau(  87) = (  0.0000000  0.8333333  0.0000000  )
        88           C   tau(  88) = (  0.0000000  0.8333333  0.3333333  )
        89           C   tau(  89) = (  0.0000000  0.8333333  0.6666667  )
        90           C   tau(  90) = (  0.3333333  0.1666667  0.0000000  )
        91           C   tau(  91) = (  0.3333333  0.1666667  0.3333333  )
        92           C   tau(  92) = (  0.3333333  0.1666667  0.6666667  )
        93           C   tau(  93) = (  0.3333333  0.5000000  0.0000000  )
        94           C   tau(  94) = (  0.3333333  0.5000000  0.3333333  )
        95           C   tau(  95) = (  0.3333333  0.5000000  0.6666667  )
        96           C   tau(  96) = (  0.3333333  0.8333333  0.0000000  )
        97           C   tau(  97) = (  0.3333333  0.8333333  0.3333333  )
        98           C   tau(  98) = (  0.3333333  0.8333333  0.6666667  )
        99           C   tau(  99) = (  0.6666667  0.1666667  0.0000000  )
       100           C   tau( 100) = (  0.6666667  0.1666667  0.3333333  )
       101           C   tau( 101) = (  0.6666667  0.1666667  0.6666667  )
       102           C   tau( 102) = (  0.6666667  0.5000000  0.0000000  )
       103           C   tau( 103) = (  0.6666667  0.5000000  0.3333333  )
       104           C   tau( 104) = (  0.6666667  0.5000000  0.6666667  )
       105           C   tau( 105) = (  0.6666667  0.8333333  0.0000000  )
       106           C   tau( 106) = (  0.6666667  0.8333333  0.3333333  )
       107           C   tau( 107) = (  0.6666667  0.8333333  0.6666667  )
       108           C   tau( 108) = (  0.2499980  0.2499980  0.2499980  )
       109           C   tau( 109) = (  0.2499980  0.2499980  0.5833313  )
       110           C   tau( 110) = (  0.2499980  0.2499980  0.9166647  )
       111           C   tau( 111) = (  0.2499980  0.5833313  0.2499980  )
       112           C   tau( 112) = (  0.2499980  0.5833313  0.5833313  )
       113           C   tau( 113) = (  0.2499980  0.5833313  0.9166647  )
       114           C   tau( 114) = (  0.2499980  0.9166647  0.2499980  )
       115           C   tau( 115) = (  0.2499980  0.9166647  0.5833313  )
       116           C   tau( 116) = (  0.2499980  0.9166647  0.9166647  )
       117           C   tau( 117) = (  0.5833313  0.2499980  0.2499980  )
       118           C   tau( 118) = (  0.5833313  0.2499980  0.5833313  )
       119           C   tau( 119) = (  0.5833313  0.2499980  0.9166647  )
       120           C   tau( 120) = (  0.5833313  0.5833313  0.2499980  )
       121           C   tau( 121) = (  0.5833313  0.5833313  0.5833313  )
       122           C   tau( 122) = (  0.5833313  0.5833313  0.9166647  )
       123           C   tau( 123) = (  0.5833313  0.9166647  0.2499980  )
       124           C   tau( 124) = (  0.5833313  0.9166647  0.5833313  )
       125           C   tau( 125) = (  0.5833313  0.9166647  0.9166647  )
       126           C   tau( 126) = (  0.9166647  0.2499980  0.2499980  )
       127           C   tau( 127) = (  0.9166647  0.2499980  0.5833313  )
       128           C   tau( 128) = (  0.9166647  0.2499980  0.9166647  )
       129           C   tau( 129) = (  0.9166647  0.5833313  0.2499980  )
       130           C   tau( 130) = (  0.9166647  0.5833313  0.5833313  )
       131           C   tau( 131) = (  0.9166647  0.5833313  0.9166647  )
       132           C   tau( 132) = (  0.9166647  0.9166647  0.2499980  )
       133           C   tau( 133) = (  0.9166647  0.9166647  0.5833313  )
       134           C   tau( 134) = (  0.9166647  0.9166647  0.9166647  )
       135           C   tau( 135) = (  0.1666667  0.0000000  0.0000000  )
       136           C   tau( 136) = (  0.1666667  0.0000000  0.3333333  )
       137           C   tau( 137) = (  0.1666667  0.0000000  0.6666667  )
       138           C   tau( 138) = (  0.1666667  0.3333333  0.0000000  )
       139           C   tau( 139) = (  0.1666667  0.3333333  0.3333333  )
       140           C   tau( 140) = (  0.1666667  0.3333333  0.6666667  )
       141           C   tau( 141) = (  0.1666667  0.6666667  0.0000000  )
       142           C   tau( 142) = (  0.1666667  0.6666667  0.3333333  )
       143           C   tau( 143) = (  0.1666667  0.6666667  0.6666667  )
       144           C   tau( 144) = (  0.5000000  0.0000000  0.0000000  )
       145           C   tau( 145) = (  0.5000000  0.0000000  0.3333333  )
       146           C   tau( 146) = (  0.5000000  0.0000000  0.6666667  )
       147           C   tau( 147) = (  0.5000000  0.3333333  0.0000000  )
       148           C   tau( 148) = (  0.5000000  0.3333333  0.3333333  )
       149           C   tau( 149) = (  0.5000000  0.3333333  0.6666667  )
       150           C   tau( 150) = (  0.5000000  0.6666667  0.0000000  )
       151           C   tau( 151) = (  0.5000000  0.6666667  0.3333333  )
       152           C   tau( 152) = (  0.5000000  0.6666667  0.6666667  )
       153           C   tau( 153) = (  0.8333333  0.0000000  0.0000000  )
       154           C   tau( 154) = (  0.8333333  0.0000000  0.3333333  )
       155           C   tau( 155) = (  0.8333333  0.0000000  0.6666667  )
       156           C   tau( 156) = (  0.8333333  0.3333333  0.0000000  )
       157           C   tau( 157) = (  0.8333333  0.3333333  0.3333333  )
       158           C   tau( 158) = (  0.8333333  0.3333333  0.6666667  )
       159           C   tau( 159) = (  0.8333333  0.6666667  0.0000000  )
       160           C   tau( 160) = (  0.8333333  0.6666667  0.3333333  )
       161           C   tau( 161) = (  0.8333333  0.6666667  0.6666667  )
       162           C   tau( 162) = (  0.2499980  0.0833353  0.0833353  )
       163           C   tau( 163) = (  0.2499980  0.0833353  0.4166687  )
       164           C   tau( 164) = (  0.2499980  0.0833353  0.7500020  )
       165           C   tau( 165) = (  0.2499980  0.4166687  0.0833353  )
       166           C   tau( 166) = (  0.2499980  0.4166687  0.4166687  )
       167           C   tau( 167) = (  0.2499980  0.4166687  0.7500020  )
       168           C   tau( 168) = (  0.2499980  0.7500020  0.0833353  )
       169           C   tau( 169) = (  0.2499980  0.7500020  0.4166687  )
       170           C   tau( 170) = (  0.2499980  0.7500020  0.7500020  )
       171           C   tau( 171) = (  0.5833313  0.0833353  0.0833353  )
       172           C   tau( 172) = (  0.5833313  0.0833353  0.4166687  )
       173           C   tau( 173) = (  0.5833313  0.0833353  0.7500020  )
       174           C   tau( 174) = (  0.5833313  0.4166687  0.0833353  )
       175           C   tau( 175) = (  0.5833313  0.4166687  0.4166687  )
       176           C   tau( 176) = (  0.5833313  0.4166687  0.7500020  )
       177           C   tau( 177) = (  0.5833313  0.7500020  0.0833353  )
       178           C   tau( 178) = (  0.5833313  0.7500020  0.4166687  )
       179           C   tau( 179) = (  0.5833313  0.7500020  0.7500020  )
       180           C   tau( 180) = (  0.9166647  0.0833353  0.0833353  )
       181           C   tau( 181) = (  0.9166647  0.0833353  0.4166687  )
       182           C   tau( 182) = (  0.9166647  0.0833353  0.7500020  )
       183           C   tau( 183) = (  0.9166647  0.4166687  0.0833353  )
       184           C   tau( 184) = (  0.9166647  0.4166687  0.4166687  )
       185           C   tau( 185) = (  0.9166647  0.4166687  0.7500020  )
       186           C   tau( 186) = (  0.9166647  0.7500020  0.0833353  )
       187           C   tau( 187) = (  0.9166647  0.7500020  0.4166687  )
       188           C   tau( 188) = (  0.9166647  0.7500020  0.7500020  )
       189           C   tau( 189) = (  0.1666667  0.1666667  0.1666667  )
       190           C   tau( 190) = (  0.1666667  0.1666667  0.5000000  )
       191           C   tau( 191) = (  0.1666667  0.1666667  0.8333333  )
       192           C   tau( 192) = (  0.1666667  0.5000000  0.1666667  )
       193           C   tau( 193) = (  0.1666667  0.5000000  0.5000000  )
       194           C   tau( 194) = (  0.1666667  0.5000000  0.8333333  )
       195           C   tau( 195) = (  0.1666667  0.8333333  0.1666667  )
       196           C   tau( 196) = (  0.1666667  0.8333333  0.5000000  )
       197           C   tau( 197) = (  0.1666667  0.8333333  0.8333333  )
       198           C   tau( 198) = (  0.5000000  0.1666667  0.1666667  )
       199           C   tau( 199) = (  0.5000000  0.1666667  0.5000000  )
       200           C   tau( 200) = (  0.5000000  0.1666667  0.8333333  )
       201           C   tau( 201) = (  0.5000000  0.5000000  0.1666667  )
       202           C   tau( 202) = (  0.5000000  0.5000000  0.5000000  )
       203           C   tau( 203) = (  0.5000000  0.5000000  0.8333333  )
       204           C   tau( 204) = (  0.5000000  0.8333333  0.1666667  )
       205           C   tau( 205) = (  0.5000000  0.8333333  0.5000000  )
       206           C   tau( 206) = (  0.5000000  0.8333333  0.8333333  )
       207           C   tau( 207) = (  0.8333333  0.1666667  0.1666667  )
       208           C   tau( 208) = (  0.8333333  0.1666667  0.5000000  )
       209           C   tau( 209) = (  0.8333333  0.1666667  0.8333333  )
       210           C   tau( 210) = (  0.8333333  0.5000000  0.1666667  )
       211           C   tau( 211) = (  0.8333333  0.5000000  0.5000000  )
       212           C   tau( 212) = (  0.8333333  0.5000000  0.8333333  )
       213           C   tau( 213) = (  0.8333333  0.8333333  0.1666667  )
       214           C   tau( 214) = (  0.8333333  0.8333333  0.5000000  )
       215           C   tau( 215) = (  0.8333333  0.8333333  0.8333333  )

     number of k points=     4  Gaussian smearing, width (Ry)=  0.0100
                       cart. coord. in units 2pi/alat
        k(    1) = (   0.0000000   0.0000000   0.0000000), wk =   0.2500000
        k(    2) = (   0.0000000   0.0000000  -0.5000000), wk =   0.7500000
        k(    3) = (   0.0000000  -0.5000000  -0.5000000), wk =   0.7500000
        k(    4) = (  -0.5000000  -0.5000000  -0.5000000), wk =   0.2500000

                       cryst. coord.
        k(    1) = (   0.0000000   0.0000000   0.0000000), wk =   0.2500000
        k(    2) = (   0.0000000   0.0000000  -0.5000000), wk =   0.7500000
        k(    3) = (   0.0000000  -0.5000000  -0.5000000), wk =   0.7500000
        k(    4) = (  -0.5000000  -0.5000000  -0.5000000), wk =   0.2500000

     Dense  grid:   918657 G-vectors     FFT dimensions: ( 135, 135, 135)

     Smooth grid:   656775 G-vectors     FFT dimensions: ( 108, 108, 108)

     Dynamical RAM for                 wfc:      10.12 MB

     Dynamical RAM for     wfc (w. buffer):      10.12 MB

     Dynamical RAM for           str. fact:       0.22 MB

     Dynamical RAM for           local pot:       0.00 MB

     Dynamical RAM for          nlocal pot:      33.67 MB

     Dynamical RAM for                qrad:       0.43 MB

     Dynamical RAM for          rho,v,vnew:       1.91 MB

     Dynamical RAM for               rhoin:       0.64 MB

     Dynamical RAM for            rho*nmix:       3.50 MB

     Dynamical RAM for           G-vectors:       0.90 MB

     Dynamical RAM for          h,s,v(r/c):     195.77 MB

     Dynamical RAM for          <psi|beta>:      13.57 MB

     Dynamical RAM for                 psi:      40.49 MB

     Dynamical RAM for                hpsi:      40.49 MB

     Dynamical RAM for                spsi:      40.49 MB

     Dynamical RAM for      wfcinit/wfcrot:      26.36 MB

     Dynamical RAM for           addusdens:      14.29 MB

     Dynamical RAM for          addusforce:      37.84 MB

     Dynamical RAM for         addusstress:       2.82 MB

     Estimated static dynamical RAM per process >      50.41 MB

     Estimated max dynamical RAM per process >     384.71 MB

     Estimated total dynamical RAM >      95.52 GB

     Atomic positions and unit cell read from directory:
     ./diamond.save/
     Atomic positions from file used, from input discarded
 

     Check: negative core charge=   -0.000014

     The initial density is read from file :
     ./diamond.save/charge-density



     %%%%%%%%%%%%%%%%%%%%%%%%%%%%%%%%%%%%%%%%%%%%%%%%%%%%%%%%%%%%%%%%%%%%%%%%
     %                                                                      %
     % You are using vdW-DF, which was implemented by the Thonhauser group. %
     % Please cite the following two papers that made this development      %
     % possible and the two reviews that describe the various versions:     %
     %                                                                      %
     %   T. Thonhauser et al., PRL 115, 136402 (2015).                      %
     %   T. Thonhauser et al., PRB 76, 125112 (2007).                       %
     %   K. Berland et al., Rep. Prog. Phys. 78, 066501 (2015).             %
     %   D.C. Langreth et al., J. Phys.: Condens. Matter 21, 084203 (2009). %
     %                                                                      %
     % If you are calculating stress with vdW-DF, please also cite:         %
     %                                                                      %
     %   R. Sabatini et al., J. Phys.: Condens. Matter 24, 424209 (2012).   %
     %                                                                      %
     %%%%%%%%%%%%%%%%%%%%%%%%%%%%%%%%%%%%%%%%%%%%%%%%%%%%%%%%%%%%%%%%%%%%%%%%

     %%%%%%%%%%%%%%%%%%%%%%%%%%%%%%%%%%%%%%%%%%%%%%%%%%%%%%%%%%%%%%%%%%%%%%%%
     %                                                                      %
     %  vdW-DF NEWS:                                                        %
     %                                                                      %
     %  * vdW-DF3 is now available. DOI: 10.1021/acs.jctc.0c00471           %
     %    use with input_dft = 'vdW-DF3-opt1' or 'vdW-DF3-opt2'             %
     %                                                                      %
     %  * Unscreened and range-separated vdW-DF hybrid functionals          %
     %    DOI: 10.1063/1.4986522 and 10.1088/1361-648X/ac2ad2               %
     %    use with input_dft = 'vdW-DF-cx0' (etc) and 'vdW-DF-ahcx'         %
     %                                                                      %
     %%%%%%%%%%%%%%%%%%%%%%%%%%%%%%%%%%%%%%%%%%%%%%%%%%%%%%%%%%%%%%%%%%%%%%%%


     Carrying out vdW-DF run using the following parameters:
     Nqs    =  20  Npoints =  1024  r_max =  100.000
     q_mesh =  0.00001000  0.04494208  0.09755937  0.15916263
               0.23128650  0.31572767  0.41458969  0.53033537
               0.66584808  0.82450364  1.01025438  1.22772762
               1.48234092  1.78043706  2.12944203  2.53805004
               3.01644009  3.57652955  4.23227104  5.00000000


     -----------------------------------------------
     Non-local corr. energy    =       7.36225628 Ry
     -----------------------------------------------

     Wavefunctions not found or not readable, recomputing them from scratch
     Starting wfcs are  860 randomized atomic wfcs
     Checking if some PAW data can be deallocated... 

     total cpu time spent up to now is        8.0 secs

     Self-consistent Calculation

     iteration #  1     ecut=    70.00 Ry     beta= 0.70
     Davidson diagonalization with overlap

---- Real-time Memory Report at c_bands before calling an iterative solver
           362 MiB given to the printing process from OS
             0 MiB allocation reported by mallinfo(arena+hblkhd)
       2012658 MiB available memory on the node where the printing process lives
------------------
     ethr =  1.00E-05,  avg # of iterations = 18.3

     Threshold (ethr) on eigenvalues was too large:
     Diagonalizing with lowered threshold

     Davidson diagonalization with overlap

---- Real-time Memory Report at c_bands before calling an iterative solver
           559 MiB given to the printing process from OS
             0 MiB allocation reported by mallinfo(arena+hblkhd)
       2009768 MiB available memory on the node where the printing process lives
------------------
     ethr =  1.63E-10,  avg # of iterations = 25.0


     -----------------------------------------------
     Non-local corr. energy    =       7.36225489 Ry
     -----------------------------------------------


     total cpu time spent up to now is      195.8 secs

     End of self-consistent calculation

          k = 0.0000 0.0000 0.0000 ( 82057 PWs)   bands (ev):

    -8.5787  -7.6022  -7.6022  -7.5695  -7.5695  -7.5695  -7.4221  -6.6000
    -6.6000  -6.5979  -6.5979  -6.5979  -6.5718  -6.5718  -6.5717  -6.5096
    -6.5096  -6.5095  -6.2570  -5.5986  -5.5776  -5.5776  -5.5776  -5.5605
    -5.5605  -5.5603  -5.3197  -4.5903  -4.5903  -4.5838  -4.5838  -4.5837
    -4.5099  -3.7152  -3.7106  -3.7106  -3.7104  -3.6929  -3.6929  -3.6861
    -3.6860  -3.6860  -3.6854  -3.6854  -3.6853  -3.6587  -3.6587  -3.6587
    -3.6488  -3.6488  -3.6487  -3.6347  -3.6347  -3.5509  -3.5509  -3.5506
    -3.3600  -2.9497  -2.9494  -2.9494  -2.9372  -2.9372  -2.9369  -2.9360
    -2.9360  -2.9285  -2.9155  -2.9153  -2.9153  -2.8811  -2.8811  -2.8630
    -2.8630  -2.8627  -2.8387  -2.8387  -2.8386  -2.7084  -2.7084  -2.7084
    -1.8686  -1.2602  -1.2602  -1.2600  -1.2530  -1.2530  -1.2374  -1.2373
    -1.2373  -1.1952  -1.1952  -1.1952  -0.6566   0.0582   0.0582   0.0624
     0.0630   0.0630   0.1011   0.5087   0.5177   0.5177   0.5181   0.5296
     0.5296   0.5296   0.5446   0.5446   0.5632   0.5636   0.5636   0.6145
     0.6145   0.6146   0.6362   0.6362   0.6364   0.6398   0.6398   0.7079
     0.7080   0.7080   0.8200   0.8669   0.8669   0.8684   0.8684   0.8686
     0.8688   0.8690   0.8690   0.9047   0.9047   0.9048   0.9163   0.9190
     0.9191   0.9191   0.9287   0.9287   0.9290   0.9385   0.9385   1.2790
     1.2790   1.2791   1.6286   1.8932   1.8932   1.8932   1.8934   1.8936
     1.8936   1.9187   1.9187   2.0542   2.0542   2.0543   3.1572   3.5025
     3.5261   3.5261   3.5261   3.5492   3.5494   3.5494   3.5708   3.6051
     3.6051   3.6052   3.6092   3.6092   3.6092   3.6322   3.6322   3.7133
     3.7504   3.7504   3.7505   4.0860   4.0920   4.0920   4.0923   4.0996
     4.0998   4.0998   4.1073   4.1073   4.1110   4.1110   4.1110   4.1348
     4.1348   4.1349   4.1366   4.1366   4.1390   4.1392   4.1392   4.3712
     4.3713   4.3713   5.0481   5.0868   5.0869   5.0869   5.1006   5.1006
     5.1022   5.1022   5.1024   5.1242   5.1243   5.1243   5.1694   5.1694
     5.1694   5.1870   5.1870   5.1873   5.1977   5.2487   5.2487   5.3127
     5.3127   5.3130   5.3328   5.5935   5.5953   5.5956   5.5956   5.5982
     5.5982   5.6032   5.6032   5.6033   5.6093   5.6156   5.6156   5.6158
     5.6187   5.6187   5.6187   5.6336   5.6336   5.6555   5.6557   5.6557
     5.6719   5.6719   5.6959   5.6959   5.6963   6.0957   6.0957   6.0960
     6.6258   6.6259   6.6259   6.6772   6.6772   6.6772   6.7928   7.1263
     7.1263   7.1343   7.1343   7.1343   7.1428   7.1428   7.1428   7.2304
     7.2304   7.2304   7.5741   7.5742   7.5742   7.5815   7.5829   7.5831
     7.5831   7.6132   7.6132   7.6132   7.6498   7.6500   7.6500   7.8141
     7.8143   7.8143   7.8175   7.8356   7.8356   7.8357   7.8384   7.8384
     7.8392   7.8395   7.8395   7.8855   7.8855   7.9008   7.9008   7.9010
     7.9035   7.9037   7.9037   7.9117   7.9117   7.9118   8.0216   8.0478
     8.0515   8.0515   8.0519   8.0631   8.0631   8.0709   8.0709   8.0711
     8.0754   8.0754   8.0755   8.0775   8.0775   8.0820   8.0824   8.0824
     8.0947   8.0949   8.0949   8.0975   8.1048   8.1048   8.1052   8.1110
     8.1110   8.1110   8.1308   8.1308   8.1504   8.1506   8.1506   8.1912
     8.1913   8.1913   8.2344   8.2344   8.2346   8.2439   8.2439   8.2439
     8.2557   8.3834   8.3834   8.6367   8.6367   8.6368   8.8624   8.8639
     8.8639   8.8639   8.8914   8.8916   8.8916   8.9103   8.9103   8.9104
     8.9123   8.9123   8.9178   8.9179   8.9179   8.9491   8.9491   8.9641
     9.0365   9.0367   9.0367   9.8847   9.8847   9.8851  10.2216  10.2816
    10.2816  10.2816  10.2895  10.2896  10.2896  10.3210  10.3211  10.3211
    10.3762  10.3764  10.3764  10.5073  10.5073  10.5259  10.5259  10.5315
    10.5316  10.5316  10.5338  10.5338  10.5339  10.5520  10.5520  10.5520
    10.5834  10.5834  10.5874  10.5875  10.5875  11.2268  11.2268  11.2269
    11.4383  11.4542  11.4542  11.4543  11.4752  11.4754  11.4754  11.5474
    11.5474  12.0764  12.7102  12.7102  12.7103  15.0609  15.0610  15.0610
    17.1545  17.1545  17.1972  17.1972  17.1972  17.2260  17.8353  17.8353
    17.8365  17.8452  17.8452  17.8702  17.8934  17.8934  17.9969  17.9969
    17.9972  18.0271  18.6070  18.6071  18.6071  19.3650  19.3650  19.3650
    19.4061  19.4061  19.4061  19.4115  19.4115  19.4116  19.4266  19.4266
    19.4649  20.0519  20.0519  20.0671  20.0676  20.0676  20.0689  20.0689
    20.0696  20.0725  20.0725  20.0729  20.1080  20.1085  20.1085  20.1296
    20.1365  20.1365  20.1367  20.1731  20.1731  20.1738  20.2154  20.2154
    20.2174  20.4824  20.5000  20.5001  20.5001  20.5074  20.5074  20.5075
    20.5233  20.5233  20.5323  20.5323  20.5323  20.6172  20.6172  20.6297
    20.6301  20.6301  20.6542  20.6642  20.6642  20.6642  20.6699  20.6699
    20.6702  20.6839  20.6840  20.6840  20.7219

     occupation numbers 
     1.0000   1.0000   1.0000   1.0000   1.0000   1.0000   1.0000   1.0000
     1.0000   1.0000   1.0000   1.0000   1.0000   1.0000   1.0000   1.0000
     1.0000   1.0000   1.0000   1.0000   1.0000   1.0000   1.0000   1.0000
     1.0000   1.0000   1.0000   1.0000   1.0000   1.0000   1.0000   1.0000
     1.0000   1.0000   1.0000   1.0000   1.0000   1.0000   1.0000   1.0000
     1.0000   1.0000   1.0000   1.0000   1.0000   1.0000   1.0000   1.0000
     1.0000   1.0000   1.0000   1.0000   1.0000   1.0000   1.0000   1.0000
     1.0000   1.0000   1.0000   1.0000   1.0000   1.0000   1.0000   1.0000
     1.0000   1.0000   1.0000   1.0000   1.0000   1.0000   1.0000   1.0000
     1.0000   1.0000   1.0000   1.0000   1.0000   1.0000   1.0000   1.0000
     1.0000   1.0000   1.0000   1.0000   1.0000   1.0000   1.0000   1.0000
     1.0000   1.0000   1.0000   1.0000   1.0000   1.0000   1.0000   1.0000
     1.0000   1.0000   1.0000   1.0000   1.0000   1.0000   1.0000   1.0000
     1.0000   1.0000   1.0000   1.0000   1.0000   1.0000   1.0000   1.0000
     1.0000   1.0000   1.0000   1.0000   1.0000   1.0000   1.0000   1.0000
     1.0000   1.0000   1.0000   1.0000   1.0000   1.0000   1.0000   1.0000
     1.0000   1.0000   1.0000   1.0000   1.0000   1.0000   1.0000   1.0000
     1.0000   1.0000   1.0000   1.0000   1.0000   1.0000   1.0000   1.0000
     1.0000   1.0000   1.0000   1.0000   1.0000   1.0000   1.0000   1.0000
     1.0000   1.0000   1.0000   1.0000   1.0000   1.0000   1.0000   1.0000
     1.0000   1.0000   1.0000   1.0000   1.0000   1.0000   1.0000   1.0000
     1.0000   1.0000   1.0000   1.0000   1.0000   1.0000   1.0000   1.0000
     1.0000   1.0000   1.0000   1.0000   1.0000   1.0000   1.0000   1.0000
     1.0000   1.0000   1.0000   1.0000   1.0000   1.0000   1.0000   1.0000
     1.0000   1.0000   1.0000   1.0000   1.0000   1.0000   1.0000   1.0000
     1.0000   1.0000   1.0000   1.0000   1.0000   1.0000   1.0000   1.0000
     1.0000   1.0000   1.0000   1.0000   1.0000   1.0000   1.0000   1.0000
     1.0000   1.0000   1.0000   1.0000   1.0000   1.0000   1.0000   1.0000
     1.0000   1.0000   1.0000   1.0000   1.0000   1.0000   1.0000   1.0000
     1.0000   1.0000   1.0000   1.0000   1.0000   1.0000   1.0000   1.0000
     1.0000   1.0000   1.0000   1.0000   1.0000   1.0000   1.0000   1.0000
     1.0000   1.0000   1.0000   1.0000   1.0000   1.0000   1.0000   1.0000
     1.0000   1.0000   1.0000   1.0000   1.0000   1.0000   1.0000   1.0000
     1.0000   1.0000   1.0000   1.0000   1.0000   1.0000   1.0000   1.0000
     1.0000   1.0000   1.0000   1.0000   1.0000   1.0000   1.0000   1.0000
     1.0000   1.0000   1.0000   1.0000   1.0000   1.0000   1.0000   1.0000
     1.0000   1.0000   1.0000   1.0000   1.0000   1.0000   1.0000   1.0000
     1.0000   1.0000   1.0000   1.0000   1.0000   1.0000   1.0000   1.0000
     1.0000   1.0000   1.0000   1.0000   1.0000   1.0000   1.0000   1.0000
     1.0000   1.0000   1.0000   1.0000   1.0000   1.0000   1.0000   1.0000
     1.0000   1.0000   1.0000   1.0000   1.0000   1.0000   1.0000   1.0000
     1.0000   1.0000   1.0000   1.0000   1.0000   1.0000   1.0000   1.0000
     1.0000   1.0000   1.0000   1.0000   1.0000   1.0000   1.0000   1.0000
     1.0000   1.0000   1.0000   1.0000   1.0000   1.0000   1.0000   1.0000
     1.0000   1.0000   1.0000   1.0000   1.0000   1.0000   1.0000   1.0000
     1.0000   1.0000   1.0000   1.0000   1.0000   1.0000   1.0000   1.0000
     1.0000   1.0000   1.0000   1.0000   1.0000   1.0000   1.0000   1.0000
     1.0000   1.0000   1.0000   1.0000   1.0000   1.0000   1.0000   1.0000
     1.0000   1.0000   1.0000   1.0000   1.0000   1.0000   1.0000   1.0000
     1.0000   1.0000   1.0000   1.0000   1.0000   1.0000   1.0000   1.0000
     1.0000   1.0000   1.0000   1.0000   1.0000   1.0000   1.0000   1.0000
     1.0000   1.0000   1.0000   1.0000   1.0000   1.0000   1.0000   1.0000
     1.0000   1.0000   1.0000   1.0000   1.0000   1.0000   1.0000   1.0000
     1.0000   1.0000   1.0000   1.0000   1.0000   0.3176   0.3174   0.3174
     0.0000   0.0000   0.0000   0.0000   0.0000   0.0000   0.0000   0.0000
     0.0000   0.0000   0.0000   0.0000   0.0000   0.0000   0.0000   0.0000
     0.0000   0.0000   0.0000   0.0000   0.0000   0.0000   0.0000   0.0000
     0.0000   0.0000   0.0000   0.0000   0.0000   0.0000   0.0000   0.0000
     0.0000   0.0000   0.0000   0.0000   0.0000   0.0000   0.0000   0.0000
     0.0000   0.0000   0.0000   0.0000   0.0000   0.0000   0.0000   0.0000
     0.0000   0.0000   0.0000   0.0000   0.0000   0.0000   0.0000   0.0000
     0.0000   0.0000   0.0000   0.0000   0.0000   0.0000   0.0000   0.0000
     0.0000   0.0000   0.0000   0.0000   0.0000   0.0000   0.0000   0.0000
     0.0000   0.0000   0.0000   0.0000   0.0000   0.0000   0.0000   0.0000
     0.0000   0.0000   0.0000   0.0000   0.0000

          k = 0.0000 0.0000-0.5000 ( 81982 PWs)   bands (ev):

    -8.3791  -8.2627  -7.3858  -7.3669  -7.3668  -7.3410  -7.3121  -7.2627
    -7.2627  -7.0899  -6.3723  -6.3710  -6.3662  -6.3662  -6.3208  -6.3054
    -6.2665  -6.2384  -6.2383  -6.0241  -5.3747  -5.3679  -5.3415  -5.3412
    -5.3289  -5.3286  -5.2536  -5.1409  -4.4209  -4.4187  -4.4127  -4.4126
    -4.4077  -4.4077  -4.4015  -4.4014  -4.3852  -4.3851  -4.3627  -4.3390
    -4.3041  -4.2751  -4.2750  -4.0530  -3.5191  -3.5190  -3.5172  -3.5149
    -3.4974  -3.4932  -3.4931  -3.4925  -3.4302  -3.4271  -3.4268  -3.4044
    -3.3873  -3.2775  -3.2775  -3.0509  -2.6092  -2.6089  -2.6073  -2.6037
    -2.5931  -2.5836  -2.5785  -2.5782  -2.4607  -2.4466  -2.4463  -2.4411
    -2.4359  -2.4042  -2.3844  -2.3539  -2.3539  -1.9652  -1.6742  -1.6741
    -1.6734  -1.6685  -1.6657  -1.6614  -1.6614  -1.6593  -1.5760  -1.5690
    -1.5391  -1.5390  -1.4792  -1.4791  -1.3563  -0.7093  -0.0944  -0.0873
    -0.0872  -0.0869  -0.0783  -0.0782  -0.0753  -0.0181   0.0364   0.0416
     0.0419   0.0475   0.1153   0.1154   0.1250   0.1562   0.1660   0.1688
     0.1738   0.1742   0.2937   0.3400   0.3402   0.5468   0.8218   0.8239
     0.8245   0.8313   0.8543   0.8548   0.8548   0.8689   0.9264   0.9264
     0.9531   0.9888   1.1288   1.1289   1.1294   1.1518   1.1676   1.2542
     1.2543   1.7469   1.9386   1.9557   1.9557   1.9610   2.0192   2.0348
     2.0348   2.1584   2.5489   2.5533   2.5797   2.5797   2.5855   2.5952
     2.5953   2.6029   2.6208   2.6223   2.6224   2.6225   2.6326   2.6425
     2.6500   2.6501   2.6540   2.6587   2.6823   2.6823   2.7458   2.7761
     2.7761   2.7839   2.8916   2.8962   2.9194   2.9196   2.9365   2.9439
     3.1109   3.1110   3.1785   3.7964   3.7992   3.7992   3.8153   3.8187
     3.8710   3.8711   3.8883   4.2742   4.3659   4.3713   4.3713   4.3744
     4.4170   4.4231   4.4232   4.6799   4.7172   4.7313   4.7334   4.7337
     5.0463   5.0463   5.0506   5.0534   5.0804   5.1118   5.1121   5.1122
     5.1429   5.1429   5.1521   5.1553   5.2093   5.2612   5.2613   5.3157
     5.3911   5.3912   5.4006   5.4118   5.4198   5.4200   5.4233   5.4284
     5.4315   5.4339   5.4648   5.4649   5.5007   5.5008   5.5059   5.5207
     5.5422   5.5472   5.5720   5.5722   5.7055   5.7056   5.7491   6.0464
     6.0603   6.0605   6.0822   6.1335   6.1504   6.1505   6.1589   6.1621
     6.1642   6.1642   6.1644   6.2460   6.2803   6.2803   6.3111   6.5280
     6.6657   6.6780   6.6852   6.6852   6.7169   6.7169   6.7433   6.7518
     6.8062   6.8063   6.8537   6.8578   6.8580   6.8611   6.8703   6.8705
     6.8806   6.8813   6.8879   6.8884   6.8909   6.8910   6.8968   6.8968
     6.8990   6.8991   6.9066   6.9180   6.9182   6.9467   6.9470   6.9501
     6.9722   6.9747   6.9810   7.0076   7.0076   7.0274   7.0274   7.0521
     7.3807   7.3809   7.4202   7.6742   7.7099   7.7099   7.7329   7.7839
     7.8205   7.8207   7.9244   7.9777   8.1284   8.1310   8.1314   8.1314
     8.1383   8.1542   8.1545   8.2154   8.2548   8.2550   8.2621   8.2677
     8.2680   8.2764   8.2951   8.2954   8.3099   8.3211   8.3286   8.3288
     8.3290   8.3486   8.3506   8.3506   8.3580   8.3593   8.3595   8.3738
     8.4087   8.4197   8.4300   8.4302   8.4502   8.4661   8.4662   8.4793
     8.4956   8.5995   8.6953   8.7008   8.7245   8.7246   8.7695   8.7697
     8.7899   8.7900   8.8211   8.8420   8.8493   8.8494   8.9836   9.1132
     9.1134   9.1842   9.1907   9.2107   9.2108   9.2487   9.3417   9.3418
     9.3717   9.4424   9.5127   9.5393   9.5393   9.5436   9.5520   9.5521
     9.5554   9.5791   9.5792   9.6290   9.6326   9.6327   9.6668   9.6669
     9.6695   9.6747   9.6812   9.6858   9.6860   9.7381   9.7518   9.8128
     9.8329   9.8331   9.8636   9.8664   9.9050   9.9051  10.0567  10.0782
    10.0785  10.1485  10.1592  10.1703  10.1705  10.2278  10.9180  10.9182
    11.1651  11.1744  11.1745  11.1837  11.2518  11.2624  11.2727  11.3155
    11.4005  11.4006  11.4751  11.4922  11.4923  11.5521  11.8464  11.8464
    11.9261  11.9262  11.9867  12.0825  12.3920  14.9694  15.0260  15.0260
    17.2466  17.2522  17.4874  17.5331  18.1403  18.1610  18.1624  18.1624
    18.2332  18.2684  18.2800  18.2801  18.3070  18.4796  18.7548  18.7638
    18.7647  18.7915  18.8108  18.8459  18.8462  18.8752  18.8759  18.8776
    18.8878  18.9031  18.9447  19.0067  19.0191  19.0387  19.0582  19.0584
    19.5200  19.5262  19.5262  19.5265  19.5546  19.5546  19.5562  19.5676
    19.5983  19.5983  19.6105  19.6105  19.6253  19.6501  19.6617  19.6618
    19.7156  19.7644  19.7644  19.7937  20.0452  20.0548  20.0589  20.0592
    20.0647  20.0652  20.0695  20.0942  20.1438  20.1442  20.1660  20.1792
    20.2285  20.2690  20.2694  20.3290  20.6317  20.6359  20.6369  20.6369
    20.6593  20.6679  20.6679  20.6696  20.6818  20.6818  20.7044  20.7068
    20.7159  20.7160  20.7174  20.7369  20.7370

     occupation numbers 
     1.0000   1.0000   1.0000   1.0000   1.0000   1.0000   1.0000   1.0000
     1.0000   1.0000   1.0000   1.0000   1.0000   1.0000   1.0000   1.0000
     1.0000   1.0000   1.0000   1.0000   1.0000   1.0000   1.0000   1.0000
     1.0000   1.0000   1.0000   1.0000   1.0000   1.0000   1.0000   1.0000
     1.0000   1.0000   1.0000   1.0000   1.0000   1.0000   1.0000   1.0000
     1.0000   1.0000   1.0000   1.0000   1.0000   1.0000   1.0000   1.0000
     1.0000   1.0000   1.0000   1.0000   1.0000   1.0000   1.0000   1.0000
     1.0000   1.0000   1.0000   1.0000   1.0000   1.0000   1.0000   1.0000
     1.0000   1.0000   1.0000   1.0000   1.0000   1.0000   1.0000   1.0000
     1.0000   1.0000   1.0000   1.0000   1.0000   1.0000   1.0000   1.0000
     1.0000   1.0000   1.0000   1.0000   1.0000   1.0000   1.0000   1.0000
     1.0000   1.0000   1.0000   1.0000   1.0000   1.0000   1.0000   1.0000
     1.0000   1.0000   1.0000   1.0000   1.0000   1.0000   1.0000   1.0000
     1.0000   1.0000   1.0000   1.0000   1.0000   1.0000   1.0000   1.0000
     1.0000   1.0000   1.0000   1.0000   1.0000   1.0000   1.0000   1.0000
     1.0000   1.0000   1.0000   1.0000   1.0000   1.0000   1.0000   1.0000
     1.0000   1.0000   1.0000   1.0000   1.0000   1.0000   1.0000   1.0000
     1.0000   1.0000   1.0000   1.0000   1.0000   1.0000   1.0000   1.0000
     1.0000   1.0000   1.0000   1.0000   1.0000   1.0000   1.0000   1.0000
     1.0000   1.0000   1.0000   1.0000   1.0000   1.0000   1.0000   1.0000
     1.0000   1.0000   1.0000   1.0000   1.0000   1.0000   1.0000   1.0000
     1.0000   1.0000   1.0000   1.0000   1.0000   1.0000   1.0000   1.0000
     1.0000   1.0000   1.0000   1.0000   1.0000   1.0000   1.0000   1.0000
     1.0000   1.0000   1.0000   1.0000   1.0000   1.0000   1.0000   1.0000
     1.0000   1.0000   1.0000   1.0000   1.0000   1.0000   1.0000   1.0000
     1.0000   1.0000   1.0000   1.0000   1.0000   1.0000   1.0000   1.0000
     1.0000   1.0000   1.0000   1.0000   1.0000   1.0000   1.0000   1.0000
     1.0000   1.0000   1.0000   1.0000   1.0000   1.0000   1.0000   1.0000
     1.0000   1.0000   1.0000   1.0000   1.0000   1.0000   1.0000   1.0000
     1.0000   1.0000   1.0000   1.0000   1.0000   1.0000   1.0000   1.0000
     1.0000   1.0000   1.0000   1.0000   1.0000   1.0000   1.0000   1.0000
     1.0000   1.0000   1.0000   1.0000   1.0000   1.0000   1.0000   1.0000
     1.0000   1.0000   1.0000   1.0000   1.0000   1.0000   1.0000   1.0000
     1.0000   1.0000   1.0000   1.0000   1.0000   1.0000   1.0000   1.0000
     1.0000   1.0000   1.0000   1.0000   1.0000   1.0000   1.0000   1.0000
     1.0000   1.0000   1.0000   1.0000   1.0000   1.0000   1.0000   1.0000
     1.0000   1.0000   1.0000   1.0000   1.0000   1.0000   1.0000   1.0000
     1.0000   1.0000   1.0000   1.0000   1.0000   1.0000   1.0000   1.0000
     1.0000   1.0000   1.0000   1.0000   1.0000   1.0000   1.0000   1.0000
     1.0000   1.0000   1.0000   1.0000   1.0000   1.0000   1.0000   1.0000
     1.0000   1.0000   1.0000   1.0000   1.0000   1.0000   1.0000   1.0000
     1.0000   1.0000   1.0000   1.0000   1.0000   1.0000   1.0000   1.0000
     1.0000   1.0000   1.0000   1.0000   1.0000   1.0000   1.0000   1.0000
     1.0000   1.0000   1.0000   1.0000   1.0000   1.0000   1.0000   1.0000
     1.0000   1.0000   1.0000   1.0000   1.0000   1.0000   1.0000   1.0000
     1.0000   1.0000   1.0000   1.0000   1.0000   1.0000   1.0000   1.0000
     1.0000   1.0000   1.0000   1.0000   1.0000   1.0000   1.0000   1.0000
     1.0000   1.0000   1.0000   1.0000   1.0000   1.0000   1.0000   1.0000
     1.0000   1.0000   1.0000   1.0000   1.0000   1.0000   1.0000   1.0000
     1.0000   1.0000   1.0000   1.0000   1.0000   1.0000   1.0000   1.0000
     1.0000   1.0000   1.0000   1.0000   1.0000   1.0000   1.0000   1.0000
     1.0000   1.0000   1.0000   1.0000   1.0000   1.0000   1.0000   1.0000
     1.0000   1.0000   1.0000   1.0000   1.0000   1.0000   1.0000   1.0000
     1.0000   1.0000   1.0000   1.0000   1.0000   0.6832   0.4557   0.4556
     0.0000   0.0000   0.0000   0.0000   0.0000   0.0000   0.0000   0.0000
     0.0000   0.0000   0.0000   0.0000   0.0000   0.0000   0.0000   0.0000
     0.0000   0.0000   0.0000   0.0000   0.0000   0.0000   0.0000   0.0000
     0.0000   0.0000   0.0000   0.0000   0.0000   0.0000   0.0000   0.0000
     0.0000   0.0000   0.0000   0.0000   0.0000   0.0000   0.0000   0.0000
     0.0000   0.0000   0.0000   0.0000   0.0000   0.0000   0.0000   0.0000
     0.0000   0.0000   0.0000   0.0000   0.0000   0.0000   0.0000   0.0000
     0.0000   0.0000   0.0000   0.0000   0.0000   0.0000   0.0000   0.0000
     0.0000   0.0000   0.0000   0.0000   0.0000   0.0000   0.0000   0.0000
     0.0000   0.0000   0.0000   0.0000   0.0000   0.0000   0.0000   0.0000
     0.0000   0.0000   0.0000   0.0000   0.0000

          k = 0.0000-0.5000-0.5000 ( 82212 PWs)   bands (ev):

    -8.1563  -8.0913  -8.0913  -7.9092  -7.1476  -7.1472  -7.0829  -7.0829
    -7.0752  -7.0752  -6.9265  -6.7701  -6.1315  -6.1222  -6.1222  -6.1019
    -6.0380  -5.9953  -5.9953  -5.8701  -5.1648  -5.1642  -5.1564  -5.1563
    -5.1533  -5.1532  -5.1393  -5.1272  -5.0678  -5.0585  -5.0430  -5.0429
    -5.0052  -4.9804  -4.9802  -4.6847  -4.2096  -4.2066  -4.1532  -4.1438
    -4.1437  -4.1377  -4.1377  -4.1269  -4.1268  -4.1256  -3.9334  -3.7841
    -3.3994  -3.3949  -3.3719  -3.3717  -3.3138  -3.3075  -3.3073  -3.1229
    -2.5232  -2.5138  -2.5106  -2.5106  -2.5054  -2.5053  -2.4870  -2.4695
    -2.4283  -2.4242  -2.3965  -2.3964  -2.3558  -2.3557  -2.2866  -2.2798
    -2.2796  -2.2788  -2.2642  -2.2596  -2.1700  -2.1526  -2.1525  -1.9035
    -1.5962  -1.5959  -1.5894  -1.5842  -1.5641  -1.5560  -1.5494  -1.5490
    -1.4944  -1.4840  -1.4838  -1.4828  -1.3937  -1.3386  -1.3383  -0.9755
    -0.8048  -0.8012  -0.8012  -0.7981  -0.7505  -0.7176  -0.7176  -0.1408
     0.1223   0.1223   0.1509   0.2547   0.4739   0.4768   0.4769   0.4801
     0.5110   0.5111   0.5312   0.5336   0.5822   0.5823   0.6933   0.9356
     1.3028   1.3056   1.3056   1.3089   1.3191   1.3192   1.3233   1.3281
     1.3356   1.3511   1.3511   1.3824   1.4385   1.4624   1.4625   1.5316
     1.7293   1.7375   1.7386   1.7422   1.7422   1.7426   1.7530   1.7530
     1.8255   1.8255   1.8395   1.8399   1.8415   1.8910   1.8990   1.9085
     1.9087   1.9153   1.9163   1.9165   2.1016   2.1016   2.1828   2.6123
     2.7617   2.7619   2.7619   2.7786   2.8680   2.9485   2.9487   3.5234
     3.8338   3.8375   3.8405   3.8405   3.8440   3.8471   3.8471   3.8608
     3.8654   3.8807   3.8894   3.8894   3.9446   3.9447   3.9475   4.0090
     4.0150   4.0150   4.0180   4.0195   4.0581   4.0811   4.0914   4.0915
     4.1566   4.1677   4.1677   4.1695   4.2003   4.2049   4.2114   4.2115
     4.3349   4.3350   4.4573   4.7216   4.7391   4.7777   4.7778   4.8542
     4.9192   4.9242   4.9244   4.9341   4.9369   4.9411   4.9412   4.9500
     5.0133   5.0135   5.0178   5.0729   5.1151   5.1962   5.1962   5.3052
     5.4151   5.4155   5.4309   5.8489   6.1360   6.1482   6.1483   6.1531
     6.1590   6.1623   6.1624   6.1630   6.1726   6.1783   6.1783   6.1815
     6.2049   6.2061   6.2148   6.2151   6.2153   6.2349   6.2352   6.3086
     6.3088   6.3116   6.3615   6.3675   6.3748   6.3820   6.3820   6.4077
     6.4129   6.4542   6.4543   6.5518   6.5519   6.5532   6.5744   6.6032
     6.7217   6.7218   6.7275   6.8117   6.9934   7.0226   7.0489   7.0489
     7.0658   7.0673   7.0715   7.0716   7.0755   7.0836   7.1113   7.1135
     7.1136   7.1263   7.1263   7.1652   7.1661   7.1686   7.1687   7.1760
     7.1762   7.1771   7.1960   7.2034   7.2036   7.2065   7.2241   7.2455
     7.2523   7.2628   7.2674   7.2674   7.2945   7.2965   7.3050   7.3050
     7.3056   7.3179   7.3179   7.4344   7.6333   7.6335   7.7380   7.9195
     7.9240   7.9378   7.9422   7.9758   7.9759   7.9827   8.0215   8.0414
     8.0414   8.0928   8.0928   8.1136   8.1588   8.1652   8.1653   8.1916
     8.2841   8.2890   8.2901   8.2901   8.2954   8.2955   8.3083   8.3228
     8.3350   8.3486   8.3487   8.3716   8.4611   8.4991   8.4992   8.5584
     8.5651   8.5670   8.5678   8.5679   8.5729   8.6059   8.6059   8.6531
     8.6532   8.6696   8.7008   8.7690   8.9871   9.0574   9.0575   9.0934
     9.1620   9.1805   9.1807   9.2260   9.3928   9.3929   9.5388   9.5423
     9.6103   9.6203   9.6219   9.6219   9.6873   9.6874   9.7912   9.8236
     9.8412   9.8620   9.8625   9.9527   9.9530   9.9629   9.9908  10.0073
    10.0215  10.0216  10.0296  10.0339  10.0385  10.0385  10.0406  10.0509
    10.0554  10.0647  10.1195  10.1196  10.1471  10.1472  10.1595  10.2469
    10.3596  10.3596  10.4046  10.4233  10.4438  10.4458  10.4655  10.4655
    10.4692  10.5777  10.5777  10.5786  10.8792  11.0231  11.0886  11.0886
    11.1631  11.1752  11.1791  11.1792  11.2142  11.2402  11.2403  11.2513
    12.2129  12.3045  12.3046  12.4959  12.5099  14.9467  15.0312  15.0312
    18.1953  18.1954  18.2237  18.2239  18.2306  18.2307  18.2554  18.2659
    18.3072  18.3073  18.3136  18.3239  18.4092  18.4092  18.4265  18.4508
    18.4971  18.5267  18.5340  18.5340  18.5392  18.5513  18.5513  18.6174
    18.6496  18.6498  18.8175  18.8850  19.0166  19.0194  19.1450  19.1451
    19.4001  19.4106  19.4539  19.4540  19.4942  19.4942  19.6370  19.6392
    19.6501  19.6507  19.6536  19.6543  19.6547  19.6570  19.6786  19.7231
    19.7251  19.7603  19.7607  19.7811  19.7908  19.7951  19.7954  19.7960
    19.8376  19.8535  19.8688  19.8775  19.8782  19.9156  19.9157  20.0373
    20.0710  20.1081  20.1086  20.1393  20.1683  20.1683  20.2008  20.4215
    20.5131  20.5132  20.5133  20.5239  20.5239  20.5252  20.5312  20.5345
    20.6055  20.6418  20.6418  20.6630  20.7204

     occupation numbers 
     1.0000   1.0000   1.0000   1.0000   1.0000   1.0000   1.0000   1.0000
     1.0000   1.0000   1.0000   1.0000   1.0000   1.0000   1.0000   1.0000
     1.0000   1.0000   1.0000   1.0000   1.0000   1.0000   1.0000   1.0000
     1.0000   1.0000   1.0000   1.0000   1.0000   1.0000   1.0000   1.0000
     1.0000   1.0000   1.0000   1.0000   1.0000   1.0000   1.0000   1.0000
     1.0000   1.0000   1.0000   1.0000   1.0000   1.0000   1.0000   1.0000
     1.0000   1.0000   1.0000   1.0000   1.0000   1.0000   1.0000   1.0000
     1.0000   1.0000   1.0000   1.0000   1.0000   1.0000   1.0000   1.0000
     1.0000   1.0000   1.0000   1.0000   1.0000   1.0000   1.0000   1.0000
     1.0000   1.0000   1.0000   1.0000   1.0000   1.0000   1.0000   1.0000
     1.0000   1.0000   1.0000   1.0000   1.0000   1.0000   1.0000   1.0000
     1.0000   1.0000   1.0000   1.0000   1.0000   1.0000   1.0000   1.0000
     1.0000   1.0000   1.0000   1.0000   1.0000   1.0000   1.0000   1.0000
     1.0000   1.0000   1.0000   1.0000   1.0000   1.0000   1.0000   1.0000
     1.0000   1.0000   1.0000   1.0000   1.0000   1.0000   1.0000   1.0000
     1.0000   1.0000   1.0000   1.0000   1.0000   1.0000   1.0000   1.0000
     1.0000   1.0000   1.0000   1.0000   1.0000   1.0000   1.0000   1.0000
     1.0000   1.0000   1.0000   1.0000   1.0000   1.0000   1.0000   1.0000
     1.0000   1.0000   1.0000   1.0000   1.0000   1.0000   1.0000   1.0000
     1.0000   1.0000   1.0000   1.0000   1.0000   1.0000   1.0000   1.0000
     1.0000   1.0000   1.0000   1.0000   1.0000   1.0000   1.0000   1.0000
     1.0000   1.0000   1.0000   1.0000   1.0000   1.0000   1.0000   1.0000
     1.0000   1.0000   1.0000   1.0000   1.0000   1.0000   1.0000   1.0000
     1.0000   1.0000   1.0000   1.0000   1.0000   1.0000   1.0000   1.0000
     1.0000   1.0000   1.0000   1.0000   1.0000   1.0000   1.0000   1.0000
     1.0000   1.0000   1.0000   1.0000   1.0000   1.0000   1.0000   1.0000
     1.0000   1.0000   1.0000   1.0000   1.0000   1.0000   1.0000   1.0000
     1.0000   1.0000   1.0000   1.0000   1.0000   1.0000   1.0000   1.0000
     1.0000   1.0000   1.0000   1.0000   1.0000   1.0000   1.0000   1.0000
     1.0000   1.0000   1.0000   1.0000   1.0000   1.0000   1.0000   1.0000
     1.0000   1.0000   1.0000   1.0000   1.0000   1.0000   1.0000   1.0000
     1.0000   1.0000   1.0000   1.0000   1.0000   1.0000   1.0000   1.0000
     1.0000   1.0000   1.0000   1.0000   1.0000   1.0000   1.0000   1.0000
     1.0000   1.0000   1.0000   1.0000   1.0000   1.0000   1.0000   1.0000
     1.0000   1.0000   1.0000   1.0000   1.0000   1.0000   1.0000   1.0000
     1.0000   1.0000   1.0000   1.0000   1.0000   1.0000   1.0000   1.0000
     1.0000   1.0000   1.0000   1.0000   1.0000   1.0000   1.0000   1.0000
     1.0000   1.0000   1.0000   1.0000   1.0000   1.0000   1.0000   1.0000
     1.0000   1.0000   1.0000   1.0000   1.0000   1.0000   1.0000   1.0000
     1.0000   1.0000   1.0000   1.0000   1.0000   1.0000   1.0000   1.0000
     1.0000   1.0000   1.0000   1.0000   1.0000   1.0000   1.0000   1.0000
     1.0000   1.0000   1.0000   1.0000   1.0000   1.0000   1.0000   1.0000
     1.0000   1.0000   1.0000   1.0000   1.0000   1.0000   1.0000   1.0000
     1.0000   1.0000   1.0000   1.0000   1.0000   1.0000   1.0000   1.0000
     1.0000   1.0000   1.0000   1.0000   1.0000   1.0000   1.0000   1.0000
     1.0000   1.0000   1.0000   1.0000   1.0000   1.0000   1.0000   1.0000
     1.0000   1.0000   1.0000   1.0000   1.0000   1.0000   1.0000   1.0000
     1.0000   1.0000   1.0000   1.0000   1.0000   1.0000   1.0000   1.0000
     1.0000   1.0000   1.0000   1.0000   1.0000   1.0000   1.0000   1.0000
     1.0000   1.0000   1.0000   1.0000   1.0000   1.0000   1.0000   1.0000
     1.0000   1.0000   1.0000   1.0000   1.0000   1.0000   1.0000   1.0000
     1.0000   1.0000   1.0000   1.0000   1.0000   1.0000   1.0000   1.0000
     1.0000   1.0000   1.0000   1.0000   1.0000   1.0000   1.0000   1.0000
     1.0000   1.0000   1.0000   1.0000   1.0000   0.7621   0.4344   0.4343
     0.0000   0.0000   0.0000   0.0000   0.0000   0.0000   0.0000   0.0000
     0.0000   0.0000   0.0000   0.0000   0.0000   0.0000   0.0000   0.0000
     0.0000   0.0000   0.0000   0.0000   0.0000   0.0000   0.0000   0.0000
     0.0000   0.0000   0.0000   0.0000   0.0000   0.0000   0.0000   0.0000
     0.0000   0.0000   0.0000   0.0000   0.0000   0.0000   0.0000   0.0000
     0.0000   0.0000   0.0000   0.0000   0.0000   0.0000   0.0000   0.0000
     0.0000   0.0000   0.0000   0.0000   0.0000   0.0000   0.0000   0.0000
     0.0000   0.0000   0.0000   0.0000   0.0000   0.0000   0.0000   0.0000
     0.0000   0.0000   0.0000   0.0000   0.0000   0.0000   0.0000   0.0000
     0.0000   0.0000   0.0000   0.0000   0.0000   0.0000   0.0000   0.0000
     0.0000   0.0000   0.0000   0.0000   0.0000

          k =-0.5000-0.5000-0.5000 ( 82136 PWs)   bands (ev):

    -7.9247  -7.8805  -7.8805  -7.8805  -7.7903  -7.7903  -7.7903  -7.4494
    -5.9130  -5.9130  -5.9103  -5.9102  -5.9102  -5.8884  -5.8613  -5.8613
    -5.8611  -5.8486  -5.8486  -5.8486  -5.8415  -5.8415  -5.8414  -5.8131
    -5.8130  -5.8130  -5.7281  -5.7281  -5.6346  -5.6346  -5.6343  -5.1583
    -4.0091  -4.0091  -4.0089  -3.9970  -3.9970  -3.9968  -3.9968  -3.9968
    -3.9811  -3.9808  -3.9808  -3.9692  -3.9229  -3.9229  -3.8848  -3.8848
    -3.8846  -3.8677  -3.8677  -3.8676  -3.7817  -3.7817  -3.7815  -3.3558
    -2.8804  -2.8800  -2.8800  -2.7388  -2.1203  -2.1200  -2.1200  -2.1160
    -2.1159  -2.1159  -2.0616  -2.0614  -2.0614  -2.0551  -2.0549  -2.0549
    -2.0510  -2.0510  -2.0508  -2.0449  -2.0449  -2.0447  -1.8905  -1.8905
    -1.8329  -1.8329  -1.8327  -1.6185  -1.2056  -1.2056  -1.2052  -1.2037
    -1.1904  -1.1904  -1.1903  -1.1578  -1.1578  -1.1565  -1.1562  -1.1562
    -1.1199  -1.1199  -1.1197  -1.1010  -1.1010  -1.0421  -1.0420  -1.0420
    -0.9560  -0.9560  -0.9558  -0.4326  -0.3482  -0.3482  -0.3478   0.4547
     1.1545   1.1608   1.1609   1.1609   1.1654   1.1654   1.1655   1.1695
     1.1695   1.1710   1.1710   1.1711   1.1976   1.1978   1.1978   1.2157
     1.2157   1.2160   1.2191   1.2191   1.3803   1.3803   1.3806   1.6981
     2.3264   2.3264   2.3264   2.3349   2.3350   2.3350   2.3375   2.3375
     2.3470   2.3526   2.3526   2.3527   2.3551   2.3553   2.3553   2.3684
     2.3684   2.4074   2.4074   2.4074   2.4636   2.4713   2.4715   2.4715
     2.5010   2.5252   2.5252   2.5453   2.5454   2.5454   2.5674   2.5674
     2.5674   2.5677   2.5679   2.5679   2.5945   2.5945   2.5945   2.6082
     2.6083   2.6083   2.6899   2.6899   3.0625   3.0625   3.0625   4.5253
     5.0533   5.0533   5.0534   5.0566   5.0566   5.0568   5.0573   5.0575
     5.0575   5.0594   5.0595   5.0601   5.0652   5.0652   5.0780   5.0780
     5.0780   5.0932   5.0932   5.0934   5.1128   5.1128   5.1128   5.1726
     5.2546   5.2546   5.2547   5.2606   5.2606   5.2615   5.2616   5.2616
     5.2912   5.2914   5.2914   5.3229   5.3350   5.3350   5.3351   5.3553
     5.3553   5.3554   5.4278   5.4278   5.4738   5.5070   5.5070   5.5070
     5.6045   5.6045   5.6108   5.6108   5.6109   5.6292   5.6335   5.6336
     5.6336   5.6354   5.6357   5.6357   5.6450   5.6450   5.6456   5.6456
     5.6459   5.7193   5.7193   5.7194   6.0653   6.0653   6.0653   6.8440
     6.9373   6.9373   6.9437   6.9437   6.9437   6.9483   6.9483   6.9485
     6.9532   6.9533   6.9533   6.9748   6.9988   6.9990   6.9990   7.0276
     7.0312   7.0312   7.0314   7.0514   7.0514   7.0517   7.0803   7.0803
     7.1766   7.1766   7.1784   7.1784   7.1786   7.1870   7.1872   7.1872
[...]
             -0.208865957181669E+02
              0.224837128637862E+02
             -0.200145858769098E+02
              0.919367793298358E+02
              0.571229451212817E+01
              0.145132741797717E+02
              0.664870302250029E+02
              0.217988577473723E+02
             -0.415968675240837E+02
             -0.779190851479690E+02
              0.423939016688564E+00
             -0.914103940951329E+02
              0.311785461607674E+02
             -0.102505858999634E+02
             -0.314585104130963E+02
              0.287651688599240E+02
              0.139021352864544E+02
              0.328275433133787E+02
             -0.909439399406011E+00
              0.483866085410671E+02
             -0.883151596519285E+02
             -0.415171505474092E+01
             -0.801827891282919E+02
              0.257393366670764E+02
              0.391632041474229E+02
             -0.749994762632389E+01
             -0.233105253996372E+02
              0.684157867300892E+02
             -0.308698069871551E+02
              0.215353019497489E+02
             -0.144194551268994E+02
              0.538406895932344E+02
              0.447179894515368E+02
             -0.203167026426097E+02
              0.461600739430942E+02
              0.172809464527220E+02
             -0.473844215576194E+02
             -0.235678190206125E+02
              0.724515432728056E+02
              0.343311451999581E+02
              0.203608545006603E+00
             -0.946277727195718E+01
              0.114796375470883E+03
              0.657965456578350E+02
              0.212488449578163E+02
             -0.817246001482840E+02
              0.113506573392039E+03
             -0.597543721114123E+02
             -0.701834556681899E+02
             -0.953674162923137E+02
              0.474004891422140E+02
             -0.842632376084952E+02
              0.377157572203612E+02
              0.736341305808650E+02
              0.467544825725554E+02
              0.230598470047915E+02
              0.296663782545892E+02
             -0.750272315033605E+02
             -0.249452278696930E+02
             -0.211225001424285E+02
              0.403768955552702E+02
              0.684160923127022E+02
              0.796657776133429E+02
              0.665807806395430E+02
             -0.163013280734355E+02
              0.161183568056600E+02
             -0.640493273148678E+01
             -0.243678087272698E+02
              0.264038091294100E+02
              0.275951608098223E+02
             -0.387189547029705E+02
             -0.519920553617146E+02
             -0.182990389825667E+02
              0.660253210474454E+02
              0.328447357482427E+02
             -0.428312821187053E+02
             -0.568013071330436E+02
             -0.740959137990300E+02
             -0.330312890988398E+01
              0.159107489603571E+02
             -0.312637880608232E+02
              0.111846893237364E+03
              0.962558962018710E+01
             -0.133630457234509E+03
              0.299155549833793E+02
              0.651241121126070E+02
             -0.281642795666729E+02
              0.615957081555666E+01
             -0.428341086979367E+02
              0.525921058992503E+02
              0.199654172724588E+02
             -0.673709488844837E+02
              0.823716094129291E+02
             -0.738835733832556E+01
             -0.447490098728516E+02
             -0.428482075632583E+02
              0.155330142372721E+03
              0.751509627679345E+02
             -0.165820425201673E+02
              0.444771622809824E+02
             -0.586380031082032E+02
             -0.903948697020712E+01
             -0.701128812755729E+02
              0.302102905469328E+02
              0.401546434994079E+02
              0.544803874126469E+02
             -0.233356380346618E+02
              0.694239495612987E+01
              0.604033290735957E+02
              0.300202688193295E+02
              0.393139807279461E+02
              0.183165869352251E+02
             -0.149045659465436E+02
             -0.164969005829195E+01
             -0.105290426408604E+02
              0.155725119009512E+02
              0.625153031723539E+01
             -0.495712291368091E+02
              0.922999044944321E+02
              0.391338956771953E+02
             -0.600265433579440E+02
             -0.411070896653637E+02
             -0.672822124051233E+02
             -0.341872973242023E+02
             -0.215737233841617E+02
             -0.528366475248484E+02
             -0.535039055946386E+02
              0.825470094019186E+02
              0.558870984202465E+02
             -0.131155851028132E+02
              0.729308825123204E+02
              0.196768459257560E+02
             -0.126845014197062E+03
              0.652811457909874E+02
              0.192757165776942E+02
              0.596315984143838E+02
              0.153411171335004E+02
              0.161265229729229E+02
              0.138983773361342E+02
              0.363424574280129E+02
             -0.470594430376641E+02
             -0.270678309289976E+02
             -0.411304188038025E+02
             -0.289815272412434E+02
              0.175034825452620E+02
             -0.451097775100787E+02
              0.176456610659895E+02
              0.256922771751475E+02
             -0.307732140923681E+02
             -0.124086053214107E+02
             -0.342884631315698E+01
              0.795186436890117E+02
              0.604773616810309E+01
              0.861377314129200E+02
              0.223096117291722E+02
             -0.982653035315212E+02
             -0.381067532205879E+02
              0.333862722744959E+02
              0.650445155587490E+02
              0.245010707507114E+02
              0.255956174735564E+02
              0.691736246344288E+02
             -0.472120841391501E+02
             -0.733002966998499E+02
              0.859507190740235E+02
             -0.885219218175359E+01
             -0.979272182259828E+02
              0.328981167479549E+02
              0.634325470381863E+02
             -0.100429663468958E+02
             -0.498825470364243E+02
             -0.250458740907999E+01
              0.784570041938980E+01
             -0.300527014178568E+02
              0.163183466935141E+02
             -0.117660445903982E+02
              0.130175713721724E+03
              0.295794390436014E+02
             -0.652666723786715E+02
              0.190351907601443E+02
              0.870894502819948E+02
             -0.485947027585389E+02
             -0.257237337069845E+02
             -0.470038195277040E+02
              0.306375596365155E+02
              0.210341440606070E+02
              0.192557096998493E+02
             -0.816670230500165E+00
              0.929000402374759E+02
             -0.607559296075867E+02
             -0.461523161057601E+02
             -0.440856952584544E+02
              0.457898056897009E+02
              0.883092780792854E+02
             -0.277192104091074E+01
              0.379586122523743E+02
             -0.470832028349455E+02
             -0.454996779594347E+01
             -0.128221237634272E+02
             -0.189056802306297E+02
             -0.233955686727719E+02
             -0.243300407853493E+02
             -0.157218353363826E+02
              0.238525498013486E+02
              0.233374756937221E+02
             -0.661274903261071E+02
              0.462759933060706E+02
             -0.735101385374888E+02
              0.532806349914867E+02
             -0.724892764222479E+02
              0.108946057652193E+03
              0.537971057081802E+02
              0.533410371268647E+02
              0.111856461738784E+02
              0.649365382922872E+01
             -0.136664453724623E+03
              0.266405711222051E+02
              0.769494621429294E+01
              0.291966812638589E+01
             -0.170537430020203E+02
              0.977827913140840E+02
             -0.443000731636137E+02
             -0.353637154853837E+02
             -0.106907119921707E+03
             -0.362542419861750E+02
             -0.425945405020829E+02
             -0.449910496144929E+02
             -0.108320350749564E+02
             -0.193222074059105E+02
             -0.279867951660460E+02
             -0.451643274310204E+02
              0.340012230460427E+02
              0.106994634920234E+03
              0.928628445999804E+02
             -0.310393708944149E+02
             -0.115759721510704E+03
             -0.458445518869343E+02
              0.293195353693673E+02
              0.204153170549882E+02
              0.279722581632018E+02
              0.291208733116424E+02
              0.896571188155639E+01
              0.942124111165240E+02
             -0.247847270190675E+02
              0.560587474192303E+02
              0.181643093979726E+02
             -0.351730507877526E+02
             -0.246182952269804E+02
              0.474865951002814E+02
             -0.202818646550438E+02
             -0.235894075287353E+02
             -0.127678131487696E+02
              0.605773405771691E+02
             -0.755848032562210E+02
             -0.174823618217857E+02
             -0.659897431005334E+02
             -0.143269701674650E+03
              0.683598251935530E+01
             -0.146492472463362E+02
              0.502379270638660E+02
              0.536009323581756E+02
              0.812467199733826E+02
             -0.495349589715955E+02
              0.843360791160095E+02
              0.197812234574216E+02
             -0.159898060929846E+02
              0.175794954765420E+02
             -0.334768488486915E+02
             -0.217008735654442E+02
              0.412253896491837E+02
             -0.460758278860250E+02
              0.106025218851109E+03
             -0.261303808974028E+02
             -0.578813226161210E+02
              0.104686868503748E+03
             -0.611920564778319E+02
             -0.144586099434463E+02
              0.108174814777584E+02
              0.303669245934868E+02
             -0.487926850348886E+02
             -0.377975311012016E+02
              0.494351685293418E+02
             -0.945113054383485E+02
              0.624684887592800E+02
              0.112235660923112E+02
              0.493296736640968E+02
              0.681299534990485E+02
              0.904926699890973E+01
             -0.801098332387011E+02
             -0.401923633093183E+02
             -0.681058033858755E+02
             -0.402555651763662E+02
             -0.260141845847536E+02
              0.106445705602980E+02
             -0.222239573926730E+02
              0.594799336075732E+01
             -0.116194880206013E+03
             -0.416552328536289E+01
             -0.678145909323654E+02
              0.618422858139130E+02
             -0.263798937540111E+02
             -0.823366772898814E+01
              0.470812882569744E+02
              0.233007956546990E+01
              0.512756641704169E+02
             -0.798464437169213E+02
              0.197504271015467E+02
              0.111873100885599E+02
              0.264137155265402E+02
              0.642101763488670E+02
             -0.495715626555074E+01
             -0.750977379076840E+02
             -0.374796284565774E+02
             -0.269653942825053E+02
             -0.150491596185350E+02
              0.619442553006816E+02
              0.416375054303701E+02
             -0.324726163014659E+02
             -0.419860149297048E+02
              0.349173903383374E+02
              0.315667588193935E+02
             -0.802010336786207E+02
              0.253240596065805E+02
              0.602728594594645E+02
             -0.471815193306724E+01
              0.683167612045815E+02
              0.401594511070905E+02
              0.523367645411695E+02
              0.743779409309035E+02
              0.269535882808565E+01
             -0.122211046211580E+03
              0.111342412887371E+02
              0.132711899907732E+03
              0.883918245320202E+02
             -0.623265137727234E+02
              0.468290751300848E+01
              0.735874785727601E+02
              0.679609432018043E+02
              0.290077348085464E+02
             -0.208687523991686E+02
              0.322325732475013E+02
              0.798657401880126E+02
             -0.273714624444211E+02
             -0.263664583920941E+02
              0.458223436252834E+02
             -0.693157549033390E+01
              0.369413418435117E+02
              0.115735806892914E+00
              0.879379314928553E+02
             -0.297153583299778E+02
              0.122745234003503E+02
             -0.476529990145765E+02
              0.428879258067046E+02
             -0.531406943235373E+01
              0.684647739064236E+02
              0.479739362858419E+01
              0.190513156903086E+02
             -0.457021400877140E+02
             -0.250035441917908E+02
             -0.140198271825016E+02
             -0.574099136575043E+01
              0.721569668326327E+02
              0.205530920462567E+02
              0.953592533514880E+02
              0.563393370517562E+02
              0.886512646010783E+01
             -0.199321646054926E-01
              0.865974627307850E+02
              0.453156024728140E+02
              0.565013692540884E+01
              0.800673318000557E+02
             -0.712640909263403E+02
              0.298427366210156E+02
             -0.378962231880819E+02
             -0.287930095913784E+02
              0.103865079460921E+03
             -0.168814316409675E+02
              0.994406977768904E+00
             -0.164998184428499E+02
              0.867357773408140E+02
             -0.242859523221640E+02
             -0.243142029244973E+01
              0.179767362703427E+03
             -0.647295486537143E+02
             -0.526007867660445E+02
             -0.675043083608545E+02
             -0.317686297810828E+02
              0.369206695983339E+02
             -0.168583892261898E+02
              0.156255150099190E+02
              0.652550085985467E+00
              0.225985312364244E+02
              0.364157390308284E+02
              0.344031702338345E+02
              0.732639329710878E+02
              0.299693380083650E+02
              0.510694042935684E+02
             -0.731252453524141E+02
             -0.569841296267998E+02
             -0.231962390024084E+02
             -0.626648073541295E+02
              0.112953222846316E+03
              0.968935844996950E+02
              0.421022367299346E+02
              0.114218513272061E+03
             -0.612696152801550E+02
             -0.294767093781713E+02
             -0.304143050938521E+02
              0.901225715342247E+02
 
 BEEF-vdW xc energy contributions
            1 :    -880.8784265401025     
            2 :     777.2655664043129     
            3 :    -598.5651426941574     
            4 :     391.0753240973669     
            5 :    -202.0918276681291     
            6 :     64.29558232131694     
            7 :     12.44386503173519     
            8 :    -39.33448168395580     
            9 :     39.08722828661575     
           10 :    -33.80413986951055     
           11 :     36.03402935234476     
           12 :    -46.37244366630853     
           13 :     57.35622231194293     
           14 :    -60.42029193065241     
           15 :     51.75311767331175     
           16 :    -34.20539869454331     
           17 :     14.98383028950309     
           18 :    -1.170460106245969     
           19 :    -4.042537665645341     
           20 :     2.374881304051087     
           21 :     1.431357820269795     
           22 :    -2.896982941110991     
           23 :    0.3865847242693690     
           24 :     4.411989147741565     
           25 :    -8.087377600887294     
           26 :     7.939333874898580     
           27 :    -3.669538371213662     
           28 :    -2.606129871025246     
           29 :     7.832648985786363     
           30 :    -9.906469316953917     
           31 :    -115.2561630712494     
           32 :    -83.63954530186504     

     Writing all to output data dir ./diamond.save/
 
     init_run     :      6.06s CPU      6.46s WALL (       1 calls)
     electrons    :    185.21s CPU    187.97s WALL (       1 calls)
     forces       :      2.34s CPU      2.42s WALL (       1 calls)
     stress       :     29.29s CPU     29.56s WALL (       1 calls)

     Called by init_run:
     wfcinit      :      4.46s CPU      4.67s WALL (       1 calls)
     wfcinit:atom :      0.02s CPU      0.04s WALL (       1 calls)
     wfcinit:wfcr :      4.17s CPU      4.28s WALL (       1 calls)
     potinit      :      0.53s CPU      0.64s WALL (       1 calls)
     hinit0       :      0.47s CPU      0.53s WALL (       1 calls)

     Called by electrons:
     c_bands      :    183.02s CPU    185.59s WALL (       2 calls)
     sum_band     :      1.57s CPU      1.60s WALL (       2 calls)
     v_of_rho     :      0.72s CPU      0.77s WALL (       2 calls)
     v_h          :      0.01s CPU      0.01s WALL (       2 calls)
     v_xc         :     10.50s CPU     10.70s WALL (      38 calls)
     newd         :      0.07s CPU      0.08s WALL (       2 calls)
     PAW_pot      :      0.12s CPU      0.13s WALL (       2 calls)
     mix_rho      :      0.00s CPU      0.00s WALL (       2 calls)
     vdW_kernel   :      0.16s CPU      0.17s WALL (       1 calls)

     Called by c_bands:
     init_us_2    :      0.12s CPU      0.16s WALL (       5 calls)
     init_us_2:cp :      0.12s CPU      0.16s WALL (       5 calls)
     cegterg      :    130.62s CPU    131.84s WALL (       2 calls)

     Called by sum_band:
     sum_band:wei :      0.01s CPU      0.01s WALL (       2 calls)
     sum_band:loo :      1.36s CPU      1.39s WALL (       2 calls)
     sum_band:buf :      0.00s CPU      0.00s WALL (       2 calls)
     sum_band:ini :      0.07s CPU      0.08s WALL (       2 calls)
     sum_band:cal :      0.75s CPU      0.76s WALL (       2 calls)
     sum_band:bec :      0.02s CPU      0.02s WALL (       2 calls)
     addusdens    :      0.07s CPU      0.07s WALL (       2 calls)
     addusd:skk   :      0.02s CPU      0.02s WALL (       2 calls)
     addusd:dgemm :      0.03s CPU      0.03s WALL (       2 calls)
     addusd:qvan2 :      0.00s CPU      0.00s WALL (       2 calls)

     Called by *egterg:
     cdiaghg      :     90.60s CPU     91.07s WALL (      38 calls)
     cegterg:over :      8.32s CPU      8.52s WALL (      37 calls)
     cegterg:upda :      4.81s CPU      4.89s WALL (      37 calls)
     cegterg:last :      3.97s CPU      4.00s WALL (       5 calls)
     h_psi        :     18.98s CPU     19.28s WALL (      40 calls)
     s_psi        :      5.33s CPU      5.39s WALL (      40 calls)
     g_psi        :      0.02s CPU      0.02s WALL (      37 calls)

     Called by h_psi:
     h_psi:calbec :      5.90s CPU      5.96s WALL (      40 calls)
     vloc_psi     :      7.60s CPU      7.70s WALL (      40 calls)
     add_vuspsi   :      5.33s CPU      5.41s WALL (      40 calls)

     General routines
     calbec       :      8.56s CPU      8.63s WALL (      47 calls)
     fft          :      4.99s CPU      5.06s WALL (    2232 calls)
     ffts         :      0.01s CPU      0.01s WALL (       4 calls)
     fftw         :      7.69s CPU      7.80s WALL (   16282 calls)
     interpolate  :      0.01s CPU      0.01s WALL (       2 calls)
 
     Parallel routines

     PAW routines
     PAW_pot      :      0.12s CPU      0.13s WALL (       2 calls)
     PAW_symme    :      0.00s CPU      0.00s WALL (       3 calls)
 
     PWSCF        :   3m53.31s CPU   3m59.56s WALL

 
   This run was terminated on:  10:50:33   8Oct2023            

=------------------------------------------------------------------------------=
   JOB DONE.
=------------------------------------------------------------------------------=
