
     Program PWSCF v.7.1 starts on 18Feb2024 at 11:50:49 

     This program is part of the open-source Quantum ESPRESSO suite
     for quantum simulation of materials; please cite
         "P. Giannozzi et al., J. Phys.:Condens. Matter 21 395502 (2009);
         "P. Giannozzi et al., J. Phys.:Condens. Matter 29 465901 (2017);
         "P. Giannozzi et al., J. Chem. Phys. 152 154105 (2020);
          URL http://www.quantum-espresso.org", 
     in publications or presentations arising from this work. More details at
     http://www.quantum-espresso.org/quote

     Parallel version (MPI & OpenMP), running on     128 processor cores
     Number of MPI processes:               128
     Threads/MPI process:                     1

     MPI processes distributed on     1 nodes
     1908830 MiB available memory on the printing compute node when the environment starts
 
     Reading input from espresso.pwi
Warning: card &CELL ignored
Warning: card    CELL_DYNAMICS    = 'BFGS' ignored
Warning: card / ignored

     Current dimensions of program PWSCF are:
     Max number of different atomic species (ntypx) = 10
     Max number of k-points (npk) =  40000
     Max angular momentum in pseudopotentials (lmaxx) =  4
     file Pb.pbe-dn-kjpaw_psl.1.0.0.UPF: wavefunction(s)  6S 6P 5D renormalized
     file I.pbe-dn-kjpaw_psl.1.0.0.UPF: wavefunction(s)  5S 5P renormalized

     **************************************************************************
     Initializing libbeef V0.1.2 with the BEEF-vdW functional.
     Citation: Wellendorff et al., PRB 85, 235149 (2012).
     **************************************************************************


     IMPORTANT: XC functional enforced from input :
     Exchange-correlation= BEEF-VDW
                           (   1   4  43  14   2   0   0)
     Any further DFT definition will be discarded
     Please, verify this is what you really want

 
     R & G space division:  proc/nbgrp/npool/nimage =     128
     Subspace diagonalization in iterative solution of the eigenvalue problem:
     a serial algorithm will be used

 
     Parallelization info
     --------------------
     sticks:   dense  smooth     PW     G-vecs:    dense   smooth      PW
     Min         238     190     47                26444    18918    2361
     Max         239     191     48                26451    18927    2368
     Sum       30577   24439   6121              3385235  2422379  302703
 
     Using Slab Decomposition
 


     bravais-lattice index     =            4
     lattice parameter (alat)  =      35.6073  a.u.
     unit-cell volume          =   30614.2220 (a.u.)^3
     number of atoms/cell      =           96
     number of atomic types    =            2
     number of electrons       =      1539.00
     number of Kohn-Sham states=          924
     kinetic-energy cutoff     =      70.0000  Ry
     charge density cutoff     =     350.0000  Ry
     scf convergence threshold =      1.0E-07
     mixing beta               =       0.7000
     number of iterations used =            8  plain     mixing
     Exchange-correlation= BEEF-VDW
                           (   1   4  43  14   2   0   0)

     celldm(1)=  35.607290  celldm(2)=   0.000000  celldm(3)=   0.783025
     celldm(4)=   0.000000  celldm(5)=   0.000000  celldm(6)=   0.000000

     crystal axes: (cart. coord. in units of alat)
               a(1) = (   1.000000   0.000000   0.000000 )  
               a(2) = (  -0.500000   0.866025   0.000000 )  
               a(3) = (   0.000000   0.000000   0.783025 )  

     reciprocal axes: (cart. coord. in units 2 pi/alat)
               b(1) = (  1.000000  0.577350 -0.000000 )  
               b(2) = (  0.000000  1.154701  0.000000 )  
               b(3) = (  0.000000 -0.000000  1.277098 )  


     PseudoPot. # 1 for Pb read from file:
     //group///packages/espresso/pseudo/psl_1.0.0/pslibrary.1.0.0/pbe/PSEUDOPOTENTIALS/Pb.pbe-dn-kjpaw_psl.1.0.0.UPF
     MD5 check sum: 39ab5b8a6bbd56b7735ad9f188aac93a
     Pseudo is Projector augmented-wave + core cor, Zval = 14.0
     Generated using 'atomic' code by A. Dal Corso  v.7.1
     Shape of augmentation charge: PSQ
     Using radial grid of 1281 points,  6 beta functions with: 
                l(1) =   0
                l(2) =   0
                l(3) =   1
                l(4) =   1
                l(5) =   2
                l(6) =   2
     Q(r) pseudized with 0 coefficients 


     PseudoPot. # 2 for I  read from file:
     //group///packages/espresso/pseudo/psl_1.0.0/pslibrary.1.0.0/pbe/PSEUDOPOTENTIALS/I.pbe-dn-kjpaw_psl.1.0.0.UPF
     MD5 check sum: bfa8781bc1224d19af3f3980e3fab11e
     Pseudo is Projector augmented-wave + core cor, Zval = 17.0
     Generated using 'atomic' code by A. Dal Corso  v.7.1
     Shape of augmentation charge: PSQ
     Using radial grid of 1247 points,  6 beta functions with: 
                l(1) =   0
                l(2) =   0
                l(3) =   1
                l(4) =   1
                l(5) =   2
                l(6) =   2
     Q(r) pseudized with 0 coefficients 


     atomic species   valence    mass     pseudopotential
        Pb            14.00   207.20000     Pb( 1.00)
        I             17.00   126.90447     I ( 1.00)

     No symmetry found


                                    s                        frac. trans.

      isym =  1     identity                                     

 cryst.   s( 1) = (     1          0          0      )
                  (     0          1          0      )
                  (     0          0          1      )

 cart.    s( 1) = (  1.0000000  0.0000000  0.0000000 )
                  (  0.0000000  1.0000000  0.0000000 )
                  (  0.0000000  0.0000000  1.0000000 )


     point group C_1 (1)    
     there are  1 classes
     the character table:

       E    
A      1.00

     the symmetry operations in each class and the name of the first element:

     E        1
          identity                                               

   Cartesian axes

     site n.     atom                  positions (alat units)
         1           Pb  tau(   1) = (   0.1250034   0.2164916   0.3915076  )
         2           Pb  tau(   2) = (   0.0000077   0.4329922   0.7830161  )
         3           Pb  tau(   3) = (   0.0000025   0.4329968   0.3915034  )
         4           Pb  tau(   4) = (  -0.1249932   0.6494975   0.7830119  )
         5           Pb  tau(   5) = (  -0.1249984   0.6495021   0.3914992  )
         6           Pb  tau(   6) = (  -0.2499941   0.8660028   0.7830077  )
         7           Pb  tau(   7) = (  -0.2499993   0.8660074   0.3914950  )
         8           Pb  tau(   8) = (   0.3750086   0.2164859   0.7830237  )
         9           Pb  tau(   9) = (   0.3750034   0.2164905   0.3915110  )
        10           Pb  tau(  10) = (   0.2500077   0.4329912   0.7830194  )
        11           Pb  tau(  11) = (   0.2500025   0.4329958   0.3915068  )
        12           Pb  tau(  12) = (   0.1250068   0.6494965   0.7830152  )
        13           Pb  tau(  13) = (   0.1250016   0.6495011   0.3915026  )
        14           Pb  tau(  14) = (   0.0000059   0.8660017   0.7830110  )
        15           Pb  tau(  15) = (   0.0000007   0.8660063   0.3914983  )
        16           Pb  tau(  16) = (   0.6250086   0.2164849   0.7830270  )
        17           Pb  tau(  17) = (   0.6250034   0.2164895   0.3915143  )
        18           Pb  tau(  18) = (   0.5000077   0.4329901   0.7830228  )
        19           Pb  tau(  19) = (   0.5000025   0.4329947   0.3915101  )
        20           Pb  tau(  20) = (   0.3750068   0.6494954   0.7830186  )
        21           Pb  tau(  21) = (   0.3750016   0.6495000   0.3915059  )
        22           Pb  tau(  22) = (   0.2500059   0.8660007   0.7830144  )
        23           Pb  tau(  23) = (   0.2500007   0.8660053   0.3915017  )
        24           Pb  tau(  24) = (   0.8750086   0.2164838   0.7830303  )
        25           Pb  tau(  25) = (   0.8750034   0.2164884   0.3915177  )
        26           Pb  tau(  26) = (   0.7500077   0.4329891   0.7830261  )
        27           Pb  tau(  27) = (   0.7500025   0.4329937   0.3915135  )
        28           Pb  tau(  28) = (   0.6250068   0.6494944   0.7830219  )
        29           Pb  tau(  29) = (   0.6250016   0.6494990   0.3915092  )
        30           Pb  tau(  30) = (   0.5000059   0.8659996   0.7830177  )
        31           Pb  tau(  31) = (   0.5000007   0.8660042   0.3915050  )
        32           I   tau(  32) = (   0.1250056   0.0721546   0.2909163  )
        33           I   tau(  33) = (   0.1250108   0.0721500   0.6824290  )
        34           I   tau(  34) = (   0.0000047   0.2886599   0.2909121  )
        35           I   tau(  35) = (   0.0000099   0.2886553   0.6824248  )
        36           I   tau(  36) = (  -0.1249962   0.5051652   0.2909079  )
        37           I   tau(  37) = (  -0.1249910   0.5051606   0.6824206  )
        38           I   tau(  38) = (  -0.2499972   0.7216704   0.2909037  )
        39           I   tau(  39) = (  -0.2499919   0.7216658   0.6824164  )
        40           I   tau(  40) = (   0.3750056   0.0721536   0.2909197  )
        41           I   tau(  41) = (   0.3750108   0.0721490   0.6824324  )
        42           I   tau(  42) = (   0.2500047   0.2886589   0.2909155  )
        43           I   tau(  43) = (   0.2500099   0.2886543   0.6824282  )
        44           I   tau(  44) = (   0.1250038   0.5051641   0.2909113  )
        45           I   tau(  45) = (   0.1250090   0.5051595   0.6824240  )
        46           I   tau(  46) = (   0.0000028   0.7216694   0.2909071  )
        47           I   tau(  47) = (   0.0000081   0.7216648   0.6824197  )
        48           I   tau(  48) = (   0.6250056   0.0721525   0.2909230  )
        49           I   tau(  49) = (   0.6250108   0.0721479   0.6824357  )
        50           I   tau(  50) = (   0.5000047   0.2886578   0.2909188  )
        51           I   tau(  51) = (   0.5000099   0.2886532   0.6824315  )
        52           I   tau(  52) = (   0.3750038   0.5051631   0.2909146  )
        53           I   tau(  53) = (   0.3750090   0.5051585   0.6824273  )
        54           I   tau(  54) = (   0.2500028   0.7216683   0.2909104  )
        55           I   tau(  55) = (   0.2500081   0.7216637   0.6824231  )
        56           I   tau(  56) = (   0.8750056   0.0721515   0.2909264  )
        57           I   tau(  57) = (   0.8750108   0.0721469   0.6824391  )
        58           I   tau(  58) = (   0.7500047   0.2886567   0.2909222  )
        59           I   tau(  59) = (   0.7500099   0.2886521   0.6824348  )
        60           I   tau(  60) = (   0.6250038   0.5051620   0.2909180  )
        61           I   tau(  61) = (   0.6250090   0.5051574   0.6824306  )
        62           I   tau(  62) = (   0.5000028   0.7216673   0.2909137  )
        63           I   tau(  63) = (   0.5000081   0.7216627   0.6824264  )
        64           I   tau(  64) = (  -0.0000018   0.1443297   0.1005933  )
        65           I   tau(  65) = (   0.0000034   0.1443251   0.4921060  )
        66           I   tau(  66) = (  -0.1250027   0.3608350   0.1005891  )
        67           I   tau(  67) = (  -0.1249975   0.3608304   0.4921018  )
        68           I   tau(  68) = (  -0.2500036   0.5773403   0.1005849  )
        69           I   tau(  69) = (  -0.2499984   0.5773357   0.4920975  )
        70           I   tau(  70) = (  -0.3750045   0.7938455   0.1005807  )
        71           I   tau(  71) = (  -0.3749993   0.7938409   0.4920933  )
        72           I   tau(  72) = (   0.2499982   0.1443287   0.1005966  )
        73           I   tau(  73) = (   0.2500034   0.1443241   0.4921093  )
        74           I   tau(  74) = (   0.1249973   0.3608340   0.1005924  )
        75           I   tau(  75) = (   0.1250025   0.3608294   0.4921051  )
        76           I   tau(  76) = (  -0.0000036   0.5773392   0.1005882  )
        77           I   tau(  77) = (   0.0000016   0.5773346   0.4921009  )
        78           I   tau(  78) = (  -0.1250045   0.7938445   0.1005840  )
        79           I   tau(  79) = (  -0.1249993   0.7938399   0.4920967  )
        80           I   tau(  80) = (   0.4999982   0.1443276   0.1006000  )
        81           I   tau(  81) = (   0.5000034   0.1443230   0.4921126  )
        82           I   tau(  82) = (   0.3749973   0.3608329   0.1005958  )
        83           I   tau(  83) = (   0.3750025   0.3608283   0.4921084  )
        84           I   tau(  84) = (   0.2499964   0.5773382   0.1005915  )
        85           I   tau(  85) = (   0.2500016   0.5773336   0.4921042  )
        86           I   tau(  86) = (   0.1249955   0.7938434   0.1005873  )
        87           I   tau(  87) = (   0.1250007   0.7938388   0.4921000  )
        88           I   tau(  88) = (   0.7499982   0.1443266   0.1006033  )
        89           I   tau(  89) = (   0.7500034   0.1443220   0.4921160  )
        90           I   tau(  90) = (   0.6249973   0.3608319   0.1005991  )
        91           I   tau(  91) = (   0.6250025   0.3608273   0.4921118  )
        92           I   tau(  92) = (   0.4999964   0.5773371   0.1005949  )
        93           I   tau(  93) = (   0.5000016   0.5773325   0.4921076  )
        94           I   tau(  94) = (   0.3749955   0.7938424   0.1005907  )
        95           I   tau(  95) = (   0.3750007   0.7938378   0.4921034  )
        96           I   tau(  96) = (   0.1250086   0.2164870   0.7830203  )

   Crystallographic axes

     site n.     atom                  positions (cryst. coord.)
         1           Pb  tau(   1) = (  0.2499949  0.2499829  0.4999935  )
         2           Pb  tau(   2) = (  0.2499959  0.4999764  0.9999882  )
         3           Pb  tau(   3) = (  0.2499933  0.4999817  0.4999882  )
         4           Pb  tau(   4) = (  0.2499944  0.7499751  0.9999828  )
         5           Pb  tau(   5) = (  0.2499918  0.7499804  0.4999828  )
         6           Pb  tau(   6) = (  0.2499928  0.9999739  0.9999774  )
         7           Pb  tau(   7) = (  0.2499903  0.9999792  0.4999774  )
         8           Pb  tau(   8) = (  0.4999968  0.2499764  0.9999978  )
         9           Pb  tau(   9) = (  0.4999943  0.2499817  0.4999978  )
        10           Pb  tau(  10) = (  0.4999953  0.4999752  0.9999924  )
        11           Pb  tau(  11) = (  0.4999927  0.4999805  0.4999924  )
        12           Pb  tau(  12) = (  0.4999938  0.7499739  0.9999871  )
        13           Pb  tau(  13) = (  0.4999912  0.7499792  0.4999871  )
        14           Pb  tau(  14) = (  0.4999922  0.9999727  0.9999817  )
        15           Pb  tau(  15) = (  0.4999896  0.9999780  0.4999817  )
        16           Pb  tau(  16) = (  0.7499962  0.2499752  1.0000021  )
        17           Pb  tau(  17) = (  0.7499936  0.2499805  0.5000021  )
        18           Pb  tau(  18) = (  0.7499947  0.4999739  0.9999967  )
        19           Pb  tau(  19) = (  0.7499921  0.4999793  0.4999967  )
        20           Pb  tau(  20) = (  0.7499932  0.7499727  0.9999913  )
        21           Pb  tau(  21) = (  0.7499906  0.7499780  0.4999913  )
        22           Pb  tau(  22) = (  0.7499916  0.9999714  0.9999860  )
        23           Pb  tau(  23) = (  0.7499890  0.9999767  0.4999860  )
        24           Pb  tau(  24) = (  0.9999956  0.2499740  1.0000064  )
        25           Pb  tau(  25) = (  0.9999930  0.2499793  0.5000064  )
        26           Pb  tau(  26) = (  0.9999941  0.4999727  1.0000010  )
        27           Pb  tau(  27) = (  0.9999915  0.4999780  0.5000010  )
        28           Pb  tau(  28) = (  0.9999926  0.7499715  0.9999956  )
        29           Pb  tau(  29) = (  0.9999900  0.7499768  0.4999956  )
        30           Pb  tau(  30) = (  0.9999910  0.9999702  0.9999902  )
        31           Pb  tau(  31) = (  0.9999884  0.9999755  0.4999902  )
        32           I   tau(  32) = (  0.1666641  0.0833170  0.3715286  )
        33           I   tau(  33) = (  0.1666667  0.0833117  0.8715286  )
        34           I   tau(  34) = (  0.1666625  0.3333157  0.3715233  )
        35           I   tau(  35) = (  0.1666651  0.3333104  0.8715233  )
        36           I   tau(  36) = (  0.1666610  0.5833145  0.3715179  )
        37           I   tau(  37) = (  0.1666636  0.5833092  0.8715179  )
        38           I   tau(  38) = (  0.1666595  0.8333132  0.3715125  )
        39           I   tau(  39) = (  0.1666621  0.8333079  0.8715125  )
        40           I   tau(  40) = (  0.4166635  0.0833158  0.3715329  )
        41           I   tau(  41) = (  0.4166661  0.0833105  0.8715329  )
        42           I   tau(  42) = (  0.4166619  0.3333145  0.3715275  )
        43           I   tau(  43) = (  0.4166645  0.3333092  0.8715275  )
        44           I   tau(  44) = (  0.4166604  0.5833133  0.3715222  )
        45           I   tau(  45) = (  0.4166630  0.5833080  0.8715221  )
        46           I   tau(  46) = (  0.4166589  0.8333120  0.3715168  )
        47           I   tau(  47) = (  0.4166614  0.8333067  0.8715168  )
        48           I   tau(  48) = (  0.6666629  0.0833146  0.3715372  )
        49           I   tau(  49) = (  0.6666655  0.0833093  0.8715372  )
        50           I   tau(  50) = (  0.6666613  0.3333133  0.3715318  )
        51           I   tau(  51) = (  0.6666639  0.3333080  0.8715318  )
        52           I   tau(  52) = (  0.6666598  0.5833121  0.3715264  )
        53           I   tau(  53) = (  0.6666624  0.5833068  0.8715264  )
        54           I   tau(  54) = (  0.6666582  0.8333108  0.3715210  )
        55           I   tau(  55) = (  0.6666608  0.8333055  0.8715210  )
        56           I   tau(  56) = (  0.9166623  0.0833134  0.3715414  )
        57           I   tau(  57) = (  0.9166648  0.0833080  0.8715414  )
        58           I   tau(  58) = (  0.9166607  0.3333121  0.3715361  )
        59           I   tau(  59) = (  0.9166633  0.3333068  0.8715361  )
        60           I   tau(  60) = (  0.9166592  0.5833108  0.3715307  )
        61           I   tau(  61) = (  0.9166618  0.5833055  0.8715307  )
        62           I   tau(  62) = (  0.9166576  0.8333096  0.3715253  )
        63           I   tau(  63) = (  0.9166602  0.8333043  0.8715253  )
        64           I   tau(  64) = (  0.0833270  0.1666576  0.1284675  )
        65           I   tau(  65) = (  0.0833296  0.1666523  0.6284675  )
        66           I   tau(  66) = (  0.0833255  0.4166564  0.1284621  )
        67           I   tau(  67) = (  0.0833281  0.4166511  0.6284621  )
        68           I   tau(  68) = (  0.0833239  0.6666551  0.1284567  )
        69           I   tau(  69) = (  0.0833265  0.6666498  0.6284567  )
        70           I   tau(  70) = (  0.0833224  0.9166539  0.1284513  )
        71           I   tau(  71) = (  0.0833250  0.9166486  0.6284513  )
        72           I   tau(  72) = (  0.3333264  0.1666564  0.1284717  )
        73           I   tau(  73) = (  0.3333290  0.1666511  0.6284717  )
        74           I   tau(  74) = (  0.3333249  0.4166552  0.1284664  )
        75           I   tau(  75) = (  0.3333275  0.4166499  0.6284663  )
        76           I   tau(  76) = (  0.3333233  0.6666539  0.1284610  )
        77           I   tau(  77) = (  0.3333259  0.6666486  0.6284610  )
        78           I   tau(  78) = (  0.3333218  0.9166527  0.1284556  )
        79           I   tau(  79) = (  0.3333244  0.9166473  0.6284556  )
        80           I   tau(  80) = (  0.5833258  0.1666552  0.1284760  )
        81           I   tau(  81) = (  0.5833284  0.1666499  0.6284760  )
        82           I   tau(  82) = (  0.5833243  0.4166539  0.1284706  )
        83           I   tau(  83) = (  0.5833269  0.4166486  0.6284706  )
        84           I   tau(  84) = (  0.5833227  0.6666527  0.1284652  )
        85           I   tau(  85) = (  0.5833253  0.6666474  0.6284652  )
        86           I   tau(  86) = (  0.5833212  0.9166514  0.1284599  )
        87           I   tau(  87) = (  0.5833238  0.9166461  0.6284599  )
        88           I   tau(  88) = (  0.8333252  0.1666540  0.1284803  )
        89           I   tau(  89) = (  0.8333278  0.1666487  0.6284803  )
        90           I   tau(  90) = (  0.8333237  0.4166527  0.1284749  )
        91           I   tau(  91) = (  0.8333262  0.4166474  0.6284749  )
        92           I   tau(  92) = (  0.8333221  0.6666515  0.1284695  )
        93           I   tau(  93) = (  0.8333247  0.6666462  0.6284695  )
        94           I   tau(  94) = (  0.8333206  0.9166502  0.1284641  )
        95           I   tau(  95) = (  0.8333232  0.9166449  0.6284641  )
        96           I   tau(  96) = (  0.2499975  0.2499776  0.9999935  )

     number of k points=     1  Gaussian smearing, width (Ry)=  0.0100
                       cart. coord. in units 2pi/alat
        k(    1) = (   0.0000000   0.0000000   0.0000000), wk =   2.0000000

                       cryst. coord.
        k(    1) = (   0.0000000   0.0000000   0.0000000), wk =   2.0000000

     Dense  grid:  3385235 G-vectors     FFT dimensions: ( 216, 216, 180)

     Smooth grid:  2422379 G-vectors     FFT dimensions: ( 192, 192, 150)

     Dynamical RAM for                 wfc:      33.34 MB

     Dynamical RAM for     wfc (w. buffer):      33.34 MB

     Dynamical RAM for           str. fact:       0.81 MB

     Dynamical RAM for           local pot:       0.00 MB

     Dynamical RAM for          nlocal pot:      62.36 MB

     Dynamical RAM for                qrad:       3.00 MB

     Dynamical RAM for          rho,v,vnew:       3.35 MB

     Dynamical RAM for               rhoin:       1.12 MB

     Dynamical RAM for            rho*nmix:       6.46 MB

     Dynamical RAM for           G-vectors:       1.66 MB

     Dynamical RAM for          h,s,v(r/c):     625.32 MB

     Dynamical RAM for          <psi|beta>:      24.36 MB

     Dynamical RAM for                 psi:     133.38 MB

     Dynamical RAM for                hpsi:     133.38 MB

     Dynamical RAM for                spsi:     133.38 MB

     Dynamical RAM for      wfcinit/wfcrot:      86.24 MB

     Dynamical RAM for           addusdens:     101.31 MB

     Dynamical RAM for          addusforce:     153.42 MB

     Dynamical RAM for         addusstress:      81.13 MB

     Estimated static dynamical RAM per process >     110.40 MB

     Estimated max dynamical RAM per process >       1.14 GB

     Estimated total dynamical RAM >     145.84 GB

     Atomic positions and unit cell read from directory:
     ./PbI2.save/
     Atomic positions from file used, from input discarded
 

     Check: negative core charge=   -0.000001

     The initial density is read from file :
     ./PbI2.save/charge-density



     %%%%%%%%%%%%%%%%%%%%%%%%%%%%%%%%%%%%%%%%%%%%%%%%%%%%%%%%%%%%%%%%%%%%%%%%
     %                                                                      %
     % You are using vdW-DF, which was implemented by the Thonhauser group. %
     % Please cite the following two papers that made this development      %
     % possible and the two reviews that describe the various versions:     %
     %                                                                      %
     %   T. Thonhauser et al., PRL 115, 136402 (2015).                      %
     %   T. Thonhauser et al., PRB 76, 125112 (2007).                       %
     %   K. Berland et al., Rep. Prog. Phys. 78, 066501 (2015).             %
     %   D.C. Langreth et al., J. Phys.: Condens. Matter 21, 084203 (2009). %
     %                                                                      %
     % If you are calculating stress with vdW-DF, please also cite:         %
     %                                                                      %
     %   R. Sabatini et al., J. Phys.: Condens. Matter 24, 424209 (2012).   %
     %                                                                      %
     %%%%%%%%%%%%%%%%%%%%%%%%%%%%%%%%%%%%%%%%%%%%%%%%%%%%%%%%%%%%%%%%%%%%%%%%

     %%%%%%%%%%%%%%%%%%%%%%%%%%%%%%%%%%%%%%%%%%%%%%%%%%%%%%%%%%%%%%%%%%%%%%%%
     %                                                                      %
     %  vdW-DF NEWS:                                                        %
     %                                                                      %
     %  * vdW-DF3 is now available. DOI: 10.1021/acs.jctc.0c00471           %
     %    use with input_dft = 'vdW-DF3-opt1' or 'vdW-DF3-opt2'             %
     %                                                                      %
     %  * Unscreened and range-separated vdW-DF hybrid functionals          %
     %    DOI: 10.1063/1.4986522 and 10.1088/1361-648X/ac2ad2               %
     %    use with input_dft = 'vdW-DF-cx0' (etc) and 'vdW-DF-ahcx'         %
     %                                                                      %
     %%%%%%%%%%%%%%%%%%%%%%%%%%%%%%%%%%%%%%%%%%%%%%%%%%%%%%%%%%%%%%%%%%%%%%%%


     Carrying out vdW-DF run using the following parameters:
     Nqs    =  20  Npoints =  1024  r_max =  100.000
     q_mesh =  0.00001000  0.04494208  0.09755937  0.15916263
               0.23128650  0.31572767  0.41458969  0.53033537
               0.66584808  0.82450364  1.01025438  1.22772762
               1.48234092  1.78043706  2.12944203  2.53805004
               3.01644009  3.57652955  4.23227104  5.00000000


     -----------------------------------------------
     Non-local corr. energy    =      46.32623049 Ry
     -----------------------------------------------

     Starting wfcs from file
     Checking if some PAW data can be deallocated... 
       PAW data deallocated on   66 nodes for type:  1
       PAW data deallocated on   62 nodes for type:  2

     total cpu time spent up to now is       19.6 secs

     Self-consistent Calculation

     iteration #  1     ecut=    70.00 Ry     beta= 0.70
     Davidson diagonalization with overlap

---- Real-time Memory Report at c_bands before calling an iterative solver
           347 MiB given to the printing process from OS
             0 MiB allocation reported by mallinfo(arena+hblkhd)
       1884693 MiB available memory on the node where the printing process lives
------------------
     ethr =  1.00E-05,  avg # of iterations =  2.0

     Threshold (ethr) on eigenvalues was too large:
     Diagonalizing with lowered threshold

     Davidson diagonalization with overlap

---- Real-time Memory Report at c_bands before calling an iterative solver
           942 MiB given to the printing process from OS
             0 MiB allocation reported by mallinfo(arena+hblkhd)
       1871890 MiB available memory on the node where the printing process lives
------------------
     ethr =  1.65E-12,  avg # of iterations = 19.0


     -----------------------------------------------
     Non-local corr. energy    =      46.32623060 Ry
     -----------------------------------------------


     total cpu time spent up to now is      225.0 secs

     End of self-consistent calculation

          k = 0.0000 0.0000 0.0000 (302703 PWs)   bands (ev):

   -41.8052 -41.8052 -41.7605 -41.7603 -41.7478 -40.8916 -40.8913 -40.8904
   -40.8901 -40.8901 -40.8899 -40.8804 -40.8801 -40.8793 -40.8790 -40.8789
   -40.8787 -40.8768 -40.8765 -40.8757 -40.8753 -40.8753 -40.8751 -40.8392
   -40.8390 -40.8386 -40.8384 -40.8383 -40.8380 -40.8380 -40.8378 -40.8377
   -40.8374 -40.8373 -40.8372 -40.8109 -40.8109 -40.8107 -40.8107 -40.8106
   -40.8106 -40.8096 -40.8096 -40.8095 -40.8095 -40.8095 -40.8094 -40.8093
   -40.8093 -40.8093 -40.8092 -40.8091 -40.8091 -40.8077 -40.8077 -40.8074
   -40.8074 -40.8069 -40.8069 -40.8067 -40.8066 -40.8066 -40.8066 -40.8066
   -40.8065 -40.8064 -40.8064 -40.8063 -40.8063 -40.8061 -40.8060 -40.8059
   -40.8058 -40.8057 -40.8057 -40.7906 -40.7906 -40.7906 -40.7904 -40.7903
   -40.7903 -40.7903 -40.7903 -40.7903 -40.7902 -40.7902 -40.7901 -40.7901
   -40.7900 -40.7900 -40.7900 -40.7900 -40.7900 -40.7899 -40.7899 -40.7899
   -40.7899 -40.7899 -40.7899 -40.7898 -40.7898 -40.7898 -40.7898 -40.7898
   -40.7898 -40.7898 -40.7897 -40.7897 -40.7897 -40.7897 -40.7897 -40.7897
   -40.7897 -40.7896 -40.7896 -40.7896 -40.7896 -40.7896 -40.7896 -40.7896
   -40.7896 -40.7896 -40.7896 -40.7896 -40.7896 -40.7896 -40.7895 -40.7895
   -40.7895 -40.7895 -40.7895 -40.7895 -40.7894 -40.7894 -40.7894 -40.7894
   -40.7894 -40.7894 -40.7894 -40.7893 -40.7893 -40.7893 -40.7893 -40.7893
   -40.7892 -40.7892 -40.7892 -40.7892 -40.7892 -40.7892 -40.7891 -40.7891
   -40.7891 -40.7891 -40.7891 -40.7891 -40.7891 -40.7890 -40.7890 -40.7890
   -40.7890 -40.7890 -40.7889 -40.7889 -40.7889 -40.7889 -40.7889 -40.7889
   -40.7889 -40.7889 -40.7889 -40.7889 -40.7889 -40.7888 -40.7888 -40.7888
   -40.7888 -40.7887 -40.7887 -40.7887 -40.7887 -40.7887 -40.7887 -40.7887
   -40.7887 -40.7887 -40.7887 -40.7887 -40.7886 -40.7886 -40.7885 -40.7885
   -40.7885 -40.7884 -40.7884 -40.7660 -40.7658 -40.7658 -40.7658 -40.7658
   -40.7658 -40.7657 -40.7657 -40.7657 -40.7656 -40.7656 -40.7655 -40.7653
   -40.7653 -40.7652 -40.7652 -40.7652 -40.7651 -40.7651 -40.7651 -40.7651
   -40.7650 -40.7650 -40.7650 -40.7650 -40.7649 -40.7649 -40.7648 -40.7648
   -40.7647 -40.7647 -40.7646 -40.7646 -40.7646 -40.7646 -40.7645 -40.7645
   -40.7645 -40.7644 -40.7643 -40.7642 -40.7642 -40.7642 -40.7642 -40.7638
   -40.7638 -40.7633 -40.7632 -40.7632 -40.7631 -40.7631 -40.7631 -40.7631
   -40.7631 -40.7630 -40.7630 -40.7630 -40.7629 -40.7629 -40.7629 -40.7629
   -40.7629 -40.7628 -40.7628 -40.7628 -40.7628 -40.7627 -40.7627 -40.7626
   -40.7626 -40.7626 -40.7626 -40.7626 -40.7626 -40.7626 -40.7625 -40.7625
   -40.7625 -40.7625 -40.7625 -40.7625 -40.7624 -40.7624 -40.7624 -40.7624
   -40.7624 -40.7624 -40.7623 -40.7623 -40.7623 -40.7623 -40.7623 -40.7622
   -40.7621 -40.7620 -40.7620 -40.7619 -40.7618 -40.7618 -40.7618 -40.7618
   -40.7618 -40.7618 -40.7618 -40.7618 -40.7617 -40.7617 -40.7617 -40.7617
   -40.7616 -40.7616 -40.7616 -40.7616 -40.7615 -40.7615 -40.7615 -40.7615
   -40.7614 -40.7611 -40.7611 -40.7610 -40.7610 -40.7609 -40.7609 -40.7609
   -40.7609 -40.7609 -40.7608 -40.7608 -40.7607 -12.9595 -12.9567 -12.9567
   -12.9531 -12.9521 -12.9521 -12.9491 -12.9491 -12.9491 -12.9477 -12.9477
   -12.9469 -12.9463 -12.9463 -12.9463 -12.9401 -12.9397 -12.9397 -12.9370
   -12.9369 -12.9366 -12.9363 -12.9363 -12.9349 -12.9348 -12.9347 -12.9343
   -12.9338 -12.9332 -12.9327 -12.9327 -12.9327 -12.9326 -12.9318 -12.9318
   -12.9318 -12.9308 -12.9308 -12.9308 -12.9301 -12.9301 -12.9299 -12.9292
   -12.9292 -12.9289 -12.9289 -12.9289 -12.9284 -12.9284 -12.9283 -12.9282
   -12.9282 -12.9278 -12.9278 -12.9278 -12.9277 -12.9276 -12.9262 -12.9262
   -12.9254 -12.9253 -12.9253 -12.9248 -12.9243 -12.9243 -12.9231 -12.9231
   -12.9230 -12.9227 -12.9227 -12.9226 -12.9224 -12.9224 -12.9210 -12.9208
   -12.9208 -12.9208 -12.9207 -12.9201 -12.9184 -12.9184 -12.9184 -12.9184
   -12.9184 -12.9168 -12.9168 -12.9144 -12.9143 -12.9142 -12.9127 -12.9127
   -12.9101 -12.9089 -12.9086 -12.9076 -12.9075 -12.9041 -12.9040 -12.9021
   -12.9015 -12.9015 -12.9012 -12.9011 -12.9003 -12.9003 -12.9002 -12.9002
   -12.8993 -12.8992 -12.8992 -12.8987 -12.8986 -12.8985 -12.8977 -12.8974
   -12.8972 -12.8971 -12.8968 -12.8968 -12.8959 -12.8959 -12.8951 -12.8949
   -12.8949 -12.8942 -12.8939 -12.8931 -12.8930 -12.8928 -12.8927 -12.8926
   -12.8897 -12.8896 -12.8885 -12.8865 -12.8864 -12.8863 -12.8862 -12.8860
   -12.8858 -12.8848 -12.8847 -12.8843 -12.8839 -12.8837 -12.8836 -12.8835
   -12.8825 -12.8824 -12.8822 -12.8821 -12.8809 -12.8801 -12.8798 -12.8798
    -8.4658  -8.1092  -8.0067  -7.9250  -7.9249  -7.9211  -7.9186  -7.9185
    -7.8965  -7.8427  -7.8426  -7.8413  -7.8404  -7.8403  -7.7091  -7.6916
    -7.6653  -7.6652  -7.6518  -7.6517  -7.6508  -7.6470  -7.6436  -7.6328
    -7.6327  -7.6205  -7.6203  -7.6072  -7.6072  -7.6064  -7.6061  -7.6060
    -7.6041  -7.6036  -7.6010  -7.6009  -7.5927  -7.5861  -7.5859  -7.5852
    -7.5470  -7.5372  -7.5370  -7.5250  -7.5248  -7.5247  -7.5242  -7.5241
    -7.5213  -7.5157  -7.5149  -7.5149  -7.5116  -7.5115  -7.5115  -7.5114
    -7.4947  -7.4945  -7.4749  -7.4749  -7.4713  -7.4707  -7.4706  -7.4697
    -7.3578  -3.6577  -3.6577  -3.6546  -3.6455  -3.6455  -3.6447  -3.6437
    -3.6436  -3.6429  -3.6223  -3.6223  -3.6169  -3.6120  -3.6117  -3.6117
    -3.6089  -3.6089  -3.4470  -3.3859  -3.3858  -3.3849  -3.3819  -3.3819
    -3.3768  -3.3483  -3.3426  -3.3426  -3.3419  -3.3418  -3.1925  -3.1131
     0.8039   0.8040   0.8282   0.9999   1.0003   1.0686   1.1412   1.1413
     1.1528   1.1709   1.1811   1.1812   1.2382   1.2383   1.3006   1.3502
     1.3566   1.3566   1.3590   1.3590   1.3607   1.3683   1.3827   1.3827
     1.4126   1.4126   1.4605   1.4606   1.4772   1.4815   1.4895   1.4982
     1.4982   1.5070   1.5071   1.5186   1.5620   1.5905   1.5905   1.6094
     1.6094   1.6188   1.6433   1.7162   1.7162   1.7575   1.7590   1.7861
     1.7861   1.8092   1.8093   1.8750   1.8750   1.9006   1.9107   1.9625
     1.9625   1.9937   2.0124   2.0125   2.0241   2.0286   2.0286   2.0292
     2.0313   2.0314   2.0362   2.0363   2.0376   2.1259   2.1259   2.1339
     2.1816   2.2029   2.2030   2.2073   2.2074   2.2077   2.2190   2.2597
     2.2736   2.2736   2.2773   2.2773   2.2882   2.3026   2.3026   2.3043
     2.3044   2.3046   2.3140   2.3183   2.3211   2.3211   2.3247   2.3247
     2.3316   2.3772   2.4526   2.4527   2.5015   2.5016   2.5095   2.5096
     2.5210   2.5341   2.5543   2.6045   2.6045   2.6408   2.6720   2.6720
     2.7273   2.7288   2.7288   2.7300   2.7300   2.7397   2.7477   2.7477
     2.7478   2.7504   2.7504   2.8068   2.8068   2.8104   2.8155   2.8250
     2.8250   2.8571   2.8571   2.8587   2.8664   2.8719   2.8719   2.8768
     2.8769   2.8887   2.8888   2.8944   2.8944   2.8971   2.8985   2.8985
     2.9434   2.9553   2.9559   2.9559   2.9791   2.9792   2.9804   2.9804
     2.9856   2.9876   2.9877   2.9979   2.9994   3.0007   3.0008   3.0061
     3.0088   3.0088   3.0309   3.0312   3.0479   3.1678   3.1873   3.1874
     3.1916   3.1916   3.2043   3.2112   3.2112   3.2266   3.2267   3.2279
     3.2286   3.2528   3.2529   3.3063   3.3357   3.3358   3.3480   3.3671
     3.3671   3.3843   3.3957   3.3965   3.3966   3.4025   3.4025   3.4658
     3.9812   4.0150   4.0151   5.9524   6.1748   6.4808   6.4913   6.4913
     6.5238   6.5238   6.5289   6.5988   6.5988   6.6194   6.6916   6.6930
     6.6930   6.7354   6.7354   6.8077   6.8077   6.8171   6.8676   6.8677
     6.9582   6.9582   6.9583   6.9770   6.9770   6.9998   7.0382   7.0573
     7.0573   7.1754   7.1754   7.1788   7.1824   7.2017   7.2017   7.2483
     7.2517   7.2517   7.2570   7.2586   7.2587   7.2608   7.2608   7.2652
     7.2738   7.2739   7.2744   7.2925   7.2982   7.2983   7.3050   7.3132
     7.3176   7.3176   7.3708   7.3709   7.3965   7.3965   7.4229   7.4230
     7.4245   7.4263   7.4396   7.4396   7.4487   7.4488   7.4502   7.4516
     7.4539   7.4618   7.4618   7.4619   7.4970   7.4972   7.5394   7.5636
     7.5636   7.5636   7.6084   7.6084   7.6111   7.6145   7.6146   7.6845
     7.7233   7.7234   7.7309   7.7311   7.7616   8.0489   8.0504   8.0504
     9.1768   9.1768   9.1846   9.7465   9.7466   9.7579   9.8295   9.8565
     9.8565   9.8606   9.8626   9.8653   9.8653   9.9953  10.0084  10.0084
    10.0205  10.0206  10.0489  10.0490  10.0501  10.0502  10.0570  10.0816
    10.1072  10.3728  10.3728  10.3874  10.3918  10.3993  10.3993  10.4113
    10.4266  10.4266  10.4267  10.4268  10.4373  10.4653  10.7574  10.7748
    10.7823  10.7823  10.8038  10.8038  10.8969  10.9276  10.9276  10.9420
    10.9464  10.9464  11.1390  11.1568  11.1569  11.1897  11.1901  11.1901
    11.2040  11.2041  11.2065  11.2108

     occupation numbers 
     1.0000   1.0000   1.0000   1.0000   1.0000   1.0000   1.0000   1.0000
     1.0000   1.0000   1.0000   1.0000   1.0000   1.0000   1.0000   1.0000
     1.0000   1.0000   1.0000   1.0000   1.0000   1.0000   1.0000   1.0000
     1.0000   1.0000   1.0000   1.0000   1.0000   1.0000   1.0000   1.0000
     1.0000   1.0000   1.0000   1.0000   1.0000   1.0000   1.0000   1.0000
     1.0000   1.0000   1.0000   1.0000   1.0000   1.0000   1.0000   1.0000
     1.0000   1.0000   1.0000   1.0000   1.0000   1.0000   1.0000   1.0000
     1.0000   1.0000   1.0000   1.0000   1.0000   1.0000   1.0000   1.0000
     1.0000   1.0000   1.0000   1.0000   1.0000   1.0000   1.0000   1.0000
     1.0000   1.0000   1.0000   1.0000   1.0000   1.0000   1.0000   1.0000
     1.0000   1.0000   1.0000   1.0000   1.0000   1.0000   1.0000   1.0000
     1.0000   1.0000   1.0000   1.0000   1.0000   1.0000   1.0000   1.0000
     1.0000   1.0000   1.0000   1.0000   1.0000   1.0000   1.0000   1.0000
     1.0000   1.0000   1.0000   1.0000   1.0000   1.0000   1.0000   1.0000
     1.0000   1.0000   1.0000   1.0000   1.0000   1.0000   1.0000   1.0000
     1.0000   1.0000   1.0000   1.0000   1.0000   1.0000   1.0000   1.0000
     1.0000   1.0000   1.0000   1.0000   1.0000   1.0000   1.0000   1.0000
     1.0000   1.0000   1.0000   1.0000   1.0000   1.0000   1.0000   1.0000
     1.0000   1.0000   1.0000   1.0000   1.0000   1.0000   1.0000   1.0000
     1.0000   1.0000   1.0000   1.0000   1.0000   1.0000   1.0000   1.0000
     1.0000   1.0000   1.0000   1.0000   1.0000   1.0000   1.0000   1.0000
     1.0000   1.0000   1.0000   1.0000   1.0000   1.0000   1.0000   1.0000
     1.0000   1.0000   1.0000   1.0000   1.0000   1.0000   1.0000   1.0000
     1.0000   1.0000   1.0000   1.0000   1.0000   1.0000   1.0000   1.0000
     1.0000   1.0000   1.0000   1.0000   1.0000   1.0000   1.0000   1.0000
     1.0000   1.0000   1.0000   1.0000   1.0000   1.0000   1.0000   1.0000
     1.0000   1.0000   1.0000   1.0000   1.0000   1.0000   1.0000   1.0000
     1.0000   1.0000   1.0000   1.0000   1.0000   1.0000   1.0000   1.0000
     1.0000   1.0000   1.0000   1.0000   1.0000   1.0000   1.0000   1.0000
     1.0000   1.0000   1.0000   1.0000   1.0000   1.0000   1.0000   1.0000
     1.0000   1.0000   1.0000   1.0000   1.0000   1.0000   1.0000   1.0000
     1.0000   1.0000   1.0000   1.0000   1.0000   1.0000   1.0000   1.0000
     1.0000   1.0000   1.0000   1.0000   1.0000   1.0000   1.0000   1.0000
     1.0000   1.0000   1.0000   1.0000   1.0000   1.0000   1.0000   1.0000
     1.0000   1.0000   1.0000   1.0000   1.0000   1.0000   1.0000   1.0000
     1.0000   1.0000   1.0000   1.0000   1.0000   1.0000   1.0000   1.0000
     1.0000   1.0000   1.0000   1.0000   1.0000   1.0000   1.0000   1.0000
     1.0000   1.0000   1.0000   1.0000   1.0000   1.0000   1.0000   1.0000
     1.0000   1.0000   1.0000   1.0000   1.0000   1.0000   1.0000   1.0000
     1.0000   1.0000   1.0000   1.0000   1.0000   1.0000   1.0000   1.0000
     1.0000   1.0000   1.0000   1.0000   1.0000   1.0000   1.0000   1.0000
     1.0000   1.0000   1.0000   1.0000   1.0000   1.0000   1.0000   1.0000
     1.0000   1.0000   1.0000   1.0000   1.0000   1.0000   1.0000   1.0000
     1.0000   1.0000   1.0000   1.0000   1.0000   1.0000   1.0000   1.0000
     1.0000   1.0000   1.0000   1.0000   1.0000   1.0000   1.0000   1.0000
     1.0000   1.0000   1.0000   1.0000   1.0000   1.0000   1.0000   1.0000
     1.0000   1.0000   1.0000   1.0000   1.0000   1.0000   1.0000   1.0000
     1.0000   1.0000   1.0000   1.0000   1.0000   1.0000   1.0000   1.0000
     1.0000   1.0000   1.0000   1.0000   1.0000   1.0000   1.0000   1.0000
     1.0000   1.0000   1.0000   1.0000   1.0000   1.0000   1.0000   1.0000
     1.0000   1.0000   1.0000   1.0000   1.0000   1.0000   1.0000   1.0000
     1.0000   1.0000   1.0000   1.0000   1.0000   1.0000   1.0000   1.0000
     1.0000   1.0000   1.0000   1.0000   1.0000   1.0000   1.0000   1.0000
     1.0000   1.0000   1.0000   1.0000   1.0000   1.0000   1.0000   1.0000
     1.0000   1.0000   1.0000   1.0000   1.0000   1.0000   1.0000   1.0000
     1.0000   1.0000   1.0000   1.0000   1.0000   1.0000   1.0000   1.0000
     1.0000   1.0000   1.0000   1.0000   1.0000   1.0000   1.0000   1.0000
     1.0000   1.0000   1.0000   1.0000   1.0000   1.0000   1.0000   1.0000
     1.0000   1.0000   1.0000   1.0000   1.0000   1.0000   1.0000   1.0000
     1.0000   1.0000   1.0000   1.0000   1.0000   1.0000   1.0000   1.0000
     1.0000   1.0000   1.0000   1.0000   1.0000   1.0000   1.0000   1.0000
     1.0000   1.0000   1.0000   1.0000   1.0000   1.0000   1.0000   1.0000
     1.0000   1.0000   1.0000   1.0000   1.0000   1.0000   1.0000   1.0000
     1.0000   1.0000   1.0000   1.0000   1.0000   1.0000   1.0000   1.0000
     1.0000   1.0000   1.0000   1.0000   1.0000   1.0000   1.0000   1.0000
     1.0000   1.0000   1.0000   1.0000   1.0000   1.0000   1.0000   1.0000
     1.0000   1.0000   1.0000   1.0000   1.0000   1.0000   1.0000   1.0000
     1.0000   1.0000   1.0000   1.0000   1.0000   1.0000   1.0000   1.0000
     1.0000   1.0000   1.0000   1.0000   1.0000   1.0000   1.0000   1.0000
     1.0000   1.0000   1.0000   1.0000   1.0000   1.0000   1.0000   1.0000
     1.0000   1.0000   1.0000   1.0000   1.0000   1.0000   1.0000   1.0000
     1.0000   1.0000   1.0000   1.0000   1.0000   1.0000   1.0000   1.0000
     1.0000   1.0000   1.0000   1.0000   1.0000   1.0000   1.0000   1.0000
     1.0000   1.0000   1.0000   1.0000   1.0000   1.0000   1.0000   1.0000
     1.0000   1.0000   1.0000   1.0000   1.0000   1.0000   1.0000   1.0000
     1.0000   1.0000   1.0000   1.0000   1.0000   1.0000   1.0000   1.0000
     1.0000   1.0000   1.0000   1.0000   1.0000   1.0000   1.0000   1.0000
     1.0000   1.0000   1.0000   1.0000   1.0000   1.0000   1.0000   1.0000
     1.0000   1.0000   1.0000   1.0000   1.0000   1.0000   1.0000   1.0000
     1.0000   1.0000   1.0000   1.0000   1.0000   1.0000   1.0000   1.0000
     1.0000   1.0000   1.0000   1.0000   1.0000   1.0000   1.0000   1.0000
     1.0000   1.0000   1.0000   1.0000   1.0000   1.0000   1.0000   1.0000
     1.0000   1.0000   1.0000   1.0000   1.0000   1.0000   1.0000   1.0000
     1.0000   1.0000   1.0000   1.0000   1.0000   1.0000   1.0000   1.0000
     1.0000   1.0000   1.0000   1.0000   1.0000   1.0000   1.0000   1.0000
     1.0000   1.0000   1.0000   1.0000   1.0000   1.0000   1.0000   1.0000
     1.0000   1.0000   1.0000   1.0000   1.0000   1.0000   1.0000   1.0000
     1.0000   1.0000   1.0000   1.0000   1.0000   1.0000   1.0000   1.0000
     1.0000   1.0000   1.0000   1.0000   1.0000   1.0000   1.0000   1.0000
     1.0000   1.0000   1.0000   1.0000   1.0000   1.0000   1.0000   1.0000
     1.0000   1.0000   1.0000   1.0000   1.0000   1.0000   1.0000   1.0000
     1.0000   1.0000   1.0000   1.0000   1.0000   1.0000   1.0000   1.0000
     1.0000   1.0000   1.0000   1.0000   1.0000   1.0000   1.0000   1.0000
     1.0000   1.0000   1.0000   1.0000   1.0000   1.0000   1.0000   1.0000
     1.0000   1.0000   1.0000   1.0000   1.0000   1.0000   1.0000   1.0000
     1.0000   1.0000   1.0000   1.0000   1.0000   1.0000   1.0000   1.0000
     0.5928   0.4539   0.4533   0.0000   0.0000   0.0000   0.0000   0.0000
     0.0000   0.0000   0.0000   0.0000   0.0000   0.0000   0.0000   0.0000
     0.0000   0.0000   0.0000   0.0000   0.0000   0.0000   0.0000   0.0000
     0.0000   0.0000   0.0000   0.0000   0.0000   0.0000   0.0000   0.0000
     0.0000   0.0000   0.0000   0.0000   0.0000   0.0000   0.0000   0.0000
     0.0000   0.0000   0.0000   0.0000   0.0000   0.0000   0.0000   0.0000
     0.0000   0.0000   0.0000   0.0000   0.0000   0.0000   0.0000   0.0000
     0.0000   0.0000   0.0000   0.0000   0.0000   0.0000   0.0000   0.0000
     0.0000   0.0000   0.0000   0.0000   0.0000   0.0000   0.0000   0.0000
     0.0000   0.0000   0.0000   0.0000   0.0000   0.0000   0.0000   0.0000
     0.0000   0.0000   0.0000   0.0000   0.0000   0.0000   0.0000   0.0000
     0.0000   0.0000   0.0000   0.0000   0.0000   0.0000   0.0000   0.0000
     0.0000   0.0000   0.0000   0.0000   0.0000   0.0000   0.0000   0.0000
     0.0000   0.0000   0.0000   0.0000   0.0000   0.0000   0.0000   0.0000
     0.0000   0.0000   0.0000   0.0000   0.0000   0.0000   0.0000   0.0000
     0.0000   0.0000   0.0000   0.0000   0.0000   0.0000   0.0000   0.0000
     0.0000   0.0000   0.0000   0.0000   0.0000   0.0000   0.0000   0.0000
     0.0000   0.0000   0.0000   0.0000   0.0000   0.0000   0.0000   0.0000
     0.0000   0.0000   0.0000   0.0000   0.0000   0.0000   0.0000   0.0000
     0.0000   0.0000   0.0000   0.0000

     the Fermi energy is     4.0038 ev

!    total energy              =  -64423.24851144 Ry
     total all-electron energy =  -2221425.395153 Ry
     estimated scf accuracy    <       0.00000003 Ry
     smearing contrib. (-TS)   =      -0.01669581 Ry
     internal energy E=F+TS    =  -64423.23181563 Ry

     The total energy is F=E-TS. E is the sum of the following terms:
     one-electron contribution =  -12024.38413613 Ry
     hartree contribution      =    6708.49808627 Ry
     xc contribution           =   -4556.69940133 Ry
     ewald contribution        =   -9923.83992034 Ry
     one-center paw contrib.   =  -44626.80644411 Ry
      -> PAW hartree energy AE =      95.93030951 Ry
      -> PAW hartree energy PS =     -96.16733453 Ry
      -> PAW xc energy AE      =    -798.43214384 Ry
      -> PAW xc energy PS      =      33.31202878 Ry
      -> total E_H with PAW    =    6708.26106125 Ry
      -> total E_XC with PAW   =   -5321.81951639 Ry

     convergence has been achieved in   1 iterations


     -----------------------------------------------
     Non-local corr. energy    =      46.32623060 Ry
     -----------------------------------------------


     Forces acting on atoms (cartesian axes, Ry/au):

     atom    1 type  1   force =     0.00000231   -0.00000162   -0.00001231
     atom    2 type  1   force =    -0.00048310    0.00083589   -0.00000277
     atom    3 type  1   force =    -0.00000135    0.00000620   -0.00000402
     atom    4 type  1   force =    -0.00000091    0.00000206   -0.00000115
     atom    5 type  1   force =    -0.00000064    0.00000103   -0.00000810
     atom    6 type  1   force =     0.00048144   -0.00083400   -0.00000944
     atom    7 type  1   force =     0.00000119   -0.00000546   -0.00001164
     atom    8 type  1   force =     0.00095974    0.00000239   -0.00001588
     atom    9 type  1   force =     0.00000206   -0.00000059   -0.00001762
     atom   10 type  1   force =     0.00048700    0.00083403   -0.00001179
     atom   11 type  1   force =     0.00000226    0.00000503   -0.00001197
     atom   12 type  1   force =     0.00000179   -0.00001572    0.00005260
     atom   13 type  1   force =     0.00000026   -0.00007432   -0.00009106
     atom   14 type  1   force =    -0.00001737    0.00001026    0.00004657
     atom   15 type  1   force =    -0.00006349    0.00003513   -0.00009406
     atom   16 type  1   force =    -0.00000429   -0.00000160   -0.00000997
     atom   17 type  1   force =    -0.00000329   -0.00000151   -0.00001475
     atom   18 type  1   force =    -0.00001991   -0.00000634   -0.00006398
     atom   19 type  1   force =    -0.00006487   -0.00003493    0.00006917
     atom   20 type  1   force =    -0.00000129    0.00000025   -0.00000714
     atom   21 type  1   force =    -0.00000032   -0.00000084   -0.00001113
     atom   22 type  1   force =     0.00001496    0.00000655    0.00004749
     atom   23 type  1   force =     0.00006309    0.00003445   -0.00009097
     atom   24 type  1   force =    -0.00095753   -0.00000384   -0.00000228
     atom   25 type  1   force =    -0.00000300   -0.00000009   -0.00000778
     atom   26 type  1   force =     0.00001563   -0.00000646   -0.00005916
     atom   27 type  1   force =     0.00006315   -0.00003195    0.00007387
     atom   28 type  1   force =    -0.00000243    0.00001939   -0.00006396
     atom   29 type  1   force =     0.00000150    0.00007566    0.00007262
     atom   30 type  1   force =    -0.00048190   -0.00083024   -0.00000430
     atom   31 type  1   force =     0.00000103   -0.00000511   -0.00000970
     atom   32 type  2   force =    -0.00000681   -0.00000465   -0.00040108
     atom   33 type  2   force =    -0.00000112    0.00012831   -0.00043980
     atom   34 type  2   force =     0.00000727    0.00000048   -0.00041579
     atom   35 type  2   force =     0.00014357   -0.00008791   -0.00044755
     atom   36 type  2   force =    -0.00000765   -0.00002517   -0.00042637
     atom   37 type  2   force =     0.00005480    0.00030406   -0.00019799
     atom   38 type  2   force =    -0.00003609   -0.00000003   -0.00041535
     atom   39 type  2   force =     0.00027471   -0.00008886   -0.00020118
     atom   40 type  2   force =     0.00024420   -0.00014654   -0.00018314
     atom   41 type  2   force =    -0.00014840    0.00007264   -0.00062518
     atom   42 type  2   force =    -0.00000942    0.00000811   -0.00041122
     atom   43 type  2   force =    -0.00010820   -0.00006551   -0.00045936
     atom   44 type  2   force =     0.00000247    0.00028191   -0.00020452
     atom   45 type  2   force =     0.00000854   -0.00016015   -0.00061440
     atom   46 type  2   force =     0.00001340   -0.00000306   -0.00041917
     atom   47 type  2   force =     0.00005294    0.00002836   -0.00047587
     atom   48 type  2   force =     0.00000667   -0.00001669   -0.00041679
     atom   49 type  2   force =     0.00000237   -0.00006922   -0.00047188
     atom   50 type  2   force =    -0.00001947    0.00002993   -0.00041778
     atom   51 type  2   force =     0.00022534   -0.00019419   -0.00020289
     atom   52 type  2   force =     0.00001031   -0.00001920   -0.00041940
     atom   53 type  2   force =    -0.00005296    0.00030153   -0.00019733
     atom   54 type  2   force =    -0.00000367    0.00000074   -0.00041656
     atom   55 type  2   force =    -0.00004320    0.00002578   -0.00047159
     atom   56 type  2   force =    -0.00024356   -0.00015142   -0.00018207
     atom   57 type  2   force =     0.00015552    0.00006378   -0.00061577
     atom   58 type  2   force =     0.00002347    0.00002359   -0.00042197
     atom   59 type  2   force =    -0.00022926   -0.00019762   -0.00019708
     atom   60 type  2   force =    -0.00000327    0.00000942   -0.00040660
     atom   61 type  2   force =    -0.00000313    0.00000827   -0.00031812
     atom   62 type  2   force =     0.00002954    0.00000240   -0.00041317
     atom   63 type  2   force =    -0.00027392   -0.00009114   -0.00019591
     atom   64 type  2   force =     0.00010800    0.00005709    0.00046910
     atom   65 type  2   force =     0.00000801   -0.00001403    0.00040731
     atom   66 type  2   force =     0.00014296   -0.00007492    0.00064423
     atom   67 type  2   force =    -0.00024638    0.00014422    0.00017504
     atom   68 type  2   force =    -0.00005758   -0.00002551    0.00048593
     atom   69 type  2   force =    -0.00001527    0.00000642    0.00041445
     atom   70 type  2   force =    -0.00001222    0.00016244    0.00062566
     atom   71 type  2   force =    -0.00000522   -0.00027922    0.00019596
     atom   72 type  2   force =    -0.00013415    0.00007185    0.00046814
     atom   73 type  2   force =    -0.00001120   -0.00000497    0.00041912
     atom   74 type  2   force =     0.00000061   -0.00012560    0.00046922
     atom   75 type  2   force =     0.00000639   -0.00000061    0.00040276
     atom   76 type  2   force =    -0.00027749    0.00009051    0.00021821
     atom   77 type  2   force =     0.00003400    0.00000119    0.00041214
     atom   78 type  2   force =    -0.00005734   -0.00030168    0.00021604
     atom   79 type  2   force =     0.00000369    0.00002690    0.00042371
     atom   80 type  2   force =     0.00022902    0.00019618    0.00022144
     atom   81 type  2   force =    -0.00002487   -0.00002513    0.00042380
     atom   82 type  2   force =    -0.00015093   -0.00006817    0.00064084
     atom   83 type  2   force =     0.00024438    0.00014717    0.00018857
     atom   84 type  2   force =     0.00027710    0.00009508    0.00021579
     atom   85 type  2   force =    -0.00002862   -0.00000051    0.00041197
     atom   86 type  2   force =     0.00000285   -0.00000457    0.00033766
     atom   87 type  2   force =     0.00000170   -0.00000671    0.00040257
     atom   88 type  2   force =    -0.00022448    0.00019528    0.00022107
     atom   89 type  2   force =     0.00002409   -0.00003011    0.00041436
     atom   90 type  2   force =    -0.00000156    0.00007057    0.00049253
     atom   91 type  2   force =    -0.00000776    0.00001786    0.00041841
     atom   92 type  2   force =     0.00004844   -0.00002129    0.00048640
     atom   93 type  2   force =     0.00000641    0.00000533    0.00041495
     atom   94 type  2   force =     0.00005566   -0.00029843    0.00021179
     atom   95 type  2   force =    -0.00000465    0.00002498    0.00041354
     atom   96 type  2   force =     0.00000973   -0.00001328    0.00001475
     The non-local contrib.  to forces
     atom    1 type  1   force =     0.00000716   -0.00002444    0.00000349
     atom    2 type  1   force =     0.00018870   -0.00026864    0.00003859
     atom    3 type  1   force =     0.00020792   -0.00038514   -0.00003211
     atom    4 type  1   force =     0.00000837   -0.00002622   -0.00001032
     atom    5 type  1   force =     0.00000683   -0.00002425   -0.00000127
     atom    6 type  1   force =    -0.00021343    0.00020882   -0.00008438
     atom    7 type  1   force =    -0.00020491    0.00033208    0.00001087
     atom    8 type  1   force =    -0.00028739    0.00001914   -0.00004199
     atom    9 type  1   force =    -0.00038729   -0.00002163    0.00003322
     atom   10 type  1   force =    -0.00014125   -0.00030116    0.00001583
     atom   11 type  1   force =    -0.00019945   -0.00038799    0.00000492
     atom   12 type  1   force =     0.00001167   -0.00065858   -0.00011630
     atom   13 type  1   force =     0.00000223    0.00166879    0.00123745
     atom   14 type  1   force =    -0.00053107    0.00027013   -0.00009149
     atom   15 type  1   force =     0.00146469   -0.00087110    0.00123616
     atom   16 type  1   force =     0.00002945   -0.00003074    0.00001152
     atom   17 type  1   force =     0.00001026   -0.00002587    0.00002565
     atom   18 type  1   force =    -0.00051850   -0.00033368    0.00012956
     atom   19 type  1   force =     0.00145390    0.00080692   -0.00120826
     atom   20 type  1   force =     0.00002284   -0.00001707    0.00000990
     atom   21 type  1   force =    -0.00000170   -0.00002682    0.00002005
     atom   22 type  1   force =     0.00055074    0.00026714   -0.00011882
     atom   23 type  1   force =    -0.00145326   -0.00085951    0.00122766
     atom   24 type  1   force =     0.00032640   -0.00008697    0.00007014
     atom   25 type  1   force =     0.00039539   -0.00003258    0.00000456
     atom   26 type  1   force =     0.00053813   -0.00034516    0.00010618
     atom   27 type  1   force =    -0.00145836    0.00080043   -0.00121299
     atom   28 type  1   force =     0.00000355    0.00058978    0.00013632
     atom   29 type  1   force =    -0.00000010   -0.00171091   -0.00120014
     atom   30 type  1   force =     0.00019686    0.00026814    0.00000330
     atom   31 type  1   force =     0.00020016    0.00032368    0.00002184
     atom   32 type  2   force =     0.00000991   -0.00033835    0.24770635
     atom   33 type  2   force =     0.00001827   -0.06836806    0.20281121
     atom   34 type  2   force =    -0.00028249    0.00020686    0.24770557
     atom   35 type  2   force =    -0.05907540    0.03414631    0.20281402
     atom   36 type  2   force =    -0.00006560   -0.00006513    0.24709773
     atom   37 type  2   force =    -0.00296171    0.00178604    0.24346669
     atom   38 type  2   force =    -0.00011201   -0.00002292    0.24710279
     atom   39 type  2   force =     0.00004931   -0.00340398    0.24347848
     atom   40 type  2   force =    -0.00166778    0.00094355    0.24538161
     atom   41 type  2   force =    -0.00023236    0.00011285    0.24588107
     atom   42 type  2   force =     0.00026783    0.00019561    0.24770076
     atom   43 type  2   force =     0.05919131    0.03419384    0.20277151
     atom   44 type  2   force =    -0.00001794   -0.00189602    0.24539003
     atom   45 type  2   force =    -0.00001514   -0.00023000    0.24590690
     atom   46 type  2   force =     0.00007481    0.00003778    0.24730941
     atom   47 type  2   force =     0.00005596    0.00004123    0.24499466
     atom   48 type  2   force =     0.00000483   -0.00010424    0.24730231
     atom   49 type  2   force =    -0.00000287   -0.00008749    0.24498599
     atom   50 type  2   force =    -0.00004355    0.00014564    0.24709736
     atom   51 type  2   force =     0.00297673    0.00169783    0.24346687
     atom   52 type  2   force =     0.00007477   -0.00006604    0.24709670
     atom   53 type  2   force =     0.00296188    0.00178831    0.24345435
     atom   54 type  2   force =    -0.00008591    0.00004845    0.24730537
     atom   55 type  2   force =    -0.00008079    0.00005237    0.24499638
     atom   56 type  2   force =     0.00164351    0.00094733    0.24541340
     atom   57 type  2   force =     0.00022870    0.00012399    0.24589734
     atom   58 type  2   force =     0.00004593    0.00014269    0.24709761
     atom   59 type  2   force =    -0.00301652    0.00172773    0.24345757
     atom   60 type  2   force =     0.00000363    0.00002672    0.24801586
     atom   61 type  2   force =    -0.00000002    0.00002596    0.24443020
     atom   62 type  2   force =     0.00012187   -0.00001748    0.24709964
     atom   63 type  2   force =    -0.00003848   -0.00344737    0.24345376
     atom   64 type  2   force =    -0.05924067   -0.03416423   -0.20277404
     atom   65 type  2   force =    -0.00030365   -0.00016131   -0.24770510
     atom   66 type  2   force =     0.00020864   -0.00012624   -0.24587880
     atom   67 type  2   force =     0.00163104   -0.00096201   -0.24539809
     atom   68 type  2   force =    -0.00009222   -0.00003518   -0.24498938
     atom   69 type  2   force =    -0.00010044   -0.00003612   -0.24730600
     atom   70 type  2   force =    -0.00001709    0.00026544   -0.24590802
     atom   71 type  2   force =    -0.00001766    0.00190998   -0.24540726
     atom   72 type  2   force =     0.05907734   -0.03407363   -0.20281631
     atom   73 type  2   force =     0.00029333   -0.00014447   -0.24771096
     atom   74 type  2   force =     0.00000170    0.06832759   -0.20281368
     atom   75 type  2   force =     0.00001578    0.00033786   -0.24771352
     atom   76 type  2   force =    -0.00003018    0.00342464   -0.24346983
     atom   77 type  2   force =     0.00013041    0.00004881   -0.24710396
     atom   78 type  2   force =     0.00298568   -0.00174274   -0.24345652
     atom   79 type  2   force =     0.00008767    0.00010884   -0.24710074
     atom   80 type  2   force =     0.00300475   -0.00166110   -0.24346031
     atom   81 type  2   force =    -0.00003509   -0.00008522   -0.24710815
     atom   82 type  2   force =    -0.00022149   -0.00011695   -0.24590131
     atom   83 type  2   force =    -0.00163161   -0.00094727   -0.24542030
     atom   84 type  2   force =     0.00003522    0.00345063   -0.24345718
     atom   85 type  2   force =    -0.00010676    0.00004329   -0.24710774
     atom   86 type  2   force =     0.00000332    0.00001997   -0.24442769
     atom   87 type  2   force =     0.00000461    0.00001745   -0.24802866
     atom   88 type  2   force =    -0.00300335   -0.00164524   -0.24347051
     atom   89 type  2   force =     0.00002790   -0.00009653   -0.24711491
     atom   90 type  2   force =    -0.00001035    0.00008810   -0.24499262
     atom   91 type  2   force =    -0.00001133    0.00009293   -0.24731441
     atom   92 type  2   force =     0.00007066   -0.00003623   -0.24499906
     atom   93 type  2   force =     0.00007572   -0.00003598   -0.24731249
     atom   94 type  2   force =    -0.00299099   -0.00175871   -0.24345297
     atom   95 type  2   force =    -0.00007947    0.00010021   -0.24711050
     atom   96 type  2   force =     0.00006213    0.00003623    0.00004209
     The ionic contribution  to forces
     atom    1 type  1   force =    -0.00184746   -0.00026693    0.00243039
     atom    2 type  1   force =     0.24127911   -0.42661738   -0.00497139
     atom    3 type  1   force =    -0.04775230    0.08052801    0.00306687
     atom    4 type  1   force =    -0.00101191   -0.00027201   -0.00219889
     atom    5 type  1   force =    -0.00090886   -0.00016342    0.00040410
     atom    6 type  1   force =    -0.24428411    0.42610121   -0.00002898
     atom    7 type  1   force =     0.04526845   -0.08084157   -0.00023961
     atom    8 type  1   force =    -0.48986156   -0.00173711   -0.00009721
     atom    9 type  1   force =     0.09268962    0.00044247    0.00098423
     atom   10 type  1   force =    -0.24519357   -0.42342585   -0.00332032
     atom   11 type  1   force =     0.04669079    0.08224426    0.00192529
     atom   12 type  1   force =     0.00051744    0.17455679   -0.11467670
     atom   13 type  1   force =     0.00066030    0.03699608    0.04176236
     atom   14 type  1   force =     0.14978444   -0.08510268   -0.11457630
     atom   15 type  1   force =     0.03226812   -0.01786944    0.04190439
     atom   16 type  1   force =     0.00128954    0.00080885   -0.00065023
     atom   17 type  1   force =     0.00110864    0.00068732    0.00140569
     atom   18 type  1   force =     0.15046320    0.08784190    0.11092098
     atom   19 type  1   force =     0.03256454    0.02008279   -0.04013169
     atom   20 type  1   force =     0.00050686    0.00175069   -0.00187208
     atom   21 type  1   force =     0.00084041    0.00154926    0.00035074
     atom   22 type  1   force =    -0.14804121   -0.08481458   -0.11345240
     atom   23 type  1   force =    -0.03025572   -0.01781565    0.04197262
     atom   24 type  1   force =     0.49060276    0.00239379   -0.00328585
     atom   25 type  1   force =    -0.09243278    0.00022502    0.00276280
     atom   26 type  1   force =    -0.14849849    0.08571091    0.11069829
     atom   27 type  1   force =    -0.03161248    0.01898332   -0.04001929
     atom   28 type  1   force =    -0.00104383   -0.17238218    0.11032732
     atom   29 type  1   force =    -0.00079709   -0.03582826   -0.04114810
     atom   30 type  1   force =     0.24325057    0.42626930   -0.00166388
     atom   31 type  1   force =    -0.04732669   -0.08032708    0.00034995
     atom   32 type  2   force =    -0.00263726    0.13255224  -14.57189109
     atom   33 type  2   force =    -0.00451898    1.94517949  -13.45378828
     atom   34 type  2   force =     0.11336307   -0.07060494  -14.57103647
     atom   35 type  2   force =     1.67563037   -0.97247265  -13.45606471
     atom   36 type  2   force =    -0.13283622    0.05872612  -14.44007609
     atom   37 type  2   force =    -0.12914822    0.42527410  -14.38618012
     atom   38 type  2   force =    -0.01579365   -0.14408297  -14.43998421
     atom   39 type  2   force =     0.30683440   -0.32894568  -14.38605639
     atom   40 type  2   force =     0.33368128   -0.19302897  -13.83732946
     atom   41 type  2   force =    -0.09081373    0.05213476  -14.54306405
     atom   42 type  2   force =    -0.11576372   -0.06909786  -14.57102959
     atom   43 type  2   force =    -1.68436034   -0.97236895  -13.45689168
     atom   44 type  2   force =     0.00011963    0.38745997  -13.83461752
     atom   45 type  2   force =    -0.00086951   -0.10685712  -14.54640561
     atom   46 type  2   force =     0.01100031    0.00575122  -14.41347213
     atom   47 type  2   force =     0.06622949    0.03807187  -14.54946019
     atom   48 type  2   force =     0.00266916   -0.01163529  -14.41398346
     atom   49 type  2   force =     0.00204292   -0.07582187  -14.54850480
     atom   50 type  2   force =     0.11918367    0.08338208  -14.44084174
     atom   51 type  2   force =     0.43997770   -0.10309972  -14.38711395
     atom   52 type  2   force =     0.13308837    0.06193459  -14.43985451
     atom   53 type  2   force =     0.13074874    0.43150405  -14.38681740
     atom   54 type  2   force =    -0.00803182    0.00741866  -14.41354397
     atom   55 type  2   force =    -0.06357418    0.03902471  -14.54886958
     atom   56 type  2   force =    -0.33392099   -0.19353147  -13.83666045
     atom   57 type  2   force =     0.09325511    0.05426841  -14.54267794
     atom   58 type  2   force =    -0.11616849    0.08190223  -14.44131805
     atom   59 type  2   force =    -0.43166383   -0.10430364  -14.38568806
     atom   60 type  2   force =    -0.00004488    0.00041210  -14.52586022
     atom   61 type  2   force =     0.00065070   -0.00034810  -14.45056739
     atom   62 type  2   force =     0.01322680   -0.14260235  -14.44019043
     atom   63 type  2   force =    -0.30832900   -0.32569765  -14.38530267
     atom   64 type  2   force =     1.68019869    0.96941969   13.44839513
     atom   65 type  2   force =     0.11459860    0.06760444   14.57694525
     atom   66 type  2   force =     0.08931892   -0.05512565   14.53795124
     atom   67 type  2   force =    -0.33259938    0.19047724   13.84331141
     atom   68 type  2   force =    -0.06664150   -0.03927489   14.54595005
     atom   69 type  2   force =    -0.01096464   -0.00662756   14.41725174
     atom   70 type  2   force =    -0.00258611    0.10541572   14.54189268
     atom   71 type  2   force =    -0.00195314   -0.38643751   13.83968914
     atom   72 type  2   force =    -1.67918109    0.96566776   13.45217792
     atom   73 type  2   force =    -0.11856258    0.06689526   14.57674876
     atom   74 type  2   force =    -0.00280285   -1.94200399   13.45127692
     atom   75 type  2   force =    -0.00275213   -0.13553298   14.57826702
     atom   76 type  2   force =    -0.31007679    0.32743042   14.38346799
     atom   77 type  2   force =     0.01319296    0.14152078   14.44488466
     atom   78 type  2   force =     0.12727492   -0.42952520   14.38362321
     atom   79 type  2   force =     0.13018168   -0.06092392   14.44468346
     atom   80 type  2   force =     0.43751880    0.10284619   14.38320414
     atom   81 type  2   force =     0.11832626   -0.08366565   14.44427701
     atom   82 type  2   force =    -0.08889350   -0.05215867   14.54151625
     atom   83 type  2   force =     0.33475074    0.19378579   13.84055875
     atom   84 type  2   force =     0.31009597    0.32969238   14.38338672
     atom   85 type  2   force =    -0.01307618    0.14397990   14.44387428
     atom   86 type  2   force =     0.00207164    0.00079335   14.44815855
     atom   87 type  2   force =     0.00155542   -0.00011488   14.52917837
     atom   88 type  2   force =    -0.43463592    0.10298647   14.38285983
     atom   89 type  2   force =    -0.11428073   -0.08330426   14.44377989
     atom   90 type  2   force =     0.00223163    0.07627412   14.54596982
     atom   91 type  2   force =     0.00102854    0.01241450   14.41751039
     atom   92 type  2   force =     0.06650294   -0.03640768   14.54640804
     atom   93 type  2   force =     0.01074558   -0.00489819   14.41688455
     atom   94 type  2   force =    -0.12747689   -0.42837484   14.38305221
     atom   95 type  2   force =    -0.12994554   -0.05915770   14.44305677
     atom   96 type  2   force =    -0.00530793   -0.00387563   -0.00398308
     The local contribution  to forces
     atom    1 type  1   force =     0.00183000    0.00029239   -0.00242395
     atom    2 type  1   force =    -0.24215695    0.42790213    0.00480876
     atom    3 type  1   force =     0.04748209   -0.08009411   -0.00298577
     atom    4 type  1   force =     0.00100065    0.00029335    0.00217983
     atom    5 type  1   force =     0.00089932    0.00018424   -0.00039145
     atom    6 type  1   force =     0.24515306   -0.42734933    0.00014326
     atom    7 type  1   force =    -0.04501689    0.08045622    0.00020935
     atom    8 type  1   force =     0.49136835    0.00171075    0.00011018
     atom    9 type  1   force =    -0.09221875   -0.00042227   -0.00102373
     atom   10 type  1   force =     0.24599787    0.42478191    0.00320492
     atom   11 type  1   force =    -0.04644678   -0.08180155   -0.00190210
     atom   12 type  1   force =    -0.00053386   -0.17384499    0.11485609
     atom   13 type  1   force =    -0.00066836   -0.03866583   -0.04307937
     atom   14 type  1   force =    -0.14922837    0.08484252    0.11474612
     atom   15 type  1   force =    -0.03373970    0.01876414   -0.04323945
     atom   16 type  1   force =    -0.00131023   -0.00077474    0.00060095
     atom   17 type  1   force =    -0.00111376   -0.00065795   -0.00142741
     atom   18 type  1   force =    -0.14991217   -0.08750994   -0.11119301
     atom   19 type  1   force =    -0.03401909   -0.02090991    0.04144735
     atom   20 type  1   force =    -0.00052901   -0.00172555    0.00183098
     atom   21 type  1   force =    -0.00083753   -0.00151807   -0.00036425
     atom   22 type  1   force =     0.14746697    0.08456367    0.11364745
     atom   23 type  1   force =     0.03171743    0.01870662   -0.04329371
     atom   24 type  1   force =    -0.49211911   -0.00228425    0.00315775
     atom   25 type  1   force =     0.09195625   -0.00018060   -0.00274585
     atom   26 type  1   force =     0.14795226   -0.08537794   -0.11095401
     atom   27 type  1   force =     0.03308692   -0.01980449    0.04135244
     atom   28 type  1   force =     0.00104353    0.17174951   -0.11059090
     atom   29 type  1   force =     0.00080446    0.03754455    0.04244848
     atom   30 type  1   force =    -0.24410801   -0.42756109    0.00168597
     atom   31 type  1   force =     0.04707974    0.07995985   -0.00038415
     atom   32 type  2   force =     0.00261915   -0.13227531   14.32904300
     atom   33 type  2   force =     0.00447994   -1.87824083   13.25505391
     atom   34 type  2   force =    -0.11317377    0.07039810   14.32822624
     atom   35 type  2   force =    -1.61784633    0.93904391   13.25730621
     atom   36 type  2   force =     0.13286648   -0.05865867   14.19784683
     atom   37 type  2   force =     0.13203037   -0.42672874   14.14764307
     atom   38 type  2   force =     0.01590940    0.14408392   14.19773880
     atom   39 type  2   force =    -0.30657174    0.33205689   14.14752675
     atom   40 type  2   force =    -0.33172089    0.19192535   13.59704654
     atom   41 type  2   force =     0.09099905   -0.05219162   14.30179611
     atom   42 type  2   force =     0.11557072    0.06890238   14.32822253
     atom   43 type  2   force =     1.62644808    0.93890991   13.25815534
     atom   44 type  2   force =    -0.00011034   -0.38520602   13.59438554
     atom   45 type  2   force =     0.00086318    0.10698283   14.30505807
     atom   46 type  2   force =    -0.01104723   -0.00575831   14.17098913
     atom   47 type  2   force =    -0.06622041   -0.03807350   14.30921386
     atom   48 type  2   force =    -0.00266371    0.01171863   14.17150401
     atom   49 type  2   force =    -0.00202792    0.07585343   14.30827717
     atom   50 type  2   force =    -0.11910309   -0.08352936   14.19860610
     atom   51 type  2   force =    -0.44256496    0.10127480   14.14858511
     atom   52 type  2   force =    -0.13312353   -0.06185311   14.19762742
     atom   53 type  2   force =    -0.13361435   -0.43292090   14.14829559
     atom   54 type  2   force =     0.00809351   -0.00742529   14.17106423
     atom   55 type  2   force =     0.06359386   -0.03902564   14.30862550
     atom   56 type  2   force =     0.33198179    0.19243086   13.59635197
     atom   57 type  2   force =    -0.09341787   -0.05430371   14.30139904
     atom   58 type  2   force =     0.11610614   -0.08204872   14.19908054
     atom   59 type  2   force =     0.43434665    0.10245327   14.14717011
     atom   60 type  2   force =     0.00004802   -0.00045088   14.28275154
     atom   61 type  2   force =    -0.00063648    0.00029583   14.21097935
     atom   62 type  2   force =    -0.01335273    0.14260697   14.19794753
     atom   63 type  2   force =     0.30806294    0.32886357   14.14680110
     atom   64 type  2   force =    -1.62227072   -0.93598796  -13.24970768
     atom   65 type  2   force =    -0.11438388   -0.06743473  -14.33408022
     atom   66 type  2   force =    -0.08948164    0.05517576  -14.29672600
     atom   67 type  2   force =     0.33068332   -0.18936846  -13.60295949
     atom   68 type  2   force =     0.06666733    0.03926052  -14.30573398
     atom   69 type  2   force =     0.01103843    0.00662422  -14.17473640
     atom   70 type  2   force =     0.00259328   -0.10558161  -14.30057458
     atom   71 type  2   force =     0.00196581    0.38417572  -13.59940004
     atom   72 type  2   force =     1.62136617   -0.93232911  -13.25343042
     atom   73 type  2   force =     0.11833342   -0.06676039  -14.33388903
     atom   74 type  2   force =     0.00277511    1.87511537  -13.25255490
     atom   75 type  2   force =     0.00270895    0.13524651  -14.33536276
     atom   76 type  2   force =     0.30978161   -0.33056974  -14.14496641
     atom   77 type  2   force =    -0.01333804   -0.14156269  -14.20259680
     atom   78 type  2   force =    -0.13017760    0.43090437  -14.14511298
     atom   79 type  2   force =    -0.13024163    0.06080063  -14.20241212
     atom   80 type  2   force =    -0.44014832   -0.10106040  -14.14469668
     atom   81 type  2   force =    -0.11825796    0.08375446  -14.20199486
     atom   82 type  2   force =     0.08907538    0.05221237  -14.30023581
     atom   83 type  2   force =    -0.33281670   -0.19267752  -13.60021255
     atom   84 type  2   force =    -0.30981894   -0.33284095  -14.14489458
     atom   85 type  2   force =     0.01318567   -0.14400174  -14.20159130
     atom   86 type  2   force =    -0.00207298   -0.00078515  -14.20859044
     atom   87 type  2   force =    -0.00155964    0.00011164  -14.28602393
     atom   88 type  2   force =     0.43728141   -0.10120572  -14.14435185
     atom   89 type  2   force =     0.11424080    0.08341476  -14.20149191
     atom   90 type  2   force =    -0.00220825   -0.07630153  -14.30575309
     atom   91 type  2   force =    -0.00100613   -0.01248133  -14.17498357
     atom   92 type  2   force =    -0.06650208    0.03640630  -14.30617876
     atom   93 type  2   force =    -0.01078604    0.00490467  -14.17436697
     atom   94 type  2   force =     0.13038115    0.42978220  -14.14455346
     atom   95 type  2   force =     0.12999748    0.05905884  -14.20078569
     atom   96 type  2   force =     0.00520706    0.00382452    0.00389872
     The core correction contribution to forces
     atom    1 type  1   force =    -0.00000040    0.00000037    0.00000152
     atom    2 type  1   force =     0.00007891   -0.00014010   -0.00000184
     atom    3 type  1   force =    -0.00000480    0.00000738    0.00000162
     atom    4 type  1   force =    -0.00000004   -0.00000009   -0.00000005
     atom    5 type  1   force =    -0.00000006    0.00000002    0.00000091
     atom    6 type  1   force =    -0.00007877    0.00014008    0.00000285
     atom    7 type  1   force =     0.00000459   -0.00000711    0.00000093
     atom    8 type  1   force =    -0.00016054   -0.00000095    0.00000238
     atom    9 type  1   force =     0.00000876    0.00000018    0.00000159
     atom   10 type  1   force =    -0.00008056   -0.00013887   -0.00000005
     atom   11 type  1   force =     0.00000433    0.00000757    0.00000168
     atom   12 type  1   force =    -0.00000042    0.00001268   -0.00000153
     atom   13 type  1   force =    -0.00000014   -0.00003615   -0.00001950
     atom   14 type  1   force =     0.00001072   -0.00000549   -0.00000115
     atom   15 type  1   force =    -0.00003147    0.00001877   -0.00001915
     atom   16 type  1   force =     0.00000006    0.00000046    0.00000085
     atom   17 type  1   force =     0.00000024    0.00000038    0.00000146
     atom   18 type  1   force =     0.00001088    0.00000572    0.00000183
     atom   19 type  1   force =    -0.00003103   -0.00001820    0.00002195
     atom   20 type  1   force =    -0.00000025    0.00000007    0.00000036
     atom   21 type  1   force =     0.00000011    0.00000033    0.00000097
     atom   22 type  1   force =    -0.00001067   -0.00000496   -0.00000067
     atom   23 type  1   force =     0.00003138    0.00001874   -0.00001926
     atom   24 type  1   force =     0.00016010    0.00000190   -0.00000134
     atom   25 type  1   force =    -0.00000874    0.00000048    0.00000132
     atom   26 type  1   force =    -0.00001027    0.00000574    0.00000162
     atom   27 type  1   force =     0.00003153   -0.00001837    0.00002153
     atom   28 type  1   force =     0.00000027   -0.00001231    0.00000167
     atom   29 type  1   force =    -0.00000003    0.00003613    0.00002126
     atom   30 type  1   force =     0.00007905    0.00013898    0.00000082
     atom   31 type  1   force =    -0.00000471   -0.00000689    0.00000068
     atom   32 type  2   force =    -0.00000081    0.00000062   -0.00526867
     atom   33 type  2   force =    -0.00000058    0.00145638   -0.00460448
     atom   34 type  2   force =    -0.00000191    0.00000248   -0.00526825
     atom   35 type  2   force =     0.00126208   -0.00072818   -0.00460295
     atom   36 type  2   force =    -0.00000261    0.00000937   -0.00524211
     atom   37 type  2   force =     0.00006759   -0.00005896   -0.00518251
     atom   38 type  2   force =     0.00000443   -0.00000267   -0.00524370
     atom   39 type  2   force =    -0.00001983    0.00009130   -0.00518380
     atom   40 type  2   force =     0.00003027   -0.00001542   -0.00530629
     atom   41 type  2   force =     0.00000479   -0.00000063   -0.00524388
     atom   42 type  2   force =     0.00000106    0.00000294   -0.00526910
     atom   43 type  2   force =    -0.00126329   -0.00072819   -0.00460265
     atom   44 type  2   force =    -0.00000006    0.00003801   -0.00530765
     atom   45 type  2   force =    -0.00000023    0.00000822   -0.00524300
     atom   46 type  2   force =    -0.00000762   -0.00000188   -0.00525653
     atom   47 type  2   force =    -0.00000047    0.00000235   -0.00521300
     atom   48 type  2   force =    -0.00000024    0.00001106   -0.00525393
     atom   49 type  2   force =    -0.00000036    0.00000273   -0.00521137
     atom   50 type  2   force =     0.00000659    0.00000060   -0.00524037
     atom   51 type  2   force =    -0.00008724   -0.00002533   -0.00517989
     atom   52 type  2   force =     0.00000156    0.00000977   -0.00524168
     atom   53 type  2   force =    -0.00006872   -0.00005876   -0.00518082
     atom   54 type  2   force =     0.00000735   -0.00000165   -0.00525507
     atom   55 type  2   force =     0.00000029    0.00000215   -0.00521253
     atom   56 type  2   force =    -0.00003026   -0.00001533   -0.00530416
     atom   57 type  2   force =    -0.00000528   -0.00000074   -0.00524415
     atom   58 type  2   force =    -0.00000741    0.00000054   -0.00523942
     atom   59 type  2   force =     0.00008711   -0.00002600   -0.00518005
     atom   60 type  2   force =    -0.00000055    0.00000286   -0.00526786
     atom   61 type  2   force =    -0.00000050    0.00000295   -0.00519533
     atom   62 type  2   force =    -0.00000542   -0.00000256   -0.00524228
     atom   63 type  2   force =     0.00001884    0.00009262   -0.00518210
[...]
              0.222547411573682E+03
              0.101057823966091E+03
              0.164492744774974E+03
             -0.920842809814616E+01
              0.505534331265201E+03
              0.847244724784050E+02
             -0.780317443292056E+02
              0.925616027236265E+01
             -0.511468756329803E+02
              0.415076573745392E+03
             -0.237583513349010E+02
              0.892633157619714E+02
              0.299336892495503E+03
              0.656961158741742E+02
             -0.236245053833778E+03
             -0.344282649850245E+03
              0.361779784005057E+01
             -0.387225143705254E+03
              0.131373506193295E+03
             -0.784114507653961E+02
             -0.181817226693055E+03
              0.163551459105497E+03
              0.628180417186018E+02
              0.147537830599696E+03
              0.130898486493704E+02
              0.234941021282094E+03
             -0.383984637747135E+03
             -0.351456499989406E+02
             -0.334873778221526E+03
              0.604171345170794E+02
              0.181341805571231E+03
             -0.334196091318756E+02
             -0.126094958072280E+03
              0.269833138502441E+03
             -0.125132328351181E+03
              0.878869041512571E+02
             -0.784840724341998E+02
              0.192648789358463E+03
              0.232599579435370E+03
             -0.100337988322824E+03
              0.200174014445772E+03
              0.768035444968659E+02
             -0.206354318248410E+03
             -0.123453716514495E+03
              0.332821984494037E+03
              0.157713249110217E+03
             -0.152128702766430E+02
             -0.447785699948708E+02
              0.489204464754457E+03
              0.293354532316617E+03
              0.107510297677598E+03
             -0.313425582515271E+03
              0.490992770986646E+03
             -0.222086492411201E+03
             -0.275279424498517E+03
             -0.426337537063454E+03
              0.205517392550441E+03
             -0.390104143283511E+03
              0.169202455541467E+03
              0.277808384130319E+03
              0.205890105321197E+03
              0.436909203151390E+02
              0.122715483057642E+03
             -0.307449651999328E+03
             -0.109326075391071E+03
             -0.990964552413368E+02
              0.148571035306744E+03
              0.331532947021799E+03
              0.326911650039752E+03
              0.250220370743597E+03
             -0.617277972885490E+02
              0.888795383106981E+02
              0.124542351990747E+02
             -0.982383433749690E+02
              0.146606967033685E+03
              0.140306016021928E+03
             -0.200241386195101E+03
             -0.202814778443032E+03
             -0.929257667402028E+02
              0.215408793619094E+03
              0.109668282275189E+03
             -0.146717661995579E+03
             -0.255543122808981E+03
             -0.351009596519061E+03
              0.733119824009191E+01
              0.999146444151756E+02
             -0.135814983588491E+03
              0.498651428772962E+03
              0.465993389907453E+01
             -0.579217458568694E+03
              0.145263146807089E+03
              0.239092511965207E+03
             -0.868181550986728E+02
              0.918868565173682E+01
             -0.131018603909149E+03
              0.222393531093954E+03
              0.109774561139615E+03
             -0.292711377228797E+03
              0.347582958316867E+03
              0.236143860482132E+02
             -0.138845535211366E+03
             -0.171118541049321E+03
              0.696808640187505E+03
              0.311479325969954E+03
             -0.781696022343867E+02
              0.171900484327303E+03
             -0.339576321311205E+03
             -0.736498985141652E+02
             -0.301804683916482E+03
              0.116624067604936E+03
              0.216651724468775E+03
              0.238253014379629E+03
             -0.104432180831020E+03
              0.180026830207839E+02
              0.296839497557734E+03
              0.949706196675506E+02
              0.176910684069068E+03
              0.719689990535219E+02
             -0.398662556047975E+02
              0.758232933489353E+00
             -0.552354509443564E+02
              0.615165189485415E+02
              0.206629744122267E+02
             -0.269686219725267E+03
              0.413104161137433E+03
              0.158996130774412E+03
             -0.292773917940365E+03
             -0.215114135379737E+03
             -0.303675828534197E+03
             -0.131663290925946E+03
             -0.955025306012226E+02
             -0.240242680611241E+03
             -0.237133124204418E+03
              0.285563599403931E+03
              0.227276317796389E+03
             -0.313835859337046E+02
              0.341210602911533E+03
              0.491757564694926E+02
             -0.548278985776241E+03
              0.294346978532834E+03
              0.502664625291459E+02
              0.231202597838122E+03
              0.312509664463576E+02
              0.260343210512580E+02
              0.470924242262931E+02
              0.124954226082623E+03
             -0.228804995796440E+03
             -0.107955261328217E+03
             -0.216279881276646E+03
             -0.179069889970784E+03
              0.745445863030147E+02
             -0.198647159894717E+03
              0.957460169824809E+02
              0.131508177650901E+03
             -0.121712297601573E+03
             -0.777109372809267E+02
              0.507188108460241E+01
              0.340791755107876E+03
              0.515634358718339E+02
              0.327161526328783E+03
              0.117260669590783E+03
             -0.432577518899418E+03
             -0.143441595551341E+03
              0.147517730376029E+03
              0.340336321602036E+03
              0.562381575875961E+02
              0.139879587492805E+03
              0.313196275606807E+03
             -0.181367181721918E+03
             -0.278418473314393E+03
              0.386036006917925E+03
              0.224285117464733E+02
             -0.408044696854749E+03
              0.149088590342711E+03
              0.258245478671520E+03
             -0.661231555156373E+02
             -0.268928379129666E+03
              0.560079755383240E+02
              0.115683573055603E+02
             -0.130692868430608E+03
              0.500465800374877E+02
             -0.435613578862068E+02
              0.607039100967109E+03
              0.176683760843836E+03
             -0.257070206503242E+03
              0.759447728250275E+02
              0.369635823425276E+03
             -0.249802567101577E+03
             -0.650668858167626E+02
             -0.236314500194515E+03
              0.189308474121017E+03
              0.598808099542748E+02
              0.125188305585358E+03
              0.226634391913833E+02
              0.429414895875468E+03
             -0.244221891922548E+03
             -0.192891826134168E+03
             -0.186186187266761E+03
              0.163557017383220E+03
              0.426686229334565E+03
             -0.713339364748600E+02
              0.174586175172976E+03
             -0.247934024887019E+03
              0.475594694491951E+02
             -0.793893204877846E+02
              0.173031146255655E+02
             -0.961037489822955E+02
             -0.783834128866877E+02
             -0.769879093491239E+02
              0.634605237266001E+02
              0.123992797651770E+03
             -0.270409918348851E+03
              0.200178115447027E+03
             -0.322298981164890E+03
              0.243199709237238E+03
             -0.257049562750124E+03
              0.416555520051527E+03
              0.228824388104113E+03
              0.263418829227069E+03
              0.653903365197978E+02
              0.768874276285906E+02
             -0.575487548725293E+03
              0.934296842593280E+02
              0.211398000839636E+02
              0.548484830075022E+02
             -0.939096201057288E+02
              0.444927448407079E+03
             -0.103384443037960E+03
             -0.183921811464213E+03
             -0.430584657864273E+03
             -0.149415544558245E+03
             -0.206585120929436E+03
             -0.179614888387677E+03
             -0.405182552031333E+02
             -0.983904075929263E+02
             -0.124950016265478E+03
             -0.191637928035945E+03
              0.146700800953288E+03
              0.462301445577042E+03
              0.390540669473859E+03
             -0.693020201631625E+02
             -0.469576731330033E+03
             -0.200152741011481E+03
              0.960356667555976E+02
              0.960436002262798E+02
              0.153464054089206E+03
              0.107878308642242E+03
              0.190475475552903E+02
              0.458724945991306E+03
             -0.111528419570864E+03
              0.225427630894561E+03
              0.115865691734904E+03
             -0.156249713649247E+03
             -0.748853544520593E+02
              0.207811386592738E+03
             -0.110965449659247E+03
             -0.682122358745850E+02
             -0.505598097870800E+02
              0.267635056202187E+03
             -0.352004158300783E+03
             -0.282772503501023E+02
             -0.271663035631275E+03
             -0.577197645608842E+03
             -0.150713570642870E+01
             -0.851175828353689E+02
              0.224350426002056E+03
              0.249424993977891E+03
              0.341202707658168E+03
             -0.221908106129797E+03
              0.344896428767220E+03
              0.862012515047426E+02
             -0.128051100746584E+03
              0.460813468929457E+02
             -0.108981203069374E+03
             -0.644509180315117E+02
              0.199245561312405E+03
             -0.164996307442926E+03
              0.442521813402141E+03
             -0.118032017687526E+03
             -0.244554286887867E+03
              0.462738475164093E+03
             -0.250509684492111E+03
             -0.201721383036534E+02
              0.243553446429601E+02
              0.133623767647169E+03
             -0.195565139083265E+03
             -0.148992054536577E+03
              0.237680332999019E+03
             -0.357535523945622E+03
              0.294907527646261E+03
              0.436087691029327E+02
              0.211345146275014E+03
              0.306181893539745E+03
              0.783940851101493E+02
             -0.425436163943652E+03
             -0.184106664760839E+03
             -0.307137714381858E+03
             -0.182778202004553E+03
             -0.486981109269145E+02
              0.658890989769275E+02
             -0.143342163506416E+03
             -0.249544323035207E+01
             -0.427322991531631E+03
              0.238497490637740E+02
             -0.275513189661960E+03
              0.267077207555639E+03
             -0.156616019349278E+03
             -0.376937486952287E+02
              0.201582019954282E+03
              0.398223907781601E+02
              0.187398884614814E+03
             -0.357105860941488E+03
              0.594042507288104E+02
              0.244238262683376E+02
              0.153717937264583E+03
              0.246495798724957E+03
             -0.455733731386524E+02
             -0.280632894686232E+03
             -0.162194608735012E+03
             -0.114540098696912E+03
             -0.337970137496350E+02
              0.261626807314683E+03
              0.169815992833290E+03
             -0.172084813327871E+03
             -0.161497026662416E+03
              0.118530070911300E+03
              0.129115272100824E+03
             -0.348784843203933E+03
              0.813569660047548E+02
              0.250207408576005E+03
             -0.111218386214292E+02
              0.314997427430669E+03
              0.145583413734249E+03
              0.247941141490877E+03
              0.376922811445088E+03
              0.568093528098915E+02
             -0.513632338358915E+03
              0.708726561893634E+02
              0.555359677848422E+03
              0.403622197709768E+03
             -0.278302557118437E+03
              0.251104496292411E+02
              0.361268088464766E+03
              0.313085920511966E+03
              0.137651055864770E+03
             -0.832750321471010E+02
              0.138268138448254E+03
              0.286192692394739E+03
             -0.132273410238897E+03
             -0.851447713577074E+02
              0.193850902177892E+03
             -0.117396168407711E+02
              0.173939481330467E+03
             -0.538293234530654E+02
              0.362920431315159E+03
             -0.138447267161033E+03
              0.832770627881180E+02
             -0.153828390380238E+03
              0.179625544113791E+03
             -0.243746843874226E+02
              0.267636536521202E+03
              0.191504968113273E+02
              0.119743474274917E+03
             -0.170164994437930E+03
             -0.118985605400934E+03
             -0.606618867492764E+02
             -0.552431527071450E+02
              0.291359076742640E+03
              0.143346805799353E+03
              0.353608681845374E+03
              0.326275616463900E+03
              0.915340506333828E+02
              0.164651368791868E+02
              0.347803982489242E+03
              0.195488057387481E+03
              0.264527711303117E+00
              0.338760172107760E+03
             -0.278008791341716E+03
              0.974569749969824E+02
             -0.181043574515029E+03
             -0.491755130665065E+02
              0.468372411088239E+03
             -0.656034014528072E+02
             -0.195022100106567E+02
             -0.509974433142359E+02
              0.384764083467002E+03
             -0.826471996238001E+02
             -0.708918648422855E+01
              0.776321228687569E+03
             -0.229819070419837E+03
             -0.286815595366400E+03
             -0.287033508317538E+03
             -0.183391250231611E+03
              0.167141218644370E+03
             -0.750181985103977E+02
              0.425182215969646E+02
             -0.194547271487581E+02
              0.983553030365565E+02
              0.157990521338741E+03
              0.184126937822345E+03
              0.264961588266745E+03
              0.169762689468050E+03
              0.173109621059382E+03
             -0.320282436281882E+03
             -0.330806477030863E+03
             -0.745811884871416E+02
             -0.295675589662053E+03
              0.469452771179034E+03
              0.395445719814223E+03
              0.186459333747405E+03
              0.514138146093396E+03
             -0.256986718979509E+03
             -0.110642513750170E+03
             -0.159457521542009E+03
              0.444744789012410E+03
 
 BEEF-vdW xc energy contributions
            1 :    -4020.374704701869     
            2 :     3684.141387661583     
            3 :    -3110.686769437933     
            4 :     2452.691106341415     
            5 :    -1854.074967768463     
            6 :     1403.621302045265     
            7 :    -1120.399281126576     
            8 :     966.9454067205388     
            9 :    -877.7195280334790     
           10 :     790.5649639240564     
           11 :    -670.4121271933809     
           12 :     517.0460527887494     
           13 :    -355.5916107218309     
           14 :     217.2094398026138     
           15 :    -121.6282253148347     
           16 :     69.62134352784960     
           17 :    -46.31752095601496     
           18 :     30.99073987332940     
           19 :    -7.622602486156211     
           20 :    -28.40805579630705     
           21 :     70.06945175871897     
           22 :    -104.4947179287801     
           23 :     121.4136949962922     
           24 :    -119.3329978520933     
           25 :     106.1646363380687     
           26 :    -94.49740348993328     
           27 :     94.63608901666612     
           28 :    -109.2712626642124     
           29 :     132.3603062042430     
           30 :    -152.5636062839230     
           31 :    -345.4969233105530     
           32 :    -248.5096408447889     

     Writing all to output data dir ./PbI2.save/
 
     init_run     :     10.46s CPU     17.75s WALL (       1 calls)
     electrons    :    202.18s CPU    208.02s WALL (       1 calls)
     forces       :      7.44s CPU      7.75s WALL (       1 calls)
     stress       :    110.89s CPU    112.27s WALL (       1 calls)

     Called by init_run:
     wfcinit      :      6.00s CPU     12.93s WALL (       1 calls)
     potinit      :      1.30s CPU      1.43s WALL (       1 calls)
     hinit0       :      0.80s CPU      0.86s WALL (       1 calls)

     Called by electrons:
     c_bands      :    192.35s CPU    197.31s WALL (       2 calls)
     sum_band     :      6.31s CPU      6.61s WALL (       2 calls)
     v_of_rho     :      1.65s CPU      1.78s WALL (       2 calls)
     v_h          :      0.02s CPU      0.02s WALL (       2 calls)
     v_xc         :     26.27s CPU     28.32s WALL (      38 calls)
     newd         :      0.58s CPU      0.82s WALL (       2 calls)
     PAW_pot      :      0.56s CPU      0.56s WALL (       2 calls)
     mix_rho      :      0.00s CPU      0.00s WALL (       2 calls)
     vdW_kernel   :      0.24s CPU      0.25s WALL (       1 calls)

     Called by c_bands:
     init_us_2    :      0.17s CPU      0.19s WALL (       4 calls)
     init_us_2:cp :      0.17s CPU      0.19s WALL (       4 calls)
     cegterg      :    191.88s CPU    195.72s WALL (       2 calls)

     Called by sum_band:
     sum_band:wei :      0.00s CPU      0.00s WALL (       2 calls)
     sum_band:loo :      5.55s CPU      5.60s WALL (       2 calls)
     sum_band:buf :      0.00s CPU      0.00s WALL (       2 calls)
     sum_band:ini :      0.13s CPU      0.13s WALL (       2 calls)
     sum_band:cal :      2.40s CPU      2.41s WALL (       2 calls)
     sum_band:bec :      0.04s CPU      0.04s WALL (       2 calls)
     addusdens    :      0.64s CPU      0.90s WALL (       2 calls)
     addusd:skk   :      0.05s CPU      0.05s WALL (       4 calls)
     addusd:dgemm :      0.34s CPU      0.59s WALL (       4 calls)
     addusd:qvan2 :      0.24s CPU      0.24s WALL (       4 calls)

     Called by *egterg:
     cdiaghg      :    143.01s CPU    144.01s WALL (      21 calls)
     cegterg:over :      8.25s CPU      8.47s WALL (      21 calls)
     cegterg:upda :      4.32s CPU      4.42s WALL (      21 calls)
     cegterg:last :      2.58s CPU      2.59s WALL (       2 calls)
     h_psi        :     24.87s CPU     25.23s WALL (      23 calls)
     s_psi        :      5.24s CPU      5.28s WALL (      23 calls)
     g_psi        :      0.04s CPU      0.05s WALL (      21 calls)

     Called by h_psi:
     h_psi:calbec :      5.84s CPU      5.88s WALL (      23 calls)
     vloc_psi     :     13.69s CPU     13.84s WALL (      23 calls)
     add_vuspsi   :      5.21s CPU      5.27s WALL (      23 calls)

     General routines
     calbec       :     14.26s CPU     14.37s WALL (      30 calls)
     fft          :     15.85s CPU     16.04s WALL (    2232 calls)
     ffts         :      0.03s CPU      0.04s WALL (       4 calls)
     fftw         :     15.77s CPU     15.92s WALL (    9916 calls)
     interpolate  :      0.03s CPU      0.04s WALL (       2 calls)
 
     Parallel routines

     PAW routines
     PAW_pot      :      0.56s CPU      0.56s WALL (       2 calls)
 
     PWSCF        :   6m 0.39s CPU   6m23.31s WALL

 
   This run was terminated on:  11:57:12  18Feb2024            

=------------------------------------------------------------------------------=
   JOB DONE.
=------------------------------------------------------------------------------=
