
     Program PWSCF v.7.1 starts on 20Feb2024 at 16:25:51 

     This program is part of the open-source Quantum ESPRESSO suite
     for quantum simulation of materials; please cite
         "P. Giannozzi et al., J. Phys.:Condens. Matter 21 395502 (2009);
         "P. Giannozzi et al., J. Phys.:Condens. Matter 29 465901 (2017);
         "P. Giannozzi et al., J. Chem. Phys. 152 154105 (2020);
          URL http://www.quantum-espresso.org", 
     in publications or presentations arising from this work. More details at
     http://www.quantum-espresso.org/quote

     Parallel version (MPI & OpenMP), running on     128 processor cores
     Number of MPI processes:               128
     Threads/MPI process:                     1

     MPI processes distributed on     1 nodes
     1953070 MiB available memory on the printing compute node when the environment starts
 
     Reading input from espresso.pwi

     Current dimensions of program PWSCF are:
     Max number of different atomic species (ntypx) = 10
     Max number of k-points (npk) =  40000
     Max angular momentum in pseudopotentials (lmaxx) =  4
     file Pb.pbe-dn-kjpaw_psl.1.0.0.UPF: wavefunction(s)  6S 6P 5D renormalized
     file I.pbe-dn-kjpaw_psl.1.0.0.UPF: wavefunction(s)  5S 5P renormalized

     **************************************************************************
     Initializing libbeef V0.1.2 with the BEEF-vdW functional.
     Citation: Wellendorff et al., PRB 85, 235149 (2012).
     **************************************************************************


     IMPORTANT: XC functional enforced from input :
     Exchange-correlation= BEEF-VDW
                           (   1   4  43  14   2   0   0)
     Any further DFT definition will be discarded
     Please, verify this is what you really want

 
     R & G space division:  proc/nbgrp/npool/nimage =     128
     Subspace diagonalization in iterative solution of the eigenvalue problem:
     a serial algorithm will be used

 
     Parallelization info
     --------------------
     sticks:   dense  smooth     PW     G-vecs:    dense   smooth      PW
     Min          14      11      3                 3940     2817     392
     Max          15      12      5                 3997     2870     429
     Sum        1843    1483    421               506843   363399   52429
 
     Using Slab Decomposition
 


     bravais-lattice index     =            4
     lattice parameter (alat)  =       8.7451  a.u.
     unit-cell volume          =    4589.8988 (a.u.)^3
     number of atoms/cell      =           15
     number of atomic types    =            2
     number of electrons       =       240.00
     number of Kohn-Sham states=          144
     kinetic-energy cutoff     =      70.0000  Ry
     charge density cutoff     =     350.0000  Ry
     scf convergence threshold =      1.0E-07
     mixing beta               =       0.7000
     number of iterations used =            8  plain     mixing
     energy convergence thresh.=      1.0E-04
     force convergence thresh. =      1.0E-03
     press convergence thresh. =      5.0E-01
     Exchange-correlation= BEEF-VDW
                           (   1   4  43  14   2   0   0)
     nstep                     =           50


     celldm(1)=   8.745061  celldm(2)=   0.000000  celldm(3)=   7.924721
     celldm(4)=   0.000000  celldm(5)=   0.000000  celldm(6)=   0.000000

     crystal axes: (cart. coord. in units of alat)
               a(1) = (   1.000000   0.000000   0.000000 )  
               a(2) = (  -0.500000   0.866025   0.000000 )  
               a(3) = (   0.000000   0.000000   7.924721 )  

     reciprocal axes: (cart. coord. in units 2 pi/alat)
               b(1) = (  1.000000  0.577350 -0.000000 )  
               b(2) = (  0.000000  1.154701  0.000000 )  
               b(3) = (  0.000000 -0.000000  0.126187 )  


     PseudoPot. # 1 for Pb read from file:
     /trace/group/acmegroup/atimmins/packages/espresso/pseudo/psl_1.0.0/pslibrary.1.0.0/pbe/PSEUDOPOTENTIALS/Pb.pbe-dn-kjpaw_psl.1.0.0.UPF
     MD5 check sum: 39ab5b8a6bbd56b7735ad9f188aac93a
     Pseudo is Projector augmented-wave + core cor, Zval = 14.0
     Generated using 'atomic' code by A. Dal Corso  v.7.1
     Shape of augmentation charge: PSQ
     Using radial grid of 1281 points,  6 beta functions with: 
                l(1) =   0
                l(2) =   0
                l(3) =   1
                l(4) =   1
                l(5) =   2
                l(6) =   2
     Q(r) pseudized with 0 coefficients 


     PseudoPot. # 2 for I  read from file:
     /trace/group/acmegroup/atimmins/packages/espresso/pseudo/psl_1.0.0/pslibrary.1.0.0/pbe/PSEUDOPOTENTIALS/I.pbe-dn-kjpaw_psl.1.0.0.UPF
     MD5 check sum: bfa8781bc1224d19af3f3980e3fab11e
     Pseudo is Projector augmented-wave + core cor, Zval = 17.0
     Generated using 'atomic' code by A. Dal Corso  v.7.1
     Shape of augmentation charge: PSQ
     Using radial grid of 1247 points,  6 beta functions with: 
                l(1) =   0
                l(2) =   0
                l(3) =   1
                l(4) =   1
                l(5) =   2
                l(6) =   2
     Q(r) pseudized with 0 coefficients 


     atomic species   valence    mass     pseudopotential
        Pb            14.00   207.20000     Pb( 1.00)
        I             17.00   126.90447     I ( 1.00)

      6 Sym. Ops. (no inversion) found


                                    s                        frac. trans.

      isym =  1     identity                                     

 cryst.   s( 1) = (     1          0          0      )
                  (     0          1          0      )
                  (     0          0          1      )

 cart.    s( 1) = (  1.0000000  0.0000000  0.0000000 )
                  (  0.0000000  1.0000000  0.0000000 )
                  (  0.0000000  0.0000000  1.0000000 )


      isym =  2     120 deg rotation - cryst. axis [0,0,1]       

 cryst.   s( 2) = (     0          1          0      )
                  (    -1         -1          0      )
                  (     0          0          1      )

 cart.    s( 2) = ( -0.5000000 -0.8660254  0.0000000 )
                  (  0.8660254 -0.5000000  0.0000000 )
                  (  0.0000000  0.0000000  1.0000000 )


      isym =  3     120 deg rotation - cryst. axis [0,0,-1]      

 cryst.   s( 3) = (    -1         -1          0      )
                  (     1          0          0      )
                  (     0          0          1      )

 cart.    s( 3) = ( -0.5000000  0.8660254  0.0000000 )
                  ( -0.8660254 -0.5000000  0.0000000 )
                  (  0.0000000  0.0000000  1.0000000 )


      isym =  4     inv. 180 deg rotation - cart. axis [1,0,0]   

 cryst.   s( 4) = (    -1          0          0      )
                  (     1          1          0      )
                  (     0          0          1      )

 cart.    s( 4) = ( -1.0000000  0.0000000  0.0000000 )
                  (  0.0000000  1.0000000  0.0000000 )
                  (  0.0000000  0.0000000  1.0000000 )


      isym =  5     inv. 180 deg rotation - cryst. axis [0,1,0]  

 cryst.   s( 5) = (     1          1          0      )
                  (     0         -1          0      )
                  (     0          0          1      )

 cart.    s( 5) = (  0.5000000  0.8660254  0.0000000 )
                  (  0.8660254 -0.5000000  0.0000000 )
                  (  0.0000000  0.0000000  1.0000000 )


      isym =  6     inv. 180 deg rotation - cryst. axis [1,1,0]  

 cryst.   s( 6) = (     0         -1          0      )
                  (    -1          0          0      )
                  (     0          0          1      )

 cart.    s( 6) = (  0.5000000 -0.8660254  0.0000000 )
                  ( -0.8660254 -0.5000000  0.0000000 )
                  (  0.0000000  0.0000000  1.0000000 )


     point group C_3v (3m)  
     there are  3 classes
     the character table:

       E     2C3   3s_v 
A_1    1.00  1.00  1.00
A_2    1.00  1.00 -1.00
E      2.00 -1.00  0.00

     the symmetry operations in each class and the name of the first element:

     E        1
          identity                                               
     2C3      2    3
          120 deg rotation - cryst. axis [0,0,1]                 
     3s_v     4    5    6
          inv. 180 deg rotation - cart. axis [1,0,0]             

   Cartesian axes

     site n.     atom                  positions (alat units)
         1           Pb  tau(   1) = (   0.0000000   0.0000000   6.7576318  )
         2           Pb  tau(   2) = (  -0.0000006   0.5773506   3.5902471  )
         3           Pb  tau(   3) = (  -0.0000006   0.5773506   5.1774541  )
         4           Pb  tau(   4) = (  -0.0000006   0.5773506   2.0049924  )
         5           Pb  tau(   5) = (  -0.0000006   0.5773506   0.4199058  )
         6           I   tau(   6) = (   0.5000005   0.2886749   0.8225918  )
         7           I   tau(   7) = (   0.5000005   0.2886749   5.5787617  )
         8           I   tau(   8) = (   0.0000000   0.0000000   1.6016422  )
         9           I   tau(   9) = (  -0.0000006   0.5773506   6.3549089  )
        10           I   tau(  10) = (   0.5000005   0.2886749   3.9931127  )
        11           I   tau(  11) = (   0.0000000   0.0000000   0.0169121  )
        12           I   tau(  12) = (   0.5000005   0.2886749   2.4074792  )
        13           I   tau(  13) = (   0.5000005   0.2886749   7.1601768  )
        14           I   tau(  14) = (   0.0000000   0.0000000   3.1867515  )
        15           I   tau(  15) = (   0.0000000   0.0000000   4.7758879  )

   Crystallographic axes

     site n.     atom                  positions (cryst. coord.)
         1           Pb  tau(   1) = (  0.0000000  0.0000000  0.8527280  )
         2           Pb  tau(   2) = (  0.3333330  0.6666671  0.4530440  )
         3           Pb  tau(   3) = (  0.3333330  0.6666671  0.6533295  )
         4           Pb  tau(   4) = (  0.3333330  0.6666671  0.2530048  )
         5           Pb  tau(   5) = (  0.3333330  0.6666671  0.0529868  )
         6           I   tau(   6) = (  0.6666670  0.3333330  0.1038007  )
         7           I   tau(   7) = (  0.6666670  0.3333330  0.7039695  )
         8           I   tau(   8) = (  0.0000000  0.0000000  0.2021071  )
         9           I   tau(   9) = (  0.3333330  0.6666671  0.8019095  )
        10           I   tau(  10) = (  0.6666670  0.3333330  0.5038805  )
        11           I   tau(  11) = (  0.0000000  0.0000000  0.0021341  )
        12           I   tau(  12) = (  0.6666670  0.3333330  0.3037935  )
        13           I   tau(  13) = (  0.6666670  0.3333330  0.9035241  )
        14           I   tau(  14) = (  0.0000000  0.0000000  0.4021279  )
        15           I   tau(  15) = (  0.0000000  0.0000000  0.6026569  )

     number of k points=     4  Gaussian smearing, width (Ry)=  0.0100
                       cart. coord. in units 2pi/alat
        k(    1) = (   0.0000000   0.0000000   0.0000000), wk =   0.1250000
        k(    2) = (   0.0000000   0.2886751   0.0000000), wk =   0.7500000
        k(    3) = (   0.0000000  -0.5773503   0.0000000), wk =   0.3750000
        k(    4) = (   0.2500000   0.4330127   0.0000000), wk =   0.7500000

                       cryst. coord.
        k(    1) = (   0.0000000   0.0000000   0.0000000), wk =   0.1250000
        k(    2) = (   0.0000000   0.2500000   0.0000000), wk =   0.7500000
        k(    3) = (   0.0000000  -0.5000000   0.0000000), wk =   0.3750000
        k(    4) = (   0.2500000   0.2500000   0.0000000), wk =   0.7500000

     Dense  grid:   506843 G-vectors     FFT dimensions: (  54,  54, 432)

     Smooth grid:   363399 G-vectors     FFT dimensions: (  48,  48, 375)

     Dynamical RAM for                 wfc:       0.78 MB

     Dynamical RAM for     wfc (w. buffer):       3.89 MB

     Dynamical RAM for           str. fact:       0.12 MB

     Dynamical RAM for           local pot:       0.00 MB

     Dynamical RAM for          nlocal pot:       1.46 MB

     Dynamical RAM for                qrad:       6.01 MB

     Dynamical RAM for          rho,v,vnew:       0.45 MB

     Dynamical RAM for               rhoin:       0.15 MB

     Dynamical RAM for            rho*nmix:       0.97 MB

     Dynamical RAM for           G-vectors:       0.25 MB

     Dynamical RAM for          h,s,v(r/c):      15.19 MB

     Dynamical RAM for          <psi|beta>:       0.59 MB

     Dynamical RAM for                 psi:       3.11 MB

     Dynamical RAM for                hpsi:       3.11 MB

     Dynamical RAM for                spsi:       3.11 MB

     Dynamical RAM for      wfcinit/wfcrot:       2.03 MB

     Dynamical RAM for           addusdens:      11.83 MB

     Dynamical RAM for          addusforce:      12.98 MB

     Dynamical RAM for         addusstress:      12.13 MB

     Estimated static dynamical RAM per process >      12.95 MB

     Estimated max dynamical RAM per process >      39.03 MB

     Estimated total dynamical RAM >       4.88 GB

     Check: negative core charge=   -0.000001

     Initial potential from superposition of free atoms

     starting charge     239.9875, renormalised to     240.0000


     %%%%%%%%%%%%%%%%%%%%%%%%%%%%%%%%%%%%%%%%%%%%%%%%%%%%%%%%%%%%%%%%%%%%%%%%
     %                                                                      %
     % You are using vdW-DF, which was implemented by the Thonhauser group. %
     % Please cite the following two papers that made this development      %
     % possible and the two reviews that describe the various versions:     %
     %                                                                      %
     %   T. Thonhauser et al., PRL 115, 136402 (2015).                      %
     %   T. Thonhauser et al., PRB 76, 125112 (2007).                       %
     %   K. Berland et al., Rep. Prog. Phys. 78, 066501 (2015).             %
     %   D.C. Langreth et al., J. Phys.: Condens. Matter 21, 084203 (2009). %
     %                                                                      %
     % If you are calculating stress with vdW-DF, please also cite:         %
     %                                                                      %
     %   R. Sabatini et al., J. Phys.: Condens. Matter 24, 424209 (2012).   %
     %                                                                      %
     %%%%%%%%%%%%%%%%%%%%%%%%%%%%%%%%%%%%%%%%%%%%%%%%%%%%%%%%%%%%%%%%%%%%%%%%

     %%%%%%%%%%%%%%%%%%%%%%%%%%%%%%%%%%%%%%%%%%%%%%%%%%%%%%%%%%%%%%%%%%%%%%%%
     %                                                                      %
     %  vdW-DF NEWS:                                                        %
     %                                                                      %
     %  * vdW-DF3 is now available. DOI: 10.1021/acs.jctc.0c00471           %
     %    use with input_dft = 'vdW-DF3-opt1' or 'vdW-DF3-opt2'             %
     %                                                                      %
     %  * Unscreened and range-separated vdW-DF hybrid functionals          %
     %    DOI: 10.1063/1.4986522 and 10.1088/1361-648X/ac2ad2               %
     %    use with input_dft = 'vdW-DF-cx0' (etc) and 'vdW-DF-ahcx'         %
     %                                                                      %
     %%%%%%%%%%%%%%%%%%%%%%%%%%%%%%%%%%%%%%%%%%%%%%%%%%%%%%%%%%%%%%%%%%%%%%%%


     Carrying out vdW-DF run using the following parameters:
     Nqs    =  20  Npoints =  1024  r_max =  100.000
     q_mesh =  0.00001000  0.04494208  0.09755937  0.15916263
               0.23128650  0.31572767  0.41458969  0.53033537
               0.66584808  0.82450364  1.01025438  1.22772762
               1.48234092  1.78043706  2.12944203  2.53805004
               3.01644009  3.57652955  4.23227104  5.00000000


     -----------------------------------------------
     Non-local corr. energy    =       7.12808153 Ry
     -----------------------------------------------

     Starting wfcs are  135 randomized atomic wfcs +    9 random wfcs
     Checking if some PAW data can be deallocated... 
       PAW data deallocated on   83 nodes for type:  1
       PAW data deallocated on   45 nodes for type:  2

     total cpu time spent up to now is        2.4 secs

     Self-consistent Calculation

     iteration #  1     ecut=    70.00 Ry     beta= 0.70
     Davidson diagonalization with overlap

---- Real-time Memory Report at c_bands before calling an iterative solver
           224 MiB given to the printing process from OS
             0 MiB allocation reported by mallinfo(arena+hblkhd)
       1947023 MiB available memory on the node where the printing process lives
------------------
     ethr =  1.00E-02,  avg # of iterations =  8.3

     Threshold (ethr) on eigenvalues was too large:
     Diagonalizing with lowered threshold

     Davidson diagonalization with overlap

---- Real-time Memory Report at c_bands before calling an iterative solver
           239 MiB given to the printing process from OS
             0 MiB allocation reported by mallinfo(arena+hblkhd)
       1946626 MiB available memory on the node where the printing process lives
------------------
     ethr =  1.81E-04,  avg # of iterations = 10.5


     -----------------------------------------------
     Non-local corr. energy    =       7.18069029 Ry
     -----------------------------------------------


     total cpu time spent up to now is       14.4 secs

     total energy              =  -10117.98824679 Ry
     estimated scf accuracy    <       0.40056111 Ry

     iteration #  2     ecut=    70.00 Ry     beta= 0.70
     Davidson diagonalization with overlap

---- Real-time Memory Report at c_bands before calling an iterative solver
           243 MiB given to the printing process from OS
             0 MiB allocation reported by mallinfo(arena+hblkhd)
       1946392 MiB available memory on the node where the printing process lives
------------------
     ethr =  1.67E-04,  avg # of iterations =  6.8


     -----------------------------------------------
     Non-local corr. energy    =       7.16369609 Ry
     -----------------------------------------------


     total cpu time spent up to now is       19.5 secs

     total energy              =  -10118.02960347 Ry
     estimated scf accuracy    <       0.51517486 Ry

     iteration #  3     ecut=    70.00 Ry     beta= 0.70
     Davidson diagonalization with overlap

---- Real-time Memory Report at c_bands before calling an iterative solver
           247 MiB given to the printing process from OS
             0 MiB allocation reported by mallinfo(arena+hblkhd)
       1946239 MiB available memory on the node where the printing process lives
------------------
     ethr =  1.67E-04,  avg # of iterations =  5.3


     -----------------------------------------------
     Non-local corr. energy    =       7.16108443 Ry
     -----------------------------------------------


     total cpu time spent up to now is       23.6 secs

     total energy              =  -10118.14801686 Ry
     estimated scf accuracy    <       0.01781057 Ry

     iteration #  4     ecut=    70.00 Ry     beta= 0.70
     Davidson diagonalization with overlap

---- Real-time Memory Report at c_bands before calling an iterative solver
           256 MiB given to the printing process from OS
             0 MiB allocation reported by mallinfo(arena+hblkhd)
       1946164 MiB available memory on the node where the printing process lives
------------------
     ethr =  7.42E-06,  avg # of iterations = 11.3


     -----------------------------------------------
     Non-local corr. energy    =       7.16180415 Ry
     -----------------------------------------------


     total cpu time spent up to now is       30.5 secs

     total energy              =  -10118.14951114 Ry
     estimated scf accuracy    <       0.01209680 Ry

     iteration #  5     ecut=    70.00 Ry     beta= 0.70
     Davidson diagonalization with overlap

---- Real-time Memory Report at c_bands before calling an iterative solver
           257 MiB given to the printing process from OS
             0 MiB allocation reported by mallinfo(arena+hblkhd)
       1946117 MiB available memory on the node where the printing process lives
------------------
     ethr =  5.04E-06,  avg # of iterations = 12.0


     -----------------------------------------------
     Non-local corr. energy    =       7.16353569 Ry
     -----------------------------------------------


     total cpu time spent up to now is       37.2 secs

     total energy              =  -10118.15217949 Ry
     estimated scf accuracy    <       0.00690987 Ry

     iteration #  6     ecut=    70.00 Ry     beta= 0.70
     Davidson diagonalization with overlap

---- Real-time Memory Report at c_bands before calling an iterative solver
           262 MiB given to the printing process from OS
             0 MiB allocation reported by mallinfo(arena+hblkhd)
       1946047 MiB available memory on the node where the printing process lives
------------------
     ethr =  2.88E-06,  avg # of iterations = 12.5


     -----------------------------------------------
     Non-local corr. energy    =       7.16407669 Ry
     -----------------------------------------------


     total cpu time spent up to now is       43.7 secs

     total energy              =  -10118.15310101 Ry
     estimated scf accuracy    <       0.00006088 Ry

     iteration #  7     ecut=    70.00 Ry     beta= 0.70
     Davidson diagonalization with overlap

---- Real-time Memory Report at c_bands before calling an iterative solver
           264 MiB given to the printing process from OS
             0 MiB allocation reported by mallinfo(arena+hblkhd)
       1946003 MiB available memory on the node where the printing process lives
------------------
     c_bands:  3 eigenvalues not converged
     c_bands:  2 eigenvalues not converged
     c_bands:  2 eigenvalues not converged
     ethr =  2.54E-08,  avg # of iterations = 20.0


     -----------------------------------------------
     Non-local corr. energy    =       7.16425583 Ry
     -----------------------------------------------


     total cpu time spent up to now is       53.8 secs

     total energy              =  -10118.15320229 Ry
     estimated scf accuracy    <       0.00023197 Ry

     iteration #  8     ecut=    70.00 Ry     beta= 0.70
     Davidson diagonalization with overlap

---- Real-time Memory Report at c_bands before calling an iterative solver
           268 MiB given to the printing process from OS
             0 MiB allocation reported by mallinfo(arena+hblkhd)
       1945923 MiB available memory on the node where the printing process lives
------------------
     ethr =  2.54E-08,  avg # of iterations = 14.0


     -----------------------------------------------
     Non-local corr. energy    =       7.16455697 Ry
     -----------------------------------------------


     total cpu time spent up to now is       61.6 secs

     total energy              =  -10118.15322043 Ry
     estimated scf accuracy    <       0.00003438 Ry

     iteration #  9     ecut=    70.00 Ry     beta= 0.70
     Davidson diagonalization with overlap

---- Real-time Memory Report at c_bands before calling an iterative solver
           268 MiB given to the printing process from OS
             0 MiB allocation reported by mallinfo(arena+hblkhd)
       1945866 MiB available memory on the node where the printing process lives
------------------
     ethr =  1.43E-08,  avg # of iterations = 11.5


     -----------------------------------------------
     Non-local corr. energy    =       7.16460035 Ry
     -----------------------------------------------


     total cpu time spent up to now is       68.5 secs

     total energy              =  -10118.15322395 Ry
     estimated scf accuracy    <       0.00001239 Ry

     iteration # 10     ecut=    70.00 Ry     beta= 0.70
     Davidson diagonalization with overlap

---- Real-time Memory Report at c_bands before calling an iterative solver
           269 MiB given to the printing process from OS
             0 MiB allocation reported by mallinfo(arena+hblkhd)
       1945819 MiB available memory on the node where the printing process lives
------------------
     ethr =  5.16E-09,  avg # of iterations = 12.0


     -----------------------------------------------
     Non-local corr. energy    =       7.16452009 Ry
     -----------------------------------------------


     total cpu time spent up to now is       75.4 secs

     total energy              =  -10118.15322600 Ry
     estimated scf accuracy    <       0.00000182 Ry

     iteration # 11     ecut=    70.00 Ry     beta= 0.70
     Davidson diagonalization with overlap

---- Real-time Memory Report at c_bands before calling an iterative solver
           271 MiB given to the printing process from OS
             0 MiB allocation reported by mallinfo(arena+hblkhd)
       1944840 MiB available memory on the node where the printing process lives
------------------
     ethr =  7.59E-10,  avg # of iterations = 12.3


     -----------------------------------------------
     Non-local corr. energy    =       7.16451943 Ry
     -----------------------------------------------


     total cpu time spent up to now is       83.2 secs

     total energy              =  -10118.15322633 Ry
     estimated scf accuracy    <       0.00000039 Ry

     iteration # 12     ecut=    70.00 Ry     beta= 0.70
     Davidson diagonalization with overlap

---- Real-time Memory Report at c_bands before calling an iterative solver
           275 MiB given to the printing process from OS
             0 MiB allocation reported by mallinfo(arena+hblkhd)
       1944266 MiB available memory on the node where the printing process lives
------------------
     ethr =  1.62E-10,  avg # of iterations = 13.5


     -----------------------------------------------
     Non-local corr. energy    =       7.16451731 Ry
     -----------------------------------------------


     total cpu time spent up to now is       90.4 secs

     total energy              =  -10118.15322638 Ry
     estimated scf accuracy    <       0.00000013 Ry

     iteration # 13     ecut=    70.00 Ry     beta= 0.70
     Davidson diagonalization with overlap

---- Real-time Memory Report at c_bands before calling an iterative solver
           278 MiB given to the printing process from OS
             0 MiB allocation reported by mallinfo(arena+hblkhd)
       1944230 MiB available memory on the node where the printing process lives
------------------
     ethr =  5.62E-11,  avg # of iterations = 13.0


     -----------------------------------------------
     Non-local corr. energy    =       7.16450738 Ry
     -----------------------------------------------


     total cpu time spent up to now is       97.0 secs

     End of self-consistent calculation

          k = 0.0000 0.0000 0.0000 ( 45455 PWs)   bands (ev):

   -40.3949 -40.3949 -40.3946 -40.3943 -40.3943 -40.3938 -40.3933 -40.3933
   -40.3928 -40.3928 -40.3916 -40.3916 -40.3915 -40.3915 -40.3913 -40.3912
   -40.3912 -40.3911 -40.3911 -40.3911 -40.3906 -40.3905 -40.3900 -40.3900
   -40.3899 -40.3899 -40.3898 -40.3898 -40.3898 -40.3898 -40.3896 -40.3896
   -40.3894 -40.3894 -40.3894 -40.3894 -40.3893 -40.3892 -40.3889 -40.3878
   -40.3878 -40.3876 -40.3876 -40.3876 -40.3876 -40.3874 -40.3874 -40.3872
   -40.3856 -40.3856 -12.4111 -12.4111 -12.4077 -12.4077 -12.4072 -12.4072
   -12.4070 -12.4070 -12.4031 -12.4007 -12.4007 -12.3998 -12.3994 -12.3993
   -12.3967 -12.3967 -12.3933 -12.3933 -12.3932 -12.3928 -12.3928 -12.3927
   -12.3927 -12.3862 -12.3862  -7.8407  -7.8152  -7.8118  -7.7622  -7.7593
    -7.3526  -7.3518  -7.2833  -7.2816  -7.2450  -2.7093  -2.6775  -2.6730
    -2.6221  -2.6175   2.5623   2.5657   2.8095   2.8171   3.0877   3.0877
     3.0939   3.0940   3.1027   3.1271   3.1271   3.1306   3.1306   3.1642
     3.1643   3.2996   3.2996   3.3403   3.3403   3.3429   3.3429   3.3812
     3.3886   3.3886   3.3916   3.3916   3.6679   3.6714   3.9163   3.9242
     6.4588   6.4675   6.5641   6.5653   6.6287   7.3449   7.3449   7.3617
     7.3617   7.3962   7.3962   7.4053   7.4053   7.4338   7.4338  10.4119
    10.6211  10.6302  10.8821  10.8859  11.5753  11.5785  11.6616  11.6921

     occupation numbers 
     1.0000   1.0000   1.0000   1.0000   1.0000   1.0000   1.0000   1.0000
     1.0000   1.0000   1.0000   1.0000   1.0000   1.0000   1.0000   1.0000
     1.0000   1.0000   1.0000   1.0000   1.0000   1.0000   1.0000   1.0000
     1.0000   1.0000   1.0000   1.0000   1.0000   1.0000   1.0000   1.0000
     1.0000   1.0000   1.0000   1.0000   1.0000   1.0000   1.0000   1.0000
     1.0000   1.0000   1.0000   1.0000   1.0000   1.0000   1.0000   1.0000
     1.0000   1.0000   1.0000   1.0000   1.0000   1.0000   1.0000   1.0000
     1.0000   1.0000   1.0000   1.0000   1.0000   1.0000   1.0000   1.0000
     1.0000   1.0000   1.0000   1.0000   1.0000   1.0000   1.0000   1.0000
     1.0000   1.0000   1.0000   1.0000   1.0000   1.0000   1.0000   1.0000
     1.0000   1.0000   1.0000   1.0000   1.0000   1.0000   1.0000   1.0000
     1.0000   1.0000   1.0000   1.0000   1.0000   1.0000   1.0000   1.0000
     1.0000   1.0000   1.0000   1.0000   1.0000   1.0000   1.0000   1.0000
     1.0000   1.0000   1.0000   1.0000   1.0000   1.0000   1.0000   1.0000
     1.0000   1.0000   1.0000   1.0000   1.0000   1.0000   1.0000   1.0000
     0.0000   0.0000   0.0000   0.0000   0.0000   0.0000   0.0000   0.0000
     0.0000   0.0000   0.0000   0.0000   0.0000   0.0000   0.0000   0.0000
     0.0000   0.0000   0.0000   0.0000   0.0000   0.0000   0.0000   0.0000

          k = 0.0000 0.2887 0.0000 ( 45434 PWs)   bands (ev):

   -40.3949 -40.3949 -40.3946 -40.3943 -40.3943 -40.3937 -40.3933 -40.3932
   -40.3928 -40.3927 -40.3916 -40.3916 -40.3915 -40.3915 -40.3913 -40.3912
   -40.3912 -40.3911 -40.3911 -40.3911 -40.3905 -40.3905 -40.3900 -40.3899
   -40.3899 -40.3898 -40.3898 -40.3898 -40.3898 -40.3897 -40.3896 -40.3896
   -40.3894 -40.3894 -40.3894 -40.3894 -40.3893 -40.3892 -40.3889 -40.3878
   -40.3877 -40.3876 -40.3876 -40.3876 -40.3875 -40.3874 -40.3874 -40.3872
   -40.3856 -40.3856 -12.4246 -12.4213 -12.4208 -12.4207 -12.4148 -12.4069
   -12.4036 -12.4031 -12.4030 -12.4012 -12.3978 -12.3973 -12.3972 -12.3969
   -12.3966 -12.3939 -12.3932 -12.3927 -12.3927 -12.3908 -12.3905 -12.3899
   -12.3897 -12.3863 -12.3830  -7.6108  -7.5895  -7.5866  -7.5448  -7.5424
    -7.2365  -7.2352  -7.1833  -7.1814  -7.1543  -2.9190  -2.9122  -2.9047
    -2.8964  -2.8913   1.7559   1.7732   1.8953   1.9254   2.0389   2.3790
     2.4010   2.4237   2.5469   2.5798   2.5980   2.6158   2.6282   2.6626
     2.6868   2.8391   3.0183   3.1719   3.2694   3.3049   3.3518   3.3589
     3.4011   3.4045   3.4264   3.6323   3.7215   3.7512   3.8703   3.8945
     6.9549   6.9686   7.1902   7.2024   7.3222   7.7287   7.7413   7.8119
     7.8202   7.8210   7.8678   7.8931   7.9588   7.9986   8.0948  10.2037
    10.2570  10.4313  10.4950  10.6007  11.0814  11.2280  11.2825  11.3653

     occupation numbers 
     1.0000   1.0000   1.0000   1.0000   1.0000   1.0000   1.0000   1.0000
     1.0000   1.0000   1.0000   1.0000   1.0000   1.0000   1.0000   1.0000
     1.0000   1.0000   1.0000   1.0000   1.0000   1.0000   1.0000   1.0000
     1.0000   1.0000   1.0000   1.0000   1.0000   1.0000   1.0000   1.0000
     1.0000   1.0000   1.0000   1.0000   1.0000   1.0000   1.0000   1.0000
     1.0000   1.0000   1.0000   1.0000   1.0000   1.0000   1.0000   1.0000
     1.0000   1.0000   1.0000   1.0000   1.0000   1.0000   1.0000   1.0000
     1.0000   1.0000   1.0000   1.0000   1.0000   1.0000   1.0000   1.0000
     1.0000   1.0000   1.0000   1.0000   1.0000   1.0000   1.0000   1.0000
     1.0000   1.0000   1.0000   1.0000   1.0000   1.0000   1.0000   1.0000
     1.0000   1.0000   1.0000   1.0000   1.0000   1.0000   1.0000   1.0000
     1.0000   1.0000   1.0000   1.0000   1.0000   1.0000   1.0000   1.0000
     1.0000   1.0000   1.0000   1.0000   1.0000   1.0000   1.0000   1.0000
     1.0000   1.0000   1.0000   1.0000   1.0000   1.0000   1.0000   1.0000
     1.0000   1.0000   1.0000   1.0000   1.0000   1.0000   1.0000   1.0000
     0.0000   0.0000   0.0000   0.0000   0.0000   0.0000   0.0000   0.0000
     0.0000   0.0000   0.0000   0.0000   0.0000   0.0000   0.0000   0.0000
     0.0000   0.0000   0.0000   0.0000   0.0000   0.0000   0.0000   0.0000

          k = 0.0000-0.5774 0.0000 ( 45384 PWs)   bands (ev):

   -40.3949 -40.3949 -40.3945 -40.3943 -40.3943 -40.3937 -40.3933 -40.3932
   -40.3928 -40.3927 -40.3916 -40.3916 -40.3916 -40.3915 -40.3913 -40.3912
   -40.3912 -40.3911 -40.3911 -40.3910 -40.3905 -40.3905 -40.3900 -40.3899
   -40.3899 -40.3898 -40.3898 -40.3898 -40.3897 -40.3897 -40.3896 -40.3896
   -40.3895 -40.3894 -40.3894 -40.3894 -40.3892 -40.3891 -40.3888 -40.3878
   -40.3877 -40.3876 -40.3876 -40.3875 -40.3875 -40.3875 -40.3874 -40.3872
   -40.3856 -40.3855 -12.4390 -12.4358 -12.4353 -12.4353 -12.4295 -12.4060
   -12.4034 -12.4027 -12.4022 -12.4022 -12.4000 -12.3995 -12.3993 -12.3961
   -12.3928 -12.3913 -12.3879 -12.3878 -12.3874 -12.3874 -12.3843 -12.3838
   -12.3835 -12.3811 -12.3767  -7.2818  -7.2716  -7.2701  -7.2494  -7.2483
    -7.1571  -7.1556  -7.1352  -7.1341  -7.1241  -3.2299  -3.2266  -3.2234
    -3.2218  -3.2179   1.1273   1.1655   1.2366   1.2592   1.3444   2.0714
     2.1745   2.2089   2.2421   2.2773   2.2824   2.3109   2.3486   2.3530
     2.4290   2.8907   2.9582   2.9748   3.1245   3.1729   3.1737   3.2195
     3.2899   3.2913   3.2924   3.3527   3.3584   3.4866   3.5225   3.6058
     7.1162   7.2085   7.2182   7.3656   7.3892   7.8839   7.9742   7.9806
     8.0046   8.1294   8.1370   8.1406   8.2997   8.4031   8.5910   9.6288
     9.7811   9.8369  10.0204  10.0834  11.7561  11.7820  11.9225  11.9568

     occupation numbers 
     1.0000   1.0000   1.0000   1.0000   1.0000   1.0000   1.0000   1.0000
     1.0000   1.0000   1.0000   1.0000   1.0000   1.0000   1.0000   1.0000
     1.0000   1.0000   1.0000   1.0000   1.0000   1.0000   1.0000   1.0000
     1.0000   1.0000   1.0000   1.0000   1.0000   1.0000   1.0000   1.0000
     1.0000   1.0000   1.0000   1.0000   1.0000   1.0000   1.0000   1.0000
     1.0000   1.0000   1.0000   1.0000   1.0000   1.0000   1.0000   1.0000
     1.0000   1.0000   1.0000   1.0000   1.0000   1.0000   1.0000   1.0000
     1.0000   1.0000   1.0000   1.0000   1.0000   1.0000   1.0000   1.0000
     1.0000   1.0000   1.0000   1.0000   1.0000   1.0000   1.0000   1.0000
     1.0000   1.0000   1.0000   1.0000   1.0000   1.0000   1.0000   1.0000
     1.0000   1.0000   1.0000   1.0000   1.0000   1.0000   1.0000   1.0000
     1.0000   1.0000   1.0000   1.0000   1.0000   1.0000   1.0000   1.0000
     1.0000   1.0000   1.0000   1.0000   1.0000   1.0000   1.0000   1.0000
     1.0000   1.0000   1.0000   1.0000   1.0000   1.0000   1.0000   1.0000
     1.0000   1.0000   1.0000   1.0000   1.0000   1.0000   1.0000   1.0000
     0.0000   0.0000   0.0000   0.0000   0.0000   0.0000   0.0000   0.0000
     0.0000   0.0000   0.0000   0.0000   0.0000   0.0000   0.0000   0.0000
     0.0000   0.0000   0.0000   0.0000   0.0000   0.0000   0.0000   0.0000

          k = 0.2500 0.4330 0.0000 ( 45370 PWs)   bands (ev):

   -40.3949 -40.3949 -40.3945 -40.3943 -40.3943 -40.3937 -40.3933 -40.3932
   -40.3927 -40.3927 -40.3916 -40.3916 -40.3915 -40.3915 -40.3913 -40.3912
   -40.3912 -40.3911 -40.3911 -40.3910 -40.3905 -40.3905 -40.3899 -40.3899
   -40.3898 -40.3898 -40.3898 -40.3898 -40.3897 -40.3897 -40.3896 -40.3896
   -40.3894 -40.3894 -40.3894 -40.3894 -40.3892 -40.3891 -40.3888 -40.3878
   -40.3877 -40.3876 -40.3876 -40.3875 -40.3875 -40.3874 -40.3874 -40.3872
   -40.3856 -40.3856 -12.4300 -12.4267 -12.4262 -12.4262 -12.4204 -12.4138
   -12.4105 -12.4100 -12.4100 -12.4040 -12.3980 -12.3960 -12.3946 -12.3941
   -12.3938 -12.3926 -12.3922 -12.3921 -12.3898 -12.3872 -12.3863 -12.3858
   -12.3858 -12.3856 -12.3790  -7.3030  -7.2916  -7.2901  -7.2681  -7.2668
    -7.1387  -7.1380  -7.1150  -7.1142  -7.1026  -3.2123  -3.2098  -3.2087
    -3.2077  -3.2048   1.4557   1.4633   1.5227   1.5287   1.6467   1.6963
     1.7213   1.7359   1.8019   1.8050   2.1433   2.1810   2.2502   2.2534
     2.3350   2.6794   2.7682   2.7705   3.0347   3.0740   3.1503   3.2533
     3.2568   3.2927   3.3311   3.6901   3.7616   3.7635   3.8661   3.8815
     7.5305   7.5539   7.6886   7.7102   7.8769   7.9058   7.9274   8.0046
     8.0210   8.0426   8.2302   8.2635   8.3148   8.3628   8.3631  10.5292
    10.6226  10.7457  10.8059  10.8852  10.9076  10.9584  11.0444  11.2685

     occupation numbers 
     1.0000   1.0000   1.0000   1.0000   1.0000   1.0000   1.0000   1.0000
     1.0000   1.0000   1.0000   1.0000   1.0000   1.0000   1.0000   1.0000
     1.0000   1.0000   1.0000   1.0000   1.0000   1.0000   1.0000   1.0000
     1.0000   1.0000   1.0000   1.0000   1.0000   1.0000   1.0000   1.0000
     1.0000   1.0000   1.0000   1.0000   1.0000   1.0000   1.0000   1.0000
     1.0000   1.0000   1.0000   1.0000   1.0000   1.0000   1.0000   1.0000
     1.0000   1.0000   1.0000   1.0000   1.0000   1.0000   1.0000   1.0000
     1.0000   1.0000   1.0000   1.0000   1.0000   1.0000   1.0000   1.0000
     1.0000   1.0000   1.0000   1.0000   1.0000   1.0000   1.0000   1.0000
     1.0000   1.0000   1.0000   1.0000   1.0000   1.0000   1.0000   1.0000
     1.0000   1.0000   1.0000   1.0000   1.0000   1.0000   1.0000   1.0000
     1.0000   1.0000   1.0000   1.0000   1.0000   1.0000   1.0000   1.0000
     1.0000   1.0000   1.0000   1.0000   1.0000   1.0000   1.0000   1.0000
     1.0000   1.0000   1.0000   1.0000   1.0000   1.0000   1.0000   1.0000
     1.0000   1.0000   1.0000   1.0000   1.0000   1.0000   1.0000   1.0000
     0.0000   0.0000   0.0000   0.0000   0.0000   0.0000   0.0000   0.0000
     0.0000   0.0000   0.0000   0.0000   0.0000   0.0000   0.0000   0.0000
     0.0000   0.0000   0.0000   0.0000   0.0000   0.0000   0.0000   0.0000

     the Fermi energy is     4.7122 ev

!    total energy              =  -10118.15322637 Ry
     total all-electron energy =   -351401.605437 Ry
     estimated scf accuracy    <       0.00000005 Ry
     smearing contrib. (-TS)   =      -0.00000000 Ry
     internal energy E=F+TS    =  -10118.15322637 Ry

     The total energy is F=E-TS. E is the sum of the following terms:
     one-electron contribution =   -1838.39159874 Ry
     hartree contribution      =    1032.44076457 Ry
     xc contribution           =    -709.08125579 Ry
     ewald contribution        =   -1560.80506628 Ry
     one-center paw contrib.   =   -7042.31607012 Ry
      -> PAW hartree energy AE =      96.22494067 Ry
      -> PAW hartree energy PS =     -96.46573653 Ry
      -> PAW xc energy AE      =    -798.45501285 Ry
      -> PAW xc energy PS      =      33.33435062 Ry
      -> total E_H with PAW    =    1032.19996871 Ry
      -> total E_XC with PAW   =   -1474.20191802 Ry

     convergence has been achieved in  13 iterations


     -----------------------------------------------
     Non-local corr. energy    =       7.16450738 Ry
     -----------------------------------------------


     Forces acting on atoms (cartesian axes, Ry/au):

     atom    1 type  1   force =     0.00000000    0.00000000   -0.00011739
     atom    2 type  1   force =     0.00000000    0.00000000   -0.00030738
     atom    3 type  1   force =     0.00000000    0.00000000   -0.00016041
     atom    4 type  1   force =     0.00000000    0.00000000   -0.00045088
     atom    5 type  1   force =     0.00000000    0.00000000   -0.00031692
     atom    6 type  2   force =     0.00000000    0.00000000    0.00809033
     atom    7 type  2   force =     0.00000000    0.00000000    0.00931792
     atom    8 type  2   force =     0.00000000    0.00000000   -0.00764429
     atom    9 type  2   force =     0.00000000    0.00000000   -0.00800717
     atom   10 type  2   force =     0.00000000    0.00000000    0.00790316
     atom   11 type  2   force =     0.00000000    0.00000000   -0.00854728
     atom   12 type  2   force =     0.00000000    0.00000000    0.00909337
     atom   13 type  2   force =     0.00000000    0.00000000    0.00902440
     atom   14 type  2   force =     0.00000000    0.00000000   -0.00872329
     atom   15 type  2   force =     0.00000000    0.00000000   -0.00915417
     The non-local contrib.  to forces
     atom    1 type  1   force =     0.00000000    0.00000000   -0.00013185
     atom    2 type  1   force =     0.00000000   -0.00000000    0.00028516
     atom    3 type  1   force =     0.00000000    0.00000000   -0.00028417
     atom    4 type  1   force =     0.00000000    0.00000000    0.00031257
     atom    5 type  1   force =     0.00000000   -0.00000000    0.00024574
     atom    6 type  2   force =     0.00000000    0.00000000   -0.24888999
     atom    7 type  2   force =     0.00000000    0.00000000   -0.24811210
     atom    8 type  2   force =     0.00000000    0.00000000    0.24879750
     atom    9 type  2   force =     0.00000000   -0.00000000    0.24818222
     atom   10 type  2   force =     0.00000000    0.00000000   -0.24843252
     atom   11 type  2   force =     0.00000000    0.00000000    0.24731520
     atom   12 type  2   force =     0.00000000    0.00000000   -0.24803850
     atom   13 type  2   force =     0.00000000    0.00000000   -0.24808689
     atom   14 type  2   force =     0.00000000   -0.00000000    0.24821570
     atom   15 type  2   force =     0.00000000    0.00000000    0.24802023
     The ionic contribution  to forces
     atom    1 type  1   force =    -0.00000215    0.00000220    0.27548546
     atom    2 type  1   force =     0.00003094   -0.00001891   -0.03422052
     atom    3 type  1   force =     0.00003119   -0.00001906   -0.48647099
     atom    4 type  1   force =     0.00003099   -0.00001894    0.02532054
     atom    5 type  1   force =     0.00003099   -0.00001895    0.02416402
     atom    6 type  2   force =    -0.00002162    0.00001281   15.41563236
     atom    7 type  2   force =    -0.00002293    0.00001363   15.10425741
     atom    8 type  2   force =    -0.00000936    0.00000612  -15.30325599
     atom    9 type  2   force =     0.00001485   -0.00000931  -14.90499559
     atom   10 type  2   force =    -0.00002157    0.00001278   15.28623791
     atom   11 type  2   force =    -0.00000934    0.00000611  -15.25044280
     atom   12 type  2   force =    -0.00002164    0.00001282   15.41874606
     atom   13 type  2   force =    -0.00001154    0.00000638   15.82739811
     atom   14 type  2   force =    -0.00000935    0.00000612  -15.34181271
     atom   15 type  2   force =    -0.00000948    0.00000620  -16.05604327
     The local contribution  to forces
     atom    1 type  1   force =     0.00000000    0.00000000   -0.27548376
     atom    2 type  1   force =     0.00027536   -0.00017563    0.03393061
     atom    3 type  1   force =     0.00027530   -0.00017559    0.48668361
     atom    4 type  1   force =     0.00027533   -0.00017561   -0.02641279
     atom    5 type  1   force =     0.00027531   -0.00017560   -0.02469423
     atom    6 type  2   force =    -0.00063267    0.00034479  -15.16374923
     atom    7 type  2   force =    -0.00063257    0.00034473  -14.85191440
     atom    8 type  2   force =     0.00000000   -0.00000000   15.05175317
     atom    9 type  2   force =     0.00079060   -0.00050426   14.65394042
     atom   10 type  2   force =    -0.00063270    0.00034481  -15.03472799
     atom   11 type  2   force =     0.00000000   -0.00000000   14.99988829
     atom   12 type  2   force =    -0.00063266    0.00034478  -15.16713198
     atom   13 type  2   force =    -0.00063267    0.00034479  -15.57566677
     atom   14 type  2   force =    -0.00000000   -0.00000000   15.09065487
     atom   15 type  2   force =    -0.00000000   -0.00000000   15.80405862
     The core correction contribution to forces
     atom    1 type  1   force =    -0.00000000    0.00000000    0.00000398
     atom    2 type  1   force =     0.00001864   -0.00001189    0.00002969
     atom    3 type  1   force =     0.00001864   -0.00001189    0.00001290
     atom    4 type  1   force =     0.00001864   -0.00001189    0.00003429
     atom    5 type  1   force =     0.00001864   -0.00001189    0.00001038
     atom    6 type  2   force =    -0.00005221    0.00002845    0.00493043
     atom    7 type  2   force =    -0.00005221    0.00002845    0.00512071
     atom    8 type  2   force =     0.00000000   -0.00000000   -0.00491539
     atom    9 type  2   force =     0.00006523   -0.00004161   -0.00496518
     atom   10 type  2   force =    -0.00005221    0.00002845    0.00490496
     atom   11 type  2   force =     0.00000000   -0.00000000   -0.00511892
     atom   12 type  2   force =    -0.00005221    0.00002845    0.00520494
     atom   13 type  2   force =    -0.00005221    0.00002845    0.00518313
     atom   14 type  2   force =     0.00000000   -0.00000000   -0.00522269
     atom   15 type  2   force =     0.00000000   -0.00000000   -0.00486911
     The Hubbard contrib.    to forces
     atom    1 type  1   force =     0.00000000    0.00000000    0.00000000
     atom    2 type  1   force =     0.00000000    0.00000000    0.00000000
     atom    3 type  1   force =     0.00000000    0.00000000    0.00000000
     atom    4 type  1   force =     0.00000000    0.00000000    0.00000000
     atom    5 type  1   force =     0.00000000    0.00000000    0.00000000
     atom    6 type  2   force =     0.00000000    0.00000000    0.00000000
     atom    7 type  2   force =     0.00000000    0.00000000    0.00000000
     atom    8 type  2   force =     0.00000000    0.00000000    0.00000000
     atom    9 type  2   force =     0.00000000    0.00000000    0.00000000
     atom   10 type  2   force =     0.00000000    0.00000000    0.00000000
     atom   11 type  2   force =     0.00000000    0.00000000    0.00000000
     atom   12 type  2   force =     0.00000000    0.00000000    0.00000000
     atom   13 type  2   force =     0.00000000    0.00000000    0.00000000
     atom   14 type  2   force =     0.00000000    0.00000000    0.00000000
     atom   15 type  2   force =     0.00000000    0.00000000    0.00000000
     The SCF correction term to forces
     atom    1 type  1   force =    -0.00000000    0.00000000    0.00005352
     atom    2 type  1   force =     0.00000000   -0.00000000   -0.00028758
     atom    3 type  1   force =     0.00000000   -0.00000000   -0.00005702
     atom    4 type  1   force =     0.00000000   -0.00000000    0.00033925
     atom    5 type  1   force =     0.00000000   -0.00000000    0.00000191
     atom    6 type  2   force =    -0.00000001    0.00000001    0.00021149
     atom    7 type  2   force =    -0.00000001    0.00000001    0.00001103
     atom    8 type  2   force =    -0.00000000    0.00000000    0.00002116
     atom    9 type  2   force =     0.00000001   -0.00000001   -0.00012431
     atom   10 type  2   force =    -0.00000001    0.00000001   -0.00003445
     atom   11 type  2   force =    -0.00000000    0.00000000   -0.00014431
     atom   12 type  2   force =    -0.00000001    0.00000001    0.00035758
     atom   13 type  2   force =    -0.00000001    0.00000001    0.00024155
     atom   14 type  2   force =    -0.00000000    0.00000000   -0.00051372
     atom   15 type  2   force =    -0.00000000    0.00000000   -0.00027590

     Total force =     0.027107     Total SCF correction =     0.000902


     Computing stress (Cartesian axis) and pressure



     -----------------------------------------------
     Non-local corr. energy    =       7.16450738 Ry
     -----------------------------------------------

          total   stress  (Ry/bohr**3)                   (kbar)     P=       12.89
   0.00008893  -0.00000000   0.00000000           13.08       -0.00        0.00
   0.00000000   0.00008893   0.00000000            0.00       13.08        0.00
   0.00000000   0.00000000   0.00008495            0.00        0.00       12.50

     kinetic stress (kbar)  15638.84      0.00      0.00
                                0.00  15638.84     -0.00
                                0.00      0.00  15649.44

     local   stress (kbar)  -7836.57     -0.00      0.00
                               -0.00  -7836.57     -0.00
                                0.00     -0.00   2459.19

     nonloc. stress (kbar)  -1113.58      0.00      0.00
                                0.00  -1113.58      0.00
                                0.00      0.00  -1120.76

     hartree stress (kbar)  12579.18      0.00     -0.00
                                0.00  12579.18     -0.00
                               -0.00     -0.00   7931.09

     exc-cor stress (kbar)   7240.38      0.00     -0.00
                                0.00   7240.38      0.00
                               -0.00      0.00   7239.10

     corecor stress (kbar) -11791.36     -0.00     -0.00
                               -0.00 -11791.36      0.00
                               -0.00      0.00 -11791.27

     ewald   stress (kbar) -14790.47      0.00     -0.01
                                0.00 -14790.47      0.00
                               -0.01      0.00 -20442.46

     hubbard stress (kbar)      0.00      0.00      0.00
                                0.00      0.00      0.00
                                0.00      0.00      0.00

     DFT-D   stress (kbar)      0.00      0.00      0.00
                                0.00      0.00      0.00
                                0.00      0.00      0.00

     XDM     stress (kbar)      0.00      0.00      0.00
                                0.00      0.00      0.00
                                0.00      0.00      0.00

     dft-nl  stress (kbar)     86.66     -0.00      0.00
                               -0.00     86.66     -0.00
                                0.00     -0.00     88.16

     TS-vdW  stress (kbar)      0.00      0.00      0.00
                                0.00      0.00      0.00
                                0.00      0.00      0.00

     MDB     stress (kbar)      0.00      0.00      0.00
                                0.00      0.00      0.00
                                0.00      0.00      0.00

     3D-RISM stress (kbar)      0.00      0.00      0.00
                                0.00      0.00      0.00
                                0.00      0.00      0.00


     BFGS Geometry Optimization
     Energy error            =      0.0E+00 Ry
     Gradient error          =      9.3E-03 Ry/Bohr
     Cell gradient error     =      1.3E+01 kbar

     number of scf cycles    =   1
     number of bfgs steps    =   0

     enthalpy           new  =  -10118.1532263681 Ry

     new trust radius        =       0.0301250144 bohr
     new conv_thr            =       0.0000001000 Ry

     new unit-cell volume =   4620.12180 a.u.^3 (   684.63142 Ang^3 )
     density =      5.59077 g/cm^3

CELL_PARAMETERS (alat=  8.74506076)
   1.002223288   0.000000000   0.000000000
  -0.501111644   0.867950828   0.000000000
   0.000000000   0.000000000   7.941550820

ATOMIC_POSITIONS (angstrom)
Pb            0.0000000000        0.0000000000       31.3385542922
Pb           -0.0000026664        2.6777381287       16.6496605680
Pb           -0.0000026664        2.6777381287       24.0104340680
Pb           -0.0000026664        2.6777381287        9.2979425188
Pb           -0.0000026664        2.6777381287        1.9471514691
I             2.3189899054        1.3388670510        3.8190719968
I             2.3189899054        1.3388670510       25.8765304873
I             0.0000000000        0.0000000000        7.4235852219
I            -0.0000026664        2.6777381287       29.4667369141
I             2.3189899054        1.3388670510       18.5223099310
I             0.0000000000        0.0000000000        0.0738977001
I             2.3189899054        1.3388670510       11.1695420827
I             2.3189899054        1.3388670510       33.2102105513
I             0.0000000000        0.0000000000       14.7739805922
I             0.0000000000        0.0000000000       22.1433957929



     Writing config-only to output data dir ./PbI2.save/
     NEW-OLD atomic charge density approx. for the potential

     Check: negative core charge=   -0.000001


     -----------------------------------------------
     Non-local corr. energy    =       7.19570549 Ry
     -----------------------------------------------

     extrapolated charge  241.56990, renormalised to  240.00000

     total cpu time spent up to now is       99.5 secs

     Self-consistent Calculation

     iteration #  1     ecut=    70.00 Ry     beta= 0.70
     Davidson diagonalization with overlap

---- Real-time Memory Report at c_bands before calling an iterative solver
           280 MiB given to the printing process from OS
             0 MiB allocation reported by mallinfo(arena+hblkhd)
       1944183 MiB available memory on the node where the printing process lives
------------------
     c_bands:  1 eigenvalues not converged
     ethr =  1.00E-06,  avg # of iterations =  9.8


     -----------------------------------------------
     Non-local corr. energy    =       7.09332548 Ry
     -----------------------------------------------


     total cpu time spent up to now is      107.4 secs

     total energy              =  -10118.03459382 Ry
     estimated scf accuracy    <       0.12167176 Ry

     iteration #  2     ecut=    70.00 Ry     beta= 0.70
     Davidson diagonalization with overlap

---- Real-time Memory Report at c_bands before calling an iterative solver
           281 MiB given to the printing process from OS
             0 MiB allocation reported by mallinfo(arena+hblkhd)
       1944031 MiB available memory on the node where the printing process lives
------------------
     ethr =  5.07E-05,  avg # of iterations =  5.3


     -----------------------------------------------
     Non-local corr. energy    =       7.13382466 Ry
     -----------------------------------------------


     total cpu time spent up to now is      113.7 secs

     total energy              =  -10118.15272335 Ry
     estimated scf accuracy    <       0.21973272 Ry

     iteration #  3     ecut=    70.00 Ry     beta= 0.70
     Davidson diagonalization with overlap

---- Real-time Memory Report at c_bands before calling an iterative solver
           282 MiB given to the printing process from OS
             0 MiB allocation reported by mallinfo(arena+hblkhd)
       1944020 MiB available memory on the node where the printing process lives
------------------
     ethr =  5.07E-05,  avg # of iterations =  7.8


     -----------------------------------------------
     Non-local corr. energy    =       7.14106181 Ry
     -----------------------------------------------


     total cpu time spent up to now is      118.6 secs

     total energy              =  -10118.15950974 Ry
     estimated scf accuracy    <       0.05637782 Ry

     iteration #  4     ecut=    70.00 Ry     beta= 0.70
     Davidson diagonalization with overlap

---- Real-time Memory Report at c_bands before calling an iterative solver
           282 MiB given to the printing process from OS
             0 MiB allocation reported by mallinfo(arena+hblkhd)
       1944019 MiB available memory on the node where the printing process lives
------------------
     ethr =  2.35E-05,  avg # of iterations =  8.5


     -----------------------------------------------
     Non-local corr. energy    =       7.14607563 Ry
     -----------------------------------------------


     total cpu time spent up to now is      123.1 secs

     total energy              =  -10118.15890425 Ry
     estimated scf accuracy    <       0.03601293 Ry

     iteration #  5     ecut=    70.00 Ry     beta= 0.70
     Davidson diagonalization with overlap

---- Real-time Memory Report at c_bands before calling an iterative solver
           283 MiB given to the printing process from OS
             0 MiB allocation reported by mallinfo(arena+hblkhd)
       1944017 MiB available memory on the node where the printing process lives
------------------
     ethr =  1.50E-05,  avg # of iterations =  5.3


     -----------------------------------------------
     Non-local corr. energy    =       7.15605759 Ry
     -----------------------------------------------


     total cpu time spent up to now is      126.6 secs

     total energy              =  -10118.15603295 Ry
     estimated scf accuracy    <       0.02598304 Ry

     iteration #  6     ecut=    70.00 Ry     beta= 0.70
     Davidson diagonalization with overlap

---- Real-time Memory Report at c_bands before calling an iterative solver
           283 MiB given to the printing process from OS
             0 MiB allocation reported by mallinfo(arena+hblkhd)
       1944014 MiB available memory on the node where the printing process lives
------------------
     ethr =  1.08E-05,  avg # of iterations =  2.3


     -----------------------------------------------
     Non-local corr. energy    =       7.16301062 Ry
     -----------------------------------------------


     total cpu time spent up to now is      129.4 secs

     total energy              =  -10118.15530721 Ry
     estimated scf accuracy    <       0.01140390 Ry

     iteration #  7     ecut=    70.00 Ry     beta= 0.70
     Davidson diagonalization with overlap

---- Real-time Memory Report at c_bands before calling an iterative solver
           283 MiB given to the printing process from OS
             0 MiB allocation reported by mallinfo(arena+hblkhd)
       1944016 MiB available memory on the node where the printing process lives
------------------
     ethr =  4.75E-06,  avg # of iterations =  3.5


     -----------------------------------------------
     Non-local corr. energy    =       7.17094868 Ry
     -----------------------------------------------


     total cpu time spent up to now is      132.4 secs

     total energy              =  -10118.15467173 Ry
     estimated scf accuracy    <       0.00539895 Ry

     iteration #  8     ecut=    70.00 Ry     beta= 0.70
     Davidson diagonalization with overlap

---- Real-time Memory Report at c_bands before calling an iterative solver
           283 MiB given to the printing process from OS
             0 MiB allocation reported by mallinfo(arena+hblkhd)
       1944032 MiB available memory on the node where the printing process lives
------------------
     ethr =  2.25E-06,  avg # of iterations =  5.0


     -----------------------------------------------
     Non-local corr. energy    =       7.16537048 Ry
     -----------------------------------------------


     total cpu time spent up to now is      137.6 secs

     total energy              =  -10118.15647425 Ry
     estimated scf accuracy    <       0.00027637 Ry

     iteration #  9     ecut=    70.00 Ry     beta= 0.70
     Davidson diagonalization with overlap

---- Real-time Memory Report at c_bands before calling an iterative solver
           283 MiB given to the printing process from OS
             0 MiB allocation reported by mallinfo(arena+hblkhd)
       1944145 MiB available memory on the node where the printing process lives
------------------
     ethr =  1.15E-07,  avg # of iterations =  4.8


     -----------------------------------------------
     Non-local corr. energy    =       7.16983172 Ry
     -----------------------------------------------


     total cpu time spent up to now is      142.6 secs

     total energy              =  -10118.15634056 Ry
     estimated scf accuracy    <       0.00079005 Ry

     iteration # 10     ecut=    70.00 Ry     beta= 0.70
     Davidson diagonalization with overlap

---- Real-time Memory Report at c_bands before calling an iterative solver
           284 MiB given to the printing process from OS
             0 MiB allocation reported by mallinfo(arena+hblkhd)
       1944279 MiB available memory on the node where the printing process lives
------------------
     ethr =  1.15E-07,  avg # of iterations =  3.5


     -----------------------------------------------
     Non-local corr. energy    =       7.17794860 Ry
     -----------------------------------------------


     total cpu time spent up to now is      146.2 secs

     total energy              =  -10118.15634398 Ry
     estimated scf accuracy    <       0.00024252 Ry

     iteration # 11     ecut=    70.00 Ry     beta= 0.70
     Davidson diagonalization with overlap

---- Real-time Memory Report at c_bands before calling an iterative solver
           286 MiB given to the printing process from OS
             0 MiB allocation reported by mallinfo(arena+hblkhd)
       1944524 MiB available memory on the node where the printing process lives
------------------
     ethr =  1.01E-07,  avg # of iterations =  5.3


     -----------------------------------------------
     Non-local corr. energy    =       7.18120925 Ry
     -----------------------------------------------


     total cpu time spent up to now is      152.6 secs

     total energy              =  -10118.15673936 Ry
     estimated scf accuracy    <       0.00177562 Ry

     iteration # 12     ecut=    70.00 Ry     beta= 0.70
     Davidson diagonalization with overlap

---- Real-time Memory Report at c_bands before calling an iterative solver
           286 MiB given to the printing process from OS
             0 MiB allocation reported by mallinfo(arena+hblkhd)
       1944513 MiB available memory on the node where the printing process lives
------------------
     ethr =  1.01E-07,  avg # of iterations =  1.0


     -----------------------------------------------
     Non-local corr. energy    =       7.16866725 Ry
     -----------------------------------------------


     total cpu time spent up to now is      155.1 secs

     total energy              =  -10118.15614869 Ry
     estimated scf accuracy    <       0.00287290 Ry

     iteration # 13     ecut=    70.00 Ry     beta= 0.70
     Davidson diagonalization with overlap

---- Real-time Memory Report at c_bands before calling an iterative solver
           286 MiB given to the printing process from OS
             0 MiB allocation reported by mallinfo(arena+hblkhd)
       1944524 MiB available memory on the node where the printing process lives
------------------
     ethr =  1.01E-07,  avg # of iterations =  7.0


     -----------------------------------------------
     Non-local corr. energy    =       7.16891140 Ry
     -----------------------------------------------


     total cpu time spent up to now is      161.6 secs

     total energy              =  -10118.15627423 Ry
     estimated scf accuracy    <       0.00003062 Ry

     iteration # 14     ecut=    70.00 Ry     beta= 0.70
     Davidson diagonalization with overlap

---- Real-time Memory Report at c_bands before calling an iterative solver
           286 MiB given to the printing process from OS
             0 MiB allocation reported by mallinfo(arena+hblkhd)
       1944522 MiB available memory on the node where the printing process lives
------------------
     ethr =  1.28E-08,  avg # of iterations = 13.3


     -----------------------------------------------
     Non-local corr. energy    =       7.16678300 Ry
     -----------------------------------------------


     total cpu time spent up to now is      168.3 secs

     total energy              =  -10118.15627375 Ry
     estimated scf accuracy    <       0.00001513 Ry

     iteration # 15     ecut=    70.00 Ry     beta= 0.70
     Davidson diagonalization with overlap

---- Real-time Memory Report at c_bands before calling an iterative solver
           286 MiB given to the printing process from OS
             0 MiB allocation reported by mallinfo(arena+hblkhd)
       1944529 MiB available memory on the node where the printing process lives
------------------
     ethr =  6.30E-09,  avg # of iterations =  7.0


     -----------------------------------------------
     Non-local corr. energy    =       7.16778613 Ry
     -----------------------------------------------


     total cpu time spent up to now is      174.8 secs

     total energy              =  -10118.15627425 Ry
     estimated scf accuracy    <       0.00007463 Ry

     iteration # 16     ecut=    70.00 Ry     beta= 0.70
     Davidson diagonalization with overlap

---- Real-time Memory Report at c_bands before calling an iterative solver
           286 MiB given to the printing process from OS
             0 MiB allocation reported by mallinfo(arena+hblkhd)
       1944531 MiB available memory on the node where the printing process lives
------------------
     ethr =  6.30E-09,  avg # of iterations = 10.5


     -----------------------------------------------
     Non-local corr. energy    =       7.16692888 Ry
     -----------------------------------------------


     total cpu time spent up to now is      180.2 secs

     total energy              =  -10118.15628054 Ry
     estimated scf accuracy    <       0.00002711 Ry

     iteration # 17     ecut=    70.00 Ry     beta= 0.70
     Davidson diagonalization with overlap

---- Real-time Memory Report at c_bands before calling an iterative solver
           286 MiB given to the printing process from OS
             0 MiB allocation reported by mallinfo(arena+hblkhd)
       1944553 MiB available memory on the node where the printing process lives
------------------
     ethr =  6.30E-09,  avg # of iterations =  8.3


     -----------------------------------------------
     Non-local corr. energy    =       7.16797839 Ry
     -----------------------------------------------


     total cpu time spent up to now is      185.3 secs

     total energy              =  -10118.15627468 Ry
     estimated scf accuracy    <       0.00006822 Ry

     iteration # 18     ecut=    70.00 Ry     beta= 0.70
     Davidson diagonalization with overlap

---- Real-time Memory Report at c_bands before calling an iterative solver
           286 MiB given to the printing process from OS
             0 MiB allocation reported by mallinfo(arena+hblkhd)
       1944429 MiB available memory on the node where the printing process lives
------------------
     ethr =  6.30E-09,  avg # of iterations = 11.5


     -----------------------------------------------
     Non-local corr. energy    =       7.16956058 Ry
     -----------------------------------------------


     total cpu time spent up to now is      190.7 secs

     total energy              =  -10118.15627138 Ry
     estimated scf accuracy    <       0.00002235 Ry

     iteration # 19     ecut=    70.00 Ry     beta= 0.70
     Davidson diagonalization with overlap

---- Real-time Memory Report at c_bands before calling an iterative solver
           289 MiB given to the printing process from OS
             0 MiB allocation reported by mallinfo(arena+hblkhd)
       1944204 MiB available memory on the node where the printing process lives
------------------
     ethr =  6.30E-09,  avg # of iterations =  7.8


     -----------------------------------------------
     Non-local corr. energy    =       7.16927047 Ry
     -----------------------------------------------


     total cpu time spent up to now is      196.6 secs

     total energy              =  -10118.15627412 Ry
     estimated scf accuracy    <       0.00000845 Ry

     iteration # 20     ecut=    70.00 Ry     beta= 0.70
     Davidson diagonalization with overlap

---- Real-time Memory Report at c_bands before calling an iterative solver
           290 MiB given to the printing process from OS
             0 MiB allocation reported by mallinfo(arena+hblkhd)
       1944209 MiB available memory on the node where the printing process lives
------------------
     ethr =  3.52E-09,  avg # of iterations =  9.0


     -----------------------------------------------
     Non-local corr. energy    =       7.16886767 Ry
     -----------------------------------------------


     total cpu time spent up to now is      201.1 secs

     total energy              =  -10118.15627337 Ry
     estimated scf accuracy    <       0.00000348 Ry

     iteration # 21     ecut=    70.00 Ry     beta= 0.70
     Davidson diagonalization with overlap

---- Real-time Memory Report at c_bands before calling an iterative solver
           290 MiB given to the printing process from OS
             0 MiB allocation reported by mallinfo(arena+hblkhd)
       1944060 MiB available memory on the node where the printing process lives
------------------
     ethr =  1.45E-09,  avg # of iterations =  9.5


     -----------------------------------------------
     Non-local corr. energy    =       7.16883313 Ry
     -----------------------------------------------


     total cpu time spent up to now is      205.9 secs

     total energy              =  -10118.15627344 Ry
     estimated scf accuracy    <       0.00000029 Ry

     iteration # 22     ecut=    70.00 Ry     beta= 0.70
     Davidson diagonalization with overlap

---- Real-time Memory Report at c_bands before calling an iterative solver
           290 MiB given to the printing process from OS
             0 MiB allocation reported by mallinfo(arena+hblkhd)
       1944074 MiB available memory on the node where the printing process lives
------------------
     ethr =  1.21E-10,  avg # of iterations =  7.5


     -----------------------------------------------
     Non-local corr. energy    =       7.16891255 Ry
     -----------------------------------------------


     total cpu time spent up to now is      213.0 secs

     End of self-consistent calculation

          k = 0.0000 0.0000 0.0000 ( 45455 PWs)   bands (ev):

   -40.4550 -40.4550 -40.4549 -40.4535 -40.4534 -40.4533 -40.4531 -40.4531
   -40.4527 -40.4527 -40.4527 -40.4522 -40.4522 -40.4518 -40.4518 -40.4518
   -40.4517 -40.4517 -40.4517 -40.4517 -40.4515 -40.4512 -40.4508 -40.4508
   -40.4505 -40.4505 -40.4503 -40.4503 -40.4503 -40.4503 -40.4503 -40.4500
   -40.4500 -40.4498 -40.4497 -40.4497 -40.4497 -40.4497 -40.4497 -40.4487
   -40.4487 -40.4486 -40.4485 -40.4485 -40.4477 -40.4477 -40.4476 -40.4476
   -40.4467 -40.4467 -12.4939 -12.4939 -12.4910 -12.4910 -12.4909 -12.4909
   -12.4909 -12.4909 -12.4865 -12.4848 -12.4848 -12.4839 -12.4836 -12.4836
   -12.4804 -12.4804 -12.4779 -12.4774 -12.4774 -12.4774 -12.4774 -12.4774
   -12.4774 -12.4712 -12.4712  -7.8792  -7.8538  -7.8504  -7.8006  -7.7978
    -7.4048  -7.4037  -7.3355  -7.3338  -7.2975  -2.7911  -2.7603  -2.7562
    -2.7068  -2.7027   2.5027   2.5056   2.7453   2.7527   3.0309   3.0309
     3.0320   3.0373   3.0373   3.0706   3.0706   3.0739   3.0739   3.1081
     3.1081   3.2391   3.2391   3.2803   3.2803   3.2827   3.2827   3.3143
     3.3287   3.3287   3.3314   3.3314   3.5962   3.5997   3.8431   3.8506
     6.3839   6.3920   6.4917   6.4928   6.5580   7.2619   7.2619   7.2781
     7.2781   7.3123   7.3123   7.3213   7.3213   7.3497   7.3497  10.3252
    10.5360  10.5445  10.7996  10.8041  11.4923  11.4961  11.5838  11.6155

     occupation numbers 
     1.0000   1.0000   1.0000   1.0000   1.0000   1.0000   1.0000   1.0000
     1.0000   1.0000   1.0000   1.0000   1.0000   1.0000   1.0000   1.0000
     1.0000   1.0000   1.0000   1.0000   1.0000   1.0000   1.0000   1.0000
     1.0000   1.0000   1.0000   1.0000   1.0000   1.0000   1.0000   1.0000
     1.0000   1.0000   1.0000   1.0000   1.0000   1.0000   1.0000   1.0000
     1.0000   1.0000   1.0000   1.0000   1.0000   1.0000   1.0000   1.0000
     1.0000   1.0000   1.0000   1.0000   1.0000   1.0000   1.0000   1.0000
     1.0000   1.0000   1.0000   1.0000   1.0000   1.0000   1.0000   1.0000
     1.0000   1.0000   1.0000   1.0000   1.0000   1.0000   1.0000   1.0000
     1.0000   1.0000   1.0000   1.0000   1.0000   1.0000   1.0000   1.0000
     1.0000   1.0000   1.0000   1.0000   1.0000   1.0000   1.0000   1.0000
     1.0000   1.0000   1.0000   1.0000   1.0000   1.0000   1.0000   1.0000
     1.0000   1.0000   1.0000   1.0000   1.0000   1.0000   1.0000   1.0000
     1.0000   1.0000   1.0000   1.0000   1.0000   1.0000   1.0000   1.0000
     1.0000   1.0000   1.0000   1.0000   1.0000   1.0000   1.0000   1.0000
     0.0000   0.0000   0.0000   0.0000   0.0000   0.0000   0.0000   0.0000
     0.0000   0.0000   0.0000   0.0000   0.0000   0.0000   0.0000   0.0000
     0.0000   0.0000   0.0000   0.0000   0.0000   0.0000   0.0000   0.0000

          k = 0.0000 0.2880 0.0000 ( 45434 PWs)   bands (ev):

   -40.4550 -40.4550 -40.4548 -40.4535 -40.4535 -40.4532 -40.4531 -40.4531
   -40.4527 -40.4527 -40.4526 -40.4522 -40.4522 -40.4518 -40.4518 -40.4518
   -40.4517 -40.4517 -40.4517 -40.4516 -40.4515 -40.4512 -40.4508 -40.4507
   -40.4505 -40.4505 -40.4503 -40.4503 -40.4503 -40.4503 -40.4502 -40.4500
   -40.4500 -40.4498 -40.4497 -40.4497 -40.4497 -40.4497 -40.4497 -40.4487
   -40.4487 -40.4486 -40.4485 -40.4485 -40.4477 -40.4476 -40.4476 -40.4475
   -40.4467 -40.4466 -12.5066 -12.5038 -12.5038 -12.5037 -12.4980 -12.4897
   -12.4868 -12.4868 -12.4868 -12.4847 -12.4818 -12.4817 -12.4817 -12.4809
   -12.4803 -12.4778 -12.4775 -12.4774 -12.4773 -12.4757 -12.4748 -12.4748
   -12.4747 -12.4713 -12.4683  -7.6542  -7.6329  -7.6301  -7.5881  -7.5859
    -7.2914  -7.2899  -7.2383  -7.2364  -7.2095  -2.9934  -2.9871  -2.9798
    -2.9718  -2.9668   1.7134   1.7301   1.8520   1.8819   1.9957   2.3264
     2.3475   2.3711   2.4910   2.5308   2.5490   2.5608   2.5794   2.6140
     2.6384   2.7791   2.9595   3.1096   3.2073   3.2431   3.2899   3.2967
     3.3394   3.3409   3.3646   3.5554   3.6444   3.6740   3.7926   3.8173
     6.8720   6.8850   7.1073   7.1183   7.2388   7.6355   7.6474   7.7174
     7.7240   7.7261   7.7724   7.7953   7.8591   7.8984   7.9924  10.1373
    10.1900  10.3661  10.4282  10.5370  11.0024  11.1513  11.2071  11.2938

     occupation numbers 
     1.0000   1.0000   1.0000   1.0000   1.0000   1.0000   1.0000   1.0000
     1.0000   1.0000   1.0000   1.0000   1.0000   1.0000   1.0000   1.0000
     1.0000   1.0000   1.0000   1.0000   1.0000   1.0000   1.0000   1.0000
     1.0000   1.0000   1.0000   1.0000   1.0000   1.0000   1.0000   1.0000
     1.0000   1.0000   1.0000   1.0000   1.0000   1.0000   1.0000   1.0000
     1.0000   1.0000   1.0000   1.0000   1.0000   1.0000   1.0000   1.0000
     1.0000   1.0000   1.0000   1.0000   1.0000   1.0000   1.0000   1.0000
     1.0000   1.0000   1.0000   1.0000   1.0000   1.0000   1.0000   1.0000
     1.0000   1.0000   1.0000   1.0000   1.0000   1.0000   1.0000   1.0000
     1.0000   1.0000   1.0000   1.0000   1.0000   1.0000   1.0000   1.0000
     1.0000   1.0000   1.0000   1.0000   1.0000   1.0000   1.0000   1.0000
     1.0000   1.0000   1.0000   1.0000   1.0000   1.0000   1.0000   1.0000
     1.0000   1.0000   1.0000   1.0000   1.0000   1.0000   1.0000   1.0000
     1.0000   1.0000   1.0000   1.0000   1.0000   1.0000   1.0000   1.0000
     1.0000   1.0000   1.0000   1.0000   1.0000   1.0000   1.0000   1.0000
     0.0000   0.0000   0.0000   0.0000   0.0000   0.0000   0.0000   0.0000
     0.0000   0.0000   0.0000   0.0000   0.0000   0.0000   0.0000   0.0000
     0.0000   0.0000   0.0000   0.0000   0.0000   0.0000   0.0000   0.0000

          k = 0.0000-0.5761 0.0000 ( 45384 PWs)   bands (ev):

   -40.4550 -40.4550 -40.4548 -40.4535 -40.4535 -40.4532 -40.4531 -40.4530
   -40.4527 -40.4527 -40.4526 -40.4522 -40.4522 -40.4518 -40.4518 -40.4518
   -40.4517 -40.4517 -40.4516 -40.4516 -40.4514 -40.4512 -40.4508 -40.4507
   -40.4506 -40.4505 -40.4503 -40.4503 -40.4502 -40.4502 -40.4502 -40.4500
   -40.4499 -40.4498 -40.4497 -40.4497 -40.4497 -40.4497 -40.4497 -40.4487
   -40.4487 -40.4486 -40.4485 -40.4484 -40.4477 -40.4476 -40.4476 -40.4475
   -40.4467 -40.4466 -12.5203 -12.5176 -12.5175 -12.5175 -12.5121 -12.4888
   -12.4869 -12.4860 -12.4859 -12.4859 -12.4839 -12.4839 -12.4839 -12.4802
   -12.4777 -12.4751 -12.4723 -12.4722 -12.4721 -12.4719 -12.4689 -12.4688
   -12.4687 -12.4662 -12.4622  -7.3332  -7.3231  -7.3216  -7.3010  -7.2998
    -7.2134  -7.2117  -7.1915  -7.1902  -7.1804  -3.2927  -3.2898  -3.2868
    -3.2851  -3.2812   1.0906   1.1285   1.1994   1.2223   1.3080   2.0194
     2.1218   2.1558   2.1974   2.2328   2.2377   2.2569   2.3047   2.3088
     2.3755   2.8260   2.8931   2.9098   3.0629   3.1113   3.1124   3.1560
     3.2194   3.2287   3.2312   3.2808   3.2971   3.4167   3.4528   3.5365
     7.0308   7.1227   7.1323   7.2781   7.3025   7.7860   7.8750   7.8808
     7.9084   8.0275   8.0343   8.0399   8.1950   8.2957   8.4789   9.5630
     9.7142   9.7701   9.9541  10.0189  11.6700  11.7004  11.8382  11.8766

     occupation numbers 
     1.0000   1.0000   1.0000   1.0000   1.0000   1.0000   1.0000   1.0000
     1.0000   1.0000   1.0000   1.0000   1.0000   1.0000   1.0000   1.0000
     1.0000   1.0000   1.0000   1.0000   1.0000   1.0000   1.0000   1.0000
     1.0000   1.0000   1.0000   1.0000   1.0000   1.0000   1.0000   1.0000
     1.0000   1.0000   1.0000   1.0000   1.0000   1.0000   1.0000   1.0000
     1.0000   1.0000   1.0000   1.0000   1.0000   1.0000   1.0000   1.0000
     1.0000   1.0000   1.0000   1.0000   1.0000   1.0000   1.0000   1.0000
     1.0000   1.0000   1.0000   1.0000   1.0000   1.0000   1.0000   1.0000
     1.0000   1.0000   1.0000   1.0000   1.0000   1.0000   1.0000   1.0000
     1.0000   1.0000   1.0000   1.0000   1.0000   1.0000   1.0000   1.0000
     1.0000   1.0000   1.0000   1.0000   1.0000   1.0000   1.0000   1.0000
     1.0000   1.0000   1.0000   1.0000   1.0000   1.0000   1.0000   1.0000
     1.0000   1.0000   1.0000   1.0000   1.0000   1.0000   1.0000   1.0000
     1.0000   1.0000   1.0000   1.0000   1.0000   1.0000   1.0000   1.0000
     1.0000   1.0000   1.0000   1.0000   1.0000   1.0000   1.0000   1.0000
     0.0000   0.0000   0.0000   0.0000   0.0000   0.0000   0.0000   0.0000
     0.0000   0.0000   0.0000   0.0000   0.0000   0.0000   0.0000   0.0000
     0.0000   0.0000   0.0000   0.0000   0.0000   0.0000   0.0000   0.0000

          k = 0.2494 0.4321 0.0000 ( 45370 PWs)   bands (ev):

   -40.4550 -40.4550 -40.4548 -40.4535 -40.4535 -40.4532 -40.4531 -40.4530
   -40.4527 -40.4527 -40.4526 -40.4522 -40.4522 -40.4518 -40.4518 -40.4518
   -40.4517 -40.4517 -40.4516 -40.4516 -40.4514 -40.4512 -40.4508 -40.4507
   -40.4505 -40.4505 -40.4503 -40.4503 -40.4502 -40.4502 -40.4502 -40.4500
   -40.4499 -40.4498 -40.4497 -40.4497 -40.4497 -40.4497 -40.4497 -40.4487
   -40.4487 -40.4486 -40.4485 -40.4484 -40.4476 -40.4476 -40.4476 -40.4475
   -40.4466 -40.4466 -12.5116 -12.5089 -12.5088 -12.5088 -12.5033 -12.4962
   -12.4935 -12.4934 -12.4934 -12.4877 -12.4818 -12.4797 -12.4788 -12.4788
   -12.4787 -12.4769 -12.4768 -12.4767 -12.4738 -12.4723 -12.4708 -12.4707
   -12.4707 -12.4707 -12.4644  -7.3540  -7.3428  -7.3412  -7.3192  -7.3180
    -7.1954  -7.1945  -7.1718  -7.1709  -7.1595  -3.2762  -3.2731  -3.2725
    -3.2713  -3.2690   1.4172   1.4249   1.4832   1.4894   1.6079   1.6539
     1.6785   1.6933   1.7605   1.7634   2.0947   2.1321   2.2012   2.2046
     2.2866   2.6223   2.7097   2.7121   2.9744   3.0136   3.0875   3.1904
     3.1937   3.2299   3.2686   3.6111   3.6824   3.6841   3.7869   3.8020
     7.4376   7.4604   7.5917   7.6130   7.7741   7.8053   7.8250   7.9028
     7.9183   7.9364   8.1304   8.1634   8.2130   8.2589   8.2591  10.4657
    10.5583  10.6804  10.7381  10.8186  10.8408  10.8929  10.9783  11.2004

     occupation numbers 
     1.0000   1.0000   1.0000   1.0000   1.0000   1.0000   1.0000   1.0000
     1.0000   1.0000   1.0000   1.0000   1.0000   1.0000   1.0000   1.0000
     1.0000   1.0000   1.0000   1.0000   1.0000   1.0000   1.0000   1.0000
     1.0000   1.0000   1.0000   1.0000   1.0000   1.0000   1.0000   1.0000
[...]
     1.0000   1.0000   1.0000   1.0000   1.0000   1.0000   1.0000   1.0000
     1.0000   1.0000   1.0000   1.0000   1.0000   1.0000   1.0000   1.0000
     1.0000   1.0000   1.0000   1.0000   1.0000   1.0000   1.0000   1.0000
     1.0000   1.0000   1.0000   1.0000   1.0000   1.0000   1.0000   1.0000
     1.0000   1.0000   1.0000   1.0000   1.0000   1.0000   1.0000   1.0000
     1.0000   1.0000   1.0000   1.0000   1.0000   1.0000   1.0000   1.0000
     1.0000   1.0000   1.0000   1.0000   1.0000   1.0000   1.0000   1.0000
     1.0000   1.0000   1.0000   1.0000   1.0000   1.0000   1.0000   1.0000
     0.0000   0.0000   0.0000   0.0000   0.0000   0.0000   0.0000   0.0000
     0.0000   0.0000   0.0000   0.0000   0.0000   0.0000   0.0000   0.0000
     0.0000   0.0000   0.0000   0.0000   0.0000   0.0000   0.0000   0.0000

          k = 0.2454 0.4251-0.0000 ( 47760 PWs)   bands (ev):

   -40.8484 -40.8484 -40.8481 -40.8481 -40.8480 -40.8478 -40.8478 -40.8475
   -40.8473 -40.8472 -40.8460 -40.8460 -40.8455 -40.8455 -40.8454 -40.8454
   -40.8453 -40.8449 -40.8448 -40.8448 -40.8434 -40.8434 -40.8432 -40.8432
   -40.8431 -40.8431 -40.8430 -40.8428 -40.8428 -40.8427 -40.8426 -40.8424
   -40.8424 -40.8424 -40.8423 -40.8422 -40.8422 -40.8421 -40.8420 -40.8418
   -40.8417 -40.8417 -40.8416 -40.8414 -40.8414 -40.8413 -40.8412 -40.8412
   -40.8410 -40.8410 -13.0215 -13.0189 -13.0153 -13.0146 -13.0143 -13.0098
   -13.0072 -13.0036 -13.0029 -13.0025 -12.9997 -12.9991 -12.9969 -12.9966
   -12.9934 -12.9932 -12.9928 -12.9924 -12.9921 -12.9917 -12.9916 -12.9906
   -12.9869 -12.9861 -12.9853  -7.7087  -7.6998  -7.6963  -7.6778  -7.6765
    -7.5725  -7.5708  -7.5517  -7.5497  -7.5402  -3.7031  -3.6997  -3.6989
    -3.6980  -3.6969   1.1286   1.1342   1.1928   1.1938   1.3090   1.3434
     1.3653   1.3840   1.4437   1.4491   1.7649   1.7993   1.8630   1.8674
     1.9435   2.2692   2.3506   2.3521   2.5959   2.6328   2.7005   2.7950
     2.7967   2.8314   2.8687   3.1434   3.2056   3.2105   3.3034   3.3164
     6.9147   6.9361   7.0507   7.0710   7.2203   7.2353   7.2626   7.3210
     7.3407   7.3490   7.5490   7.5716   7.6217   7.6599   7.6657  10.0136
    10.1072  10.2215  10.2727  10.3584  10.3800  10.4349  10.5164  10.7316

     occupation numbers 
     1.0000   1.0000   1.0000   1.0000   1.0000   1.0000   1.0000   1.0000
     1.0000   1.0000   1.0000   1.0000   1.0000   1.0000   1.0000   1.0000
     1.0000   1.0000   1.0000   1.0000   1.0000   1.0000   1.0000   1.0000
     1.0000   1.0000   1.0000   1.0000   1.0000   1.0000   1.0000   1.0000
     1.0000   1.0000   1.0000   1.0000   1.0000   1.0000   1.0000   1.0000
     1.0000   1.0000   1.0000   1.0000   1.0000   1.0000   1.0000   1.0000
     1.0000   1.0000   1.0000   1.0000   1.0000   1.0000   1.0000   1.0000
     1.0000   1.0000   1.0000   1.0000   1.0000   1.0000   1.0000   1.0000
     1.0000   1.0000   1.0000   1.0000   1.0000   1.0000   1.0000   1.0000
     1.0000   1.0000   1.0000   1.0000   1.0000   1.0000   1.0000   1.0000
     1.0000   1.0000   1.0000   1.0000   1.0000   1.0000   1.0000   1.0000
     1.0000   1.0000   1.0000   1.0000   1.0000   1.0000   1.0000   1.0000
     1.0000   1.0000   1.0000   1.0000   1.0000   1.0000   1.0000   1.0000
     1.0000   1.0000   1.0000   1.0000   1.0000   1.0000   1.0000   1.0000
     1.0000   1.0000   1.0000   1.0000   1.0000   1.0000   1.0000   1.0000
     0.0000   0.0000   0.0000   0.0000   0.0000   0.0000   0.0000   0.0000
     0.0000   0.0000   0.0000   0.0000   0.0000   0.0000   0.0000   0.0000
     0.0000   0.0000   0.0000   0.0000   0.0000   0.0000   0.0000   0.0000

     the Fermi energy is     4.1127 ev

!    total energy              =  -10118.16520960 Ry
     total all-electron energy =   -351401.617420 Ry
     estimated scf accuracy    <          7.2E-10 Ry
     smearing contrib. (-TS)   =      -0.00000000 Ry
     internal energy E=F+TS    =  -10118.16520960 Ry

     The total energy is F=E-TS. E is the sum of the following terms:
     one-electron contribution =   -1878.43660483 Ry
     hartree contribution      =    1048.05053202 Ry
     xc contribution           =    -708.83202460 Ry
     ewald contribution        =   -1536.66439666 Ry
     one-center paw contrib.   =   -7042.28271554 Ry
      -> PAW hartree energy AE =      95.90844040 Ry
      -> PAW hartree energy PS =     -96.14518664 Ry
      -> PAW xc energy AE      =    -798.43042291 Ry
      -> PAW xc energy PS      =      33.31034877 Ry
      -> total E_H with PAW    =    1047.81378578 Ry
      -> total E_XC with PAW   =   -1473.95209873 Ry

     convergence has been achieved in  19 iterations


     -----------------------------------------------
     Non-local corr. energy    =       7.19507791 Ry
     -----------------------------------------------


     Forces acting on atoms (cartesian axes, Ry/au):

     atom    1 type  1   force =    -0.00000000    0.00000000    0.00003041
     atom    2 type  1   force =    -0.00000000    0.00000000    0.00020222
     atom    3 type  1   force =     0.00000000   -0.00000000   -0.00022327
     atom    4 type  1   force =     0.00000000   -0.00000000   -0.00018738
     atom    5 type  1   force =    -0.00000000    0.00000000    0.00017756
     atom    6 type  2   force =     0.00000000   -0.00000000   -0.00105650
     atom    7 type  2   force =     0.00000000   -0.00000000   -0.00031989
     atom    8 type  2   force =    -0.00000000    0.00000000    0.00053650
     atom    9 type  2   force =     0.00000000   -0.00000000   -0.00005681
     atom   10 type  2   force =     0.00000000   -0.00000000   -0.00050102
     atom   11 type  2   force =    -0.00000000    0.00000000    0.00021581
     atom   12 type  2   force =    -0.00000000    0.00000000    0.00031547
     atom   13 type  2   force =    -0.00000000    0.00000000    0.00049938
     atom   14 type  2   force =     0.00000000   -0.00000000   -0.00045747
     atom   15 type  2   force =    -0.00000000    0.00000000    0.00082498
     The non-local contrib.  to forces
     atom    1 type  1   force =    -0.00000000   -0.00000000   -0.00032562
     atom    2 type  1   force =     0.00000000    0.00000000   -0.00008417
     atom    3 type  1   force =     0.00000000    0.00000000   -0.00031982
     atom    4 type  1   force =     0.00000000    0.00000000    0.00003785
     atom    5 type  1   force =     0.00000000    0.00000000   -0.00003672
     atom    6 type  2   force =     0.00000000    0.00000000   -0.24672336
     atom    7 type  2   force =    -0.00000000   -0.00000000   -0.24610169
     atom    8 type  2   force =    -0.00000000    0.00000000    0.24630537
     atom    9 type  2   force =    -0.00000000    0.00000000    0.24559626
     atom   10 type  2   force =    -0.00000000   -0.00000000   -0.24610803
     atom   11 type  2   force =     0.00000000    0.00000000    0.24519225
     atom   12 type  2   force =     0.00000000    0.00000000   -0.24571800
     atom   13 type  2   force =    -0.00000000   -0.00000000   -0.24561630
     atom   14 type  2   force =    -0.00000000    0.00000000    0.24568944
     atom   15 type  2   force =    -0.00000000   -0.00000000    0.24654869
     The ionic contribution  to forces
     atom    1 type  1   force =    -0.00000213    0.00000217    0.17674460
     atom    2 type  1   force =     0.00003028   -0.00001851    0.04576109
     atom    3 type  1   force =     0.00003012   -0.00001841   -0.44256371
     atom    4 type  1   force =     0.00003028   -0.00001851   -0.02188773
     atom    5 type  1   force =     0.00003012   -0.00001841    0.09828787
     atom    6 type  2   force =    -0.00002101    0.00001245   14.70413632
     atom    7 type  2   force =    -0.00002222    0.00001322   14.20557032
     atom    8 type  2   force =    -0.00000913    0.00000598  -14.73982237
     atom    9 type  2   force =     0.00001465   -0.00000919  -14.45423372
     atom   10 type  2   force =    -0.00002111    0.00001251   14.76316051
     atom   11 type  2   force =    -0.00000907    0.00000594  -14.41757652
     atom   12 type  2   force =    -0.00002115    0.00001253   14.70198629
     atom   13 type  2   force =    -0.00001136    0.00000629   15.11816568
     atom   14 type  2   force =    -0.00000916    0.00000599  -14.68708103
     atom   15 type  2   force =    -0.00000911    0.00000597  -15.05064761
     The local contribution  to forces
     atom    1 type  1   force =     0.00000000    0.00000000   -0.17631069
     atom    2 type  1   force =     0.00028214   -0.00017995   -0.04546581
     atom    3 type  1   force =     0.00028238   -0.00018011    0.44272716
     atom    4 type  1   force =     0.00028214   -0.00017996    0.02165842
     atom    5 type  1   force =     0.00028224   -0.00018002   -0.09804049
     atom    6 type  2   force =    -0.00064593    0.00035201  -14.46371533
     atom    7 type  2   force =    -0.00064587    0.00035198  -13.96514207
     atom    8 type  2   force =     0.00000000   -0.00000000   14.49927467
     atom    9 type  2   force =     0.00080704   -0.00051475   14.21396552
     atom   10 type  2   force =    -0.00064589    0.00035199  -14.52276408
     atom   11 type  2   force =    -0.00000000   -0.00000000   14.17802381
     atom   12 type  2   force =    -0.00064587    0.00035198  -14.46130662
     atom   13 type  2   force =    -0.00064584    0.00035197  -14.87739675
     atom   14 type  2   force =     0.00000000   -0.00000000   14.44633405
     atom   15 type  2   force =    -0.00000000   -0.00000000   14.81023608
     The core correction contribution to forces
     atom    1 type  1   force =     0.00000000   -0.00000000   -0.00001051
     atom    2 type  1   force =     0.00001899   -0.00001211   -0.00001581
     atom    3 type  1   force =     0.00001899   -0.00001211    0.00001542
     atom    4 type  1   force =     0.00001899   -0.00001211    0.00000489
     atom    5 type  1   force =     0.00001899   -0.00001211   -0.00001838
     atom    6 type  2   force =    -0.00005319    0.00002898    0.00527669
     atom    7 type  2   force =    -0.00005319    0.00002898    0.00544447
     atom    8 type  2   force =    -0.00000000    0.00000000   -0.00523246
     atom    9 type  2   force =     0.00006646   -0.00004239   -0.00529751
     atom   10 type  2   force =    -0.00005319    0.00002899    0.00523066
     atom   11 type  2   force =    -0.00000000    0.00000000   -0.00539997
     atom   12 type  2   force =    -0.00005319    0.00002899    0.00540765
     atom   13 type  2   force =    -0.00005319    0.00002899    0.00538895
     atom   14 type  2   force =    -0.00000000    0.00000000   -0.00539481
     atom   15 type  2   force =    -0.00000000    0.00000000   -0.00523717
     The Hubbard contrib.    to forces
     atom    1 type  1   force =     0.00000000    0.00000000    0.00000000
     atom    2 type  1   force =     0.00000000    0.00000000    0.00000000
     atom    3 type  1   force =     0.00000000    0.00000000    0.00000000
     atom    4 type  1   force =     0.00000000    0.00000000    0.00000000
     atom    5 type  1   force =     0.00000000    0.00000000    0.00000000
     atom    6 type  2   force =     0.00000000    0.00000000    0.00000000
     atom    7 type  2   force =     0.00000000    0.00000000    0.00000000
     atom    8 type  2   force =     0.00000000    0.00000000    0.00000000
     atom    9 type  2   force =     0.00000000    0.00000000    0.00000000
     atom   10 type  2   force =     0.00000000    0.00000000    0.00000000
     atom   11 type  2   force =     0.00000000    0.00000000    0.00000000
     atom   12 type  2   force =     0.00000000    0.00000000    0.00000000
     atom   13 type  2   force =     0.00000000    0.00000000    0.00000000
     atom   14 type  2   force =     0.00000000    0.00000000    0.00000000
     atom   15 type  2   force =     0.00000000    0.00000000    0.00000000
     The SCF correction term to forces
     atom    1 type  1   force =    -0.00000000    0.00000000   -0.00002531
     atom    2 type  1   force =     0.00000000   -0.00000000    0.00004897
     atom    3 type  1   force =     0.00000000   -0.00000000   -0.00004025
     atom    4 type  1   force =     0.00000000   -0.00000000    0.00004126
     atom    5 type  1   force =     0.00000000   -0.00000000    0.00002734
     atom    6 type  2   force =    -0.00000000    0.00000000    0.00001124
     atom    7 type  2   force =    -0.00000000    0.00000000   -0.00004886
     atom    8 type  2   force =    -0.00000000    0.00000000    0.00005334
     atom    9 type  2   force =     0.00000000   -0.00000000   -0.00004531
     atom   10 type  2   force =    -0.00000000    0.00000000    0.00002198
     atom   11 type  2   force =    -0.00000000    0.00000000    0.00001829
     atom   12 type  2   force =    -0.00000000    0.00000000   -0.00001179
     atom   13 type  2   force =    -0.00000000    0.00000000   -0.00000015
     atom   14 type  2   force =    -0.00000000    0.00000000    0.00003693
     atom   15 type  2   force =    -0.00000000    0.00000000   -0.00003295

     Total force =     0.001790     Total SCF correction =     0.000134


     Computing stress (Cartesian axis) and pressure



     -----------------------------------------------
     Non-local corr. energy    =       7.19507791 Ry
     -----------------------------------------------

          total   stress  (Ry/bohr**3)                   (kbar)     P=        0.68
   0.00000445   0.00000000   0.00000000            0.65        0.00        0.00
   0.00000000   0.00000445   0.00000000            0.00        0.65        0.00
  -0.00000000   0.00000000   0.00000500           -0.00        0.00        0.74

     kinetic stress (kbar)  14876.84      0.00      0.00
                                0.00  14876.84      0.00
                                0.00      0.00  14887.48

     local   stress (kbar)  -7749.80     -0.00      0.00
                               -0.00  -7749.80     -0.00
                                0.00     -0.00   1709.38

     nonloc. stress (kbar)  -1064.44     -0.00      0.00
                               -0.00  -1064.44     -0.00
                                0.00     -0.00  -1070.56

     hartree stress (kbar)  12081.93     -0.00      0.00
                               -0.00  12081.93     -0.00
                                0.00     -0.00   7810.71

     exc-cor stress (kbar)   6893.88      0.00     -0.00
                                0.00   6893.88      0.00
                               -0.00      0.00   6892.71

     corecor stress (kbar) -11224.14     -0.00     -0.00
                               -0.00 -11224.14      0.00
                               -0.00      0.00 -11224.08

     ewald   stress (kbar) -13896.28      0.00     -0.01
                                0.00 -13896.28      0.00
                               -0.01      0.00 -19088.96

     hubbard stress (kbar)      0.00      0.00      0.00
                                0.00      0.00      0.00
                                0.00      0.00      0.00

     DFT-D   stress (kbar)      0.00      0.00      0.00
                                0.00      0.00      0.00
                                0.00      0.00      0.00

     XDM     stress (kbar)      0.00      0.00      0.00
                                0.00      0.00      0.00
                                0.00      0.00      0.00

     dft-nl  stress (kbar)     82.66     -0.00      0.00
                               -0.00     82.66     -0.00
                                0.00     -0.00     84.05

     TS-vdW  stress (kbar)      0.00      0.00      0.00
                                0.00      0.00      0.00
                                0.00      0.00      0.00

     MDB     stress (kbar)      0.00      0.00      0.00
                                0.00      0.00      0.00
                                0.00      0.00      0.00

     3D-RISM stress (kbar)      0.00      0.00      0.00
                                0.00      0.00      0.00
                                0.00      0.00      0.00


     Writing all to output data dir ./PbI2.save/
 
     init_run     :      2.79s CPU      2.93s WALL (       2 calls)
     electrons    :   1363.86s CPU   1388.31s WALL (      12 calls)
     update_pot   :      4.20s CPU      4.25s WALL (      10 calls)
     forces       :      5.64s CPU      5.82s WALL (      12 calls)
     stress       :     14.48s CPU     14.68s WALL (      12 calls)

     Called by init_run:
     wfcinit      :      1.40s CPU      1.44s WALL (       2 calls)
     wfcinit:atom :      0.01s CPU      0.01s WALL (       8 calls)
     wfcinit:wfcr :      1.38s CPU      1.41s WALL (       8 calls)
     potinit      :      0.73s CPU      0.78s WALL (       2 calls)
     hinit0       :      0.32s CPU      0.33s WALL (       2 calls)

     Called by electrons:
     c_bands      :   1206.56s CPU   1225.57s WALL (     262 calls)
     sum_band     :    104.73s CPU    107.88s WALL (     262 calls)
     v_of_rho     :     23.63s CPU     24.19s WALL (     273 calls)
     v_h          :      0.28s CPU      0.28s WALL (     273 calls)
     v_xc         :     25.40s CPU     26.00s WALL (     297 calls)
     newd         :      9.46s CPU      9.61s WALL (     273 calls)
     PAW_pot      :     19.37s CPU     19.59s WALL (     283 calls)
     mix_rho      :      1.32s CPU      1.34s WALL (     262 calls)
     vdW_kernel   :      0.25s CPU      0.26s WALL (       1 calls)

     Called by c_bands:
     init_us_2    :      2.53s CPU      2.60s WALL (    2240 calls)
     init_us_2:cp :      2.51s CPU      2.59s WALL (    2240 calls)
     cegterg      :   1196.14s CPU   1214.09s WALL (    1048 calls)

     Called by sum_band:
     sum_band:wei :      0.03s CPU      0.04s WALL (     262 calls)
     sum_band:loo :     90.67s CPU     91.71s WALL (     262 calls)
     sum_band:buf :      0.82s CPU      0.84s WALL (    1048 calls)
     sum_band:ini :      1.05s CPU      1.07s WALL (    1048 calls)
     sum_band:cal :      8.08s CPU      8.13s WALL (    1088 calls)
     sum_band:bec :      0.35s CPU      0.36s WALL (    1088 calls)
     addusdens    :     11.60s CPU     13.66s WALL (     262 calls)
     addusd:skk   :      0.15s CPU      0.15s WALL (     524 calls)
     addusd:dgemm :      7.41s CPU      9.39s WALL (     524 calls)
     addusd:qvan2 :      3.76s CPU      3.81s WALL (     524 calls)

     Called by *egterg:
     cdiaghg      :    557.38s CPU    560.98s WALL (    9136 calls)
     cegterg:over :     47.67s CPU     49.52s WALL (    8132 calls)
     cegterg:upda :     28.25s CPU     28.61s WALL (    8132 calls)
     cegterg:last :      7.84s CPU      7.93s WALL (    1096 calls)
     h_psi        :    502.19s CPU    510.33s WALL (    9188 calls)
     s_psi        :     16.42s CPU     16.73s WALL (    9188 calls)
     g_psi        :      0.28s CPU      0.28s WALL (    8132 calls)

     Called by h_psi:
     h_psi:calbec :     31.10s CPU     31.42s WALL (    9188 calls)
     vloc_psi     :    451.73s CPU    458.45s WALL (    9188 calls)
     add_vuspsi   :     18.13s CPU     18.39s WALL (    9188 calls)

     General routines
     calbec       :     41.00s CPU     41.41s WALL (   10516 calls)
     fft          :     19.22s CPU     19.49s WALL (   19214 calls)
     ffts         :      0.56s CPU      0.57s WALL (     535 calls)
     fftw         :    524.25s CPU    531.81s WALL (  954922 calls)
     interpolate  :      1.17s CPU      1.19s WALL (     273 calls)
 
     Parallel routines

     PAW routines
     PAW_pot      :     19.37s CPU     19.59s WALL (     283 calls)
     PAW_symme    :      0.38s CPU      0.39s WALL (     545 calls)
 
     PWSCF        :  23m14.74s CPU  23m41.52s WALL

 
   This run was terminated on:  16:49:33  20Feb2024            

=------------------------------------------------------------------------------=
   JOB DONE.
=------------------------------------------------------------------------------=
