
     Program PWSCF v.7.2 starts on 27Mar2024 at 22:22: 0 

     This program is part of the open-source Quantum ESPRESSO suite
     for quantum simulation of materials; please cite
         "P. Giannozzi et al., J. Phys.:Condens. Matter 21 395502 (2009);
         "P. Giannozzi et al., J. Phys.:Condens. Matter 29 465901 (2017);
         "P. Giannozzi et al., J. Chem. Phys. 152 154105 (2020);
          URL http://www.quantum-espresso.org", 
     in publications or presentations arising from this work. More details at
     http://www.quantum-espresso.org/quote

     Parallel version (MPI & OpenMP), running on      10 processor cores
     Number of MPI processes:                10
     Threads/MPI process:                     1

     MPI processes distributed on     2 nodes
     1968503 MiB available memory on the printing compute node when the environment starts
 
     Reading input from espresso.pwi
Warning: card &CELL ignored
Warning: card    CELL_DYNAMICS    = 'BFGS' ignored
Warning: card / ignored

     Current dimensions of program PWSCF are:
     Max number of different atomic species (ntypx) = 10
     Max number of k-points (npk) =  40000
     Max angular momentum in pseudopotentials (lmaxx) =  4
     file C.pbe-n-kjpaw_psl.1.0.0.UPF: wavefunction(s)  2S 2P renormalized

     **************************************************************************
     Initializing libbeef V0.1.2 with the BEEF-vdW functional.
     Citation: Wellendorff et al., PRB 85, 235149 (2012).
     **************************************************************************


     IMPORTANT: XC functional enforced from input :
     Exchange-correlation= BEEF-VDW
                           (   1   4  43  14   2   0   0)
     Any further DFT definition will be discarded
     Please, verify this is what you really want

 
     R & G space division:  proc/nbgrp/npool/nimage =      10
     Subspace diagonalization in iterative solution of the eigenvalue problem:
     a serial algorithm will be used

 
     Parallelization info
     --------------------
     sticks:   dense  smooth     PW     G-vecs:    dense   smooth      PW
     Min         127     100     29                 3404     2428     395
     Max         129     101     31                 3405     2431     398
     Sum        1273    1005    301                34049    24303    3959
 
     Using Slab Decomposition
 


     bravais-lattice index     =            1
     lattice parameter (alat)  =       6.7507  a.u.
     unit-cell volume          =     307.6390 (a.u.)^3
     number of atoms/cell      =            8
     number of atomic types    =            1
     number of electrons       =        32.00
     number of Kohn-Sham states=           20
     kinetic-energy cutoff     =      70.0000  Ry
     charge density cutoff     =     350.0000  Ry
     scf convergence threshold =      1.0E-07
     mixing beta               =       0.7000
     number of iterations used =            8  plain     mixing
     Exchange-correlation= BEEF-VDW
                           (   1   4  43  14   2   0   0)

     celldm(1)=   6.750674  celldm(2)=   0.000000  celldm(3)=   0.000000
     celldm(4)=   0.000000  celldm(5)=   0.000000  celldm(6)=   0.000000

     crystal axes: (cart. coord. in units of alat)
               a(1) = (   1.000000   0.000000   0.000000 )  
               a(2) = (   0.000000   1.000000   0.000000 )  
               a(3) = (   0.000000   0.000000   1.000000 )  

     reciprocal axes: (cart. coord. in units 2 pi/alat)
               b(1) = (  1.000000  0.000000  0.000000 )  
               b(2) = (  0.000000  1.000000  0.000000 )  
               b(3) = (  0.000000  0.000000  1.000000 )  


     PseudoPot. # 1 for C  read from file:
     /trace/group/acmegroup/atimmins/packages/espresso/pseudo/psl_1.0.0/pslibrary.1.0.0/pbe/PSEUDOPOTENTIALS/C.pbe-n-kjpaw_psl.1.0.0.UPF
     MD5 check sum: 5459cf7f2c8c37df2f7cde8914797f4d
     Pseudo is Projector augmented-wave + core cor, Zval =  4.0
     Generated using 'atomic' code by A. Dal Corso  v.7.1
     Shape of augmentation charge: PSQ
     Using radial grid of 1073 points,  4 beta functions with: 
                l(1) =   0
                l(2) =   0
                l(3) =   1
                l(4) =   1
     Q(r) pseudized with 0 coefficients 


     atomic species   valence    mass     pseudopotential
        C              4.00    12.01100     C ( 1.00)

     24 Sym. Ops. (no inversion) found


                                    s                        frac. trans.

      isym =  1     identity                                     

 cryst.   s( 1) = (     1          0          0      )
                  (     0          1          0      )
                  (     0          0          1      )

 cart.    s( 1) = (  1.0000000  0.0000000  0.0000000 )
                  (  0.0000000  1.0000000  0.0000000 )
                  (  0.0000000  0.0000000  1.0000000 )


      isym =  2     180 deg rotation - cart. axis [0,0,1]        

 cryst.   s( 2) = (    -1          0          0      )
                  (     0         -1          0      )
                  (     0          0          1      )

 cart.    s( 2) = ( -1.0000000  0.0000000  0.0000000 )
                  (  0.0000000 -1.0000000  0.0000000 )
                  (  0.0000000  0.0000000  1.0000000 )


      isym =  3     180 deg rotation - cart. axis [0,1,0]        

 cryst.   s( 3) = (    -1          0          0      )
                  (     0          1          0      )
                  (     0          0         -1      )

 cart.    s( 3) = ( -1.0000000  0.0000000  0.0000000 )
                  (  0.0000000  1.0000000  0.0000000 )
                  (  0.0000000  0.0000000 -1.0000000 )


      isym =  4     180 deg rotation - cart. axis [1,0,0]        

 cryst.   s( 4) = (     1          0          0      )
                  (     0         -1          0      )
                  (     0          0         -1      )

 cart.    s( 4) = (  1.0000000  0.0000000  0.0000000 )
                  (  0.0000000 -1.0000000  0.0000000 )
                  (  0.0000000  0.0000000 -1.0000000 )


      isym =  5     120 deg rotation - cart. axis [-1,-1,-1]     

 cryst.   s( 5) = (     0          0          1      )
                  (     1          0          0      )
                  (     0          1          0      )

 cart.    s( 5) = (  0.0000000  1.0000000  0.0000000 )
                  (  0.0000000  0.0000000  1.0000000 )
                  (  1.0000000  0.0000000  0.0000000 )


      isym =  6     120 deg rotation - cart. axis [-1,1,1]       

 cryst.   s( 6) = (     0          0         -1      )
                  (    -1          0          0      )
                  (     0          1          0      )

 cart.    s( 6) = (  0.0000000 -1.0000000  0.0000000 )
                  (  0.0000000  0.0000000  1.0000000 )
                  ( -1.0000000  0.0000000  0.0000000 )


      isym =  7     120 deg rotation - cart. axis [1,1,-1]       

 cryst.   s( 7) = (     0          0         -1      )
                  (     1          0          0      )
                  (     0         -1          0      )

 cart.    s( 7) = (  0.0000000  1.0000000  0.0000000 )
                  (  0.0000000  0.0000000 -1.0000000 )
                  ( -1.0000000  0.0000000  0.0000000 )


      isym =  8     120 deg rotation - cart. axis [1,-1,1]       

 cryst.   s( 8) = (     0          0          1      )
                  (    -1          0          0      )
                  (     0         -1          0      )

 cart.    s( 8) = (  0.0000000 -1.0000000  0.0000000 )
                  (  0.0000000  0.0000000 -1.0000000 )
                  (  1.0000000  0.0000000  0.0000000 )


      isym =  9     120 deg rotation - cart. axis [1,1,1]        

 cryst.   s( 9) = (     0          1          0      )
                  (     0          0          1      )
                  (     1          0          0      )

 cart.    s( 9) = (  0.0000000  0.0000000  1.0000000 )
                  (  1.0000000  0.0000000  0.0000000 )
                  (  0.0000000  1.0000000  0.0000000 )


      isym = 10     120 deg rotation - cart. axis [-1,1,-1]      

 cryst.   s(10) = (     0         -1          0      )
                  (     0          0         -1      )
                  (     1          0          0      )

 cart.    s(10) = (  0.0000000  0.0000000  1.0000000 )
                  ( -1.0000000  0.0000000  0.0000000 )
                  (  0.0000000 -1.0000000  0.0000000 )


      isym = 11     120 deg rotation - cart. axis [1,-1,-1]      

 cryst.   s(11) = (     0         -1          0      )
                  (     0          0          1      )
                  (    -1          0          0      )

 cart.    s(11) = (  0.0000000  0.0000000 -1.0000000 )
                  ( -1.0000000  0.0000000  0.0000000 )
                  (  0.0000000  1.0000000  0.0000000 )


      isym = 12     120 deg rotation - cart. axis [-1,-1,1]      

 cryst.   s(12) = (     0          1          0      )
                  (     0          0         -1      )
                  (    -1          0          0      )

 cart.    s(12) = (  0.0000000  0.0000000 -1.0000000 )
                  (  1.0000000  0.0000000  0.0000000 )
                  (  0.0000000 -1.0000000  0.0000000 )


      isym = 13     inv. 180 deg rotation - cart. axis [1,1,0]   

 cryst.   s(13) = (     0         -1          0      )
                  (    -1          0          0      )
                  (     0          0          1      )

 cart.    s(13) = (  0.0000000 -1.0000000  0.0000000 )
                  ( -1.0000000  0.0000000  0.0000000 )
                  (  0.0000000  0.0000000  1.0000000 )


      isym = 14     inv. 180 deg rotation - cart. axis [1,-1,0]  

 cryst.   s(14) = (     0          1          0      )
                  (     1          0          0      )
                  (     0          0          1      )

 cart.    s(14) = (  0.0000000  1.0000000  0.0000000 )
                  (  1.0000000  0.0000000  0.0000000 )
                  (  0.0000000  0.0000000  1.0000000 )


      isym = 15     inv.  90 deg rotation - cart. axis [0,0,-1]  

 cryst.   s(15) = (     0          1          0      )
                  (    -1          0          0      )
                  (     0          0         -1      )

 cart.    s(15) = (  0.0000000 -1.0000000  0.0000000 )
                  (  1.0000000  0.0000000  0.0000000 )
                  (  0.0000000  0.0000000 -1.0000000 )


      isym = 16     inv.  90 deg rotation - cart. axis [0,0,1]   

 cryst.   s(16) = (     0         -1          0      )
                  (     1          0          0      )
                  (     0          0         -1      )

 cart.    s(16) = (  0.0000000  1.0000000  0.0000000 )
                  ( -1.0000000  0.0000000  0.0000000 )
                  (  0.0000000  0.0000000 -1.0000000 )


      isym = 17     inv. 180 deg rotation - cart. axis [1,0,1]   

 cryst.   s(17) = (     0          0         -1      )
                  (     0          1          0      )
                  (    -1          0          0      )

 cart.    s(17) = (  0.0000000  0.0000000 -1.0000000 )
                  (  0.0000000  1.0000000  0.0000000 )
                  ( -1.0000000  0.0000000  0.0000000 )


      isym = 18     inv. 180 deg rotation - cart. axis [-1,0,1]  

 cryst.   s(18) = (     0          0          1      )
                  (     0          1          0      )
                  (     1          0          0      )

 cart.    s(18) = (  0.0000000  0.0000000  1.0000000 )
                  (  0.0000000  1.0000000  0.0000000 )
                  (  1.0000000  0.0000000  0.0000000 )


      isym = 19     inv.  90 deg rotation - cart. axis [0,1,0]   

 cryst.   s(19) = (     0          0          1      )
                  (     0         -1          0      )
                  (    -1          0          0      )

 cart.    s(19) = (  0.0000000  0.0000000 -1.0000000 )
                  (  0.0000000 -1.0000000  0.0000000 )
                  (  1.0000000  0.0000000  0.0000000 )


      isym = 20     inv.  90 deg rotation - cart. axis [0,-1,0]  

 cryst.   s(20) = (     0          0         -1      )
                  (     0         -1          0      )
                  (     1          0          0      )

 cart.    s(20) = (  0.0000000  0.0000000  1.0000000 )
                  (  0.0000000 -1.0000000  0.0000000 )
                  ( -1.0000000  0.0000000  0.0000000 )


      isym = 21     inv. 180 deg rotation - cart. axis [0,1,1]   

 cryst.   s(21) = (     1          0          0      )
                  (     0          0         -1      )
                  (     0         -1          0      )

 cart.    s(21) = (  1.0000000  0.0000000  0.0000000 )
                  (  0.0000000  0.0000000 -1.0000000 )
                  (  0.0000000 -1.0000000  0.0000000 )


      isym = 22     inv. 180 deg rotation - cart. axis [0,1,-1]  

 cryst.   s(22) = (     1          0          0      )
                  (     0          0          1      )
                  (     0          1          0      )

 cart.    s(22) = (  1.0000000  0.0000000  0.0000000 )
                  (  0.0000000  0.0000000  1.0000000 )
                  (  0.0000000  1.0000000  0.0000000 )


      isym = 23     inv.  90 deg rotation - cart. axis [-1,0,0]  

 cryst.   s(23) = (    -1          0          0      )
                  (     0          0          1      )
                  (     0         -1          0      )

 cart.    s(23) = ( -1.0000000  0.0000000  0.0000000 )
                  (  0.0000000  0.0000000 -1.0000000 )
                  (  0.0000000  1.0000000  0.0000000 )


      isym = 24     inv.  90 deg rotation - cart. axis [1,0,0]   

 cryst.   s(24) = (    -1          0          0      )
                  (     0          0         -1      )
                  (     0          1          0      )

 cart.    s(24) = ( -1.0000000  0.0000000  0.0000000 )
                  (  0.0000000  0.0000000  1.0000000 )
                  (  0.0000000 -1.0000000  0.0000000 )


     point group T_d (-43m) 
     there are  5 classes
     the character table:

       E     8C3   3C2   6S4   6s_d 
A_1    1.00  1.00  1.00  1.00  1.00
A_2    1.00  1.00  1.00 -1.00 -1.00
E      2.00 -1.00  2.00  0.00  0.00
T_1    3.00  0.00 -1.00  1.00 -1.00
T_2    3.00  0.00 -1.00 -1.00  1.00

     the symmetry operations in each class and the name of the first element:

     E        1
          identity                                               
     8C3      5    7    8    6   12    9   10   11
          120 deg rotation - cart. axis [-1,-1,-1]               
     3C2      2    3    4
          180 deg rotation - cart. axis [0,0,1]                  
     6S4     15   16   20   19   23   24
          inv.  90 deg rotation - cart. axis [0,0,-1]            
     6s_d    13   14   17   18   21   22
          inv. 180 deg rotation - cart. axis [1,1,0]             

   Cartesian axes

     site n.     atom                  positions (alat units)
         1           C   tau(   1) = (   0.2500061   0.7499939   0.2500061  )
         2           C   tau(   2) = (   0.0000000   0.0000000   0.5000000  )
         3           C   tau(   3) = (   0.2500061   0.2500061   0.7499939  )
         4           C   tau(   4) = (   0.0000000   0.5000000   0.0000000  )
         5           C   tau(   5) = (   0.7499939   0.7499939   0.7499939  )
         6           C   tau(   6) = (   0.5000000   0.0000000   0.0000000  )
         7           C   tau(   7) = (   0.7499939   0.2500061   0.2500061  )
         8           C   tau(   8) = (   0.5000000   0.5000000   0.5000000  )

   Crystallographic axes

     site n.     atom                  positions (cryst. coord.)
         1           C   tau(   1) = (  0.2500061  0.7499939  0.2500061  )
         2           C   tau(   2) = (  0.0000000  0.0000000  0.5000000  )
         3           C   tau(   3) = (  0.2500061  0.2500061  0.7499939  )
         4           C   tau(   4) = (  0.0000000  0.5000000  0.0000000  )
         5           C   tau(   5) = (  0.7499939  0.7499939  0.7499939  )
         6           C   tau(   6) = (  0.5000000  0.0000000  0.0000000  )
         7           C   tau(   7) = (  0.7499939  0.2500061  0.2500061  )
         8           C   tau(   8) = (  0.5000000  0.5000000  0.5000000  )

     number of k points=    10  Gaussian smearing, width (Ry)=  0.0100
                       cart. coord. in units 2pi/alat
        k(    1) = (   0.0000000   0.0000000   0.0000000), wk =   0.0312500
        k(    2) = (   0.0000000   0.0000000   0.2500000), wk =   0.1875000
        k(    3) = (   0.0000000   0.0000000  -0.5000000), wk =   0.0937500
        k(    4) = (   0.0000000   0.2500000   0.2500000), wk =   0.3750000
        k(    5) = (   0.0000000   0.2500000  -0.5000000), wk =   0.3750000
        k(    6) = (   0.0000000  -0.5000000  -0.5000000), wk =   0.0937500
        k(    7) = (   0.2500000   0.2500000   0.2500000), wk =   0.2500000
        k(    8) = (   0.2500000   0.2500000  -0.5000000), wk =   0.3750000
        k(    9) = (   0.2500000  -0.5000000  -0.5000000), wk =   0.1875000
        k(   10) = (  -0.5000000  -0.5000000  -0.5000000), wk =   0.0312500

                       cryst. coord.
        k(    1) = (   0.0000000   0.0000000   0.0000000), wk =   0.0312500
        k(    2) = (   0.0000000   0.0000000   0.2500000), wk =   0.1875000
        k(    3) = (   0.0000000   0.0000000  -0.5000000), wk =   0.0937500
        k(    4) = (   0.0000000   0.2500000   0.2500000), wk =   0.3750000
        k(    5) = (   0.0000000   0.2500000  -0.5000000), wk =   0.3750000
        k(    6) = (   0.0000000  -0.5000000  -0.5000000), wk =   0.0937500
        k(    7) = (   0.2500000   0.2500000   0.2500000), wk =   0.2500000
        k(    8) = (   0.2500000   0.2500000  -0.5000000), wk =   0.3750000
        k(    9) = (   0.2500000  -0.5000000  -0.5000000), wk =   0.1875000
        k(   10) = (  -0.5000000  -0.5000000  -0.5000000), wk =   0.0312500

     Dense  grid:    34049 G-vectors     FFT dimensions: (  45,  45,  45)

     Smooth grid:    24303 G-vectors     FFT dimensions: (  36,  36,  36)

     Dynamical RAM for                 wfc:       0.09 MB

     Dynamical RAM for     wfc (w. buffer):       1.02 MB

     Dynamical RAM for           str. fact:       0.05 MB

     Dynamical RAM for           local pot:       0.00 MB

     Dynamical RAM for          nlocal pot:       0.30 MB

     Dynamical RAM for                qrad:       0.43 MB

     Dynamical RAM for          rho,v,vnew:       0.39 MB

     Dynamical RAM for               rhoin:       0.13 MB

     Dynamical RAM for            rho*nmix:       0.83 MB

     Dynamical RAM for           G-vectors:       0.21 MB

     Dynamical RAM for          h,s,v(r/c):       0.29 MB

     Dynamical RAM for          <psi|beta>:       0.02 MB

     Dynamical RAM for                 psi:       0.37 MB

     Dynamical RAM for                hpsi:       0.37 MB

     Dynamical RAM for                spsi:       0.37 MB

     Dynamical RAM for      wfcinit/wfcrot:       0.19 MB

     Dynamical RAM for           addusdens:       2.65 MB

     Dynamical RAM for          addusforce:       3.41 MB

     Dynamical RAM for         addusstress:       2.60 MB

     Estimated static dynamical RAM per process >       3.02 MB

     Estimated max dynamical RAM per process >       7.26 MB

     Estimated total dynamical RAM >      72.60 MB

     Atomic positions and unit cell read from directory:
     ./diamond.save/
 

     Check: negative core charge=   -0.000014

     The initial density is read from file :
     ./diamond.save/charge-density



     %%%%%%%%%%%%%%%%%%%%%%%%%%%%%%%%%%%%%%%%%%%%%%%%%%%%%%%%%%%%%%%%%%%%%%%%
     %                                                                      %
     % You are using vdW-DF, which was implemented by the Thonhauser group. %
     % Please cite the following two papers that made this development      %
     % possible and the two reviews that describe the various versions:     %
     %                                                                      %
     %   T. Thonhauser et al., PRL 115, 136402 (2015).                      %
     %   T. Thonhauser et al., PRB 76, 125112 (2007).                       %
     %   K. Berland et al., Rep. Prog. Phys. 78, 066501 (2015).             %
     %   D.C. Langreth et al., J. Phys.: Condens. Matter 21, 084203 (2009). %
     %                                                                      %
     % If you are calculating stress with vdW-DF, please also cite:         %
     %                                                                      %
     %   R. Sabatini et al., J. Phys.: Condens. Matter 24, 424209 (2012).   %
     %                                                                      %
     %%%%%%%%%%%%%%%%%%%%%%%%%%%%%%%%%%%%%%%%%%%%%%%%%%%%%%%%%%%%%%%%%%%%%%%%

     %%%%%%%%%%%%%%%%%%%%%%%%%%%%%%%%%%%%%%%%%%%%%%%%%%%%%%%%%%%%%%%%%%%%%%%%
     %                                                                      %
     %  vdW-DF NEWS:                                                        %
     %                                                                      %
     %  * vdW-DF3 is now available. DOI: 10.1021/acs.jctc.0c00471           %
     %    use with input_dft = 'vdW-DF3-opt1' or 'vdW-DF3-opt2'             %
     %                                                                      %
     %  * Unscreened and range-separated hybrid vdW-DF-cx functionals       %
     %    DOI: 10.1063/1.4986522 and 10.1088/1361-648X/ac2ad2               %
     %    use with input_dft = 'vdW-DF-cx0'    and 'vdW-DF-ahcx'            %
     %  * Unscreened and range-separated hybrid vdW-DF2-b86r functionals    %
     %    DOI: 10.1063/1.4986522 and DOI: 10.1103/PhysRevX.12.041003        %
     %    use with input_dft = 'vdW-DF2-br0' and 'vdW-DF2-ahbr'             %
     %                                                                      %
     %%%%%%%%%%%%%%%%%%%%%%%%%%%%%%%%%%%%%%%%%%%%%%%%%%%%%%%%%%%%%%%%%%%%%%%%


     Carrying out vdW-DF run using the following parameters:
     Nqs    =  20  Npoints =  1024  r_max =  100.000
     q_mesh =  0.00001000  0.04494208  0.09755937  0.15916263
               0.23128650  0.31572767  0.41458969  0.53033537
               0.66584808  0.82450364  1.01025438  1.22772762
               1.48234092  1.78043706  2.12944203  2.53805004
               3.01644009  3.57652955  4.23227104  5.00000000


     -----------------------------------------------
     Non-local corr. energy    =       0.27348373 Ry
     -----------------------------------------------

     Starting wfcs from file
     Checking if some PAW data can be deallocated... 

     total cpu time spent up to now is        2.7 secs

     Self-consistent Calculation

     iteration #  1     ecut=    70.00 Ry     beta= 0.70
     Davidson diagonalization with overlap

---- Real-time Memory Report at c_bands before calling an iterative solver
           214 MiB given to the printing process from OS
             0 MiB allocation reported by mallinfo(arena+hblkhd)
       1968907 MiB available memory on the node where the printing process lives
------------------
     ethr =  1.00E-05,  avg # of iterations =  1.6

     Threshold (ethr) on eigenvalues was too large:
     Diagonalizing with lowered threshold

     Davidson diagonalization with overlap

---- Real-time Memory Report at c_bands before calling an iterative solver
           219 MiB given to the printing process from OS
             0 MiB allocation reported by mallinfo(arena+hblkhd)
       1968722 MiB available memory on the node where the printing process lives
------------------
     c_bands:  1 eigenvalues not converged
     c_bands:  1 eigenvalues not converged
     c_bands:  4 eigenvalues not converged
     ethr =  3.40E-11,  avg # of iterations = 10.1


     -----------------------------------------------
     Non-local corr. energy    =       0.27348990 Ry
     -----------------------------------------------


     total cpu time spent up to now is        3.2 secs

     End of self-consistent calculation

          k = 0.0000 0.0000 0.0000 (  2969 PWs)   bands (ev):

    -8.4621   0.1814   0.1819   0.1819   0.1819   0.1821   0.1821   6.7175
     6.7175   6.7175   6.7176   6.7176   6.7176  12.9574  12.9574  12.9574
    17.9335  17.9335  17.9338  17.9338

     occupation numbers 
     1.0000   1.0000   1.0000   1.0000   1.0000   1.0000   1.0000   1.0000
     1.0000   1.0000   1.0000   1.0000   1.0000   1.0000   1.0000   1.0000
     0.0000   0.0000   0.0000   0.0000

          k = 0.0000 0.0000 0.2500 (  3042 PWs)   bands (ev):

    -7.8901  -3.4457   0.5018   0.5021   0.5021   0.5024   4.3291   5.7414
     5.7414   5.7414   5.7415   7.2732   7.2732  11.2565  11.2565  11.6070
    17.2642  18.2302  19.9325  20.0201

     occupation numbers 
     1.0000   1.0000   1.0000   1.0000   1.0000   1.0000   1.0000   1.0000
     1.0000   1.0000   1.0000   1.0000   1.0000   1.0000   1.0000   1.0000
     0.0000   0.0000   0.0000   0.0000

          k = 0.0000 0.0000-0.5000 (  3026 PWs)   bands (ev):

    -6.1939  -6.1935   0.9215   0.9218   0.9218   0.9222   4.7807   4.7808
     4.7808   4.7809   8.3880   8.3884   8.8797   8.8797   8.8803   8.8803
    17.5320  17.5321  23.3982  23.3984

     occupation numbers 
     1.0000   1.0000   1.0000   1.0000   1.0000   1.0000   1.0000   1.0000
     1.0000   1.0000   1.0000   1.0000   1.0000   1.0000   1.0000   1.0000
     0.0000   0.0000   0.0000   0.0000

          k = 0.0000 0.2500 0.2500 (  3031 PWs)   bands (ev):

    -7.3223  -2.9460  -2.9458  -0.0857   1.2138   3.8071   3.8954   3.8956
     6.0484   6.0488   7.0992   7.0995   7.6424   8.9741   9.7523  12.2007
    18.8414  19.4262  19.4263  19.7758

     occupation numbers 
     1.0000   1.0000   1.0000   1.0000   1.0000   1.0000   1.0000   1.0000
     1.0000   1.0000   1.0000   1.0000   1.0000   1.0000   1.0000   1.0000
     0.0000   0.0000   0.0000   0.0000

          k = 0.0000 0.2500-0.5000 (  3016 PWs)   bands (ev):

    -5.6433  -5.6428  -1.5778  -1.5774   2.5268   2.5269   4.2204   4.2204
     6.4352   6.4354   7.5244   7.5244   7.5520   7.5523  10.0862  10.0865
    19.6334  19.6334  21.5143  21.5148

     occupation numbers 
     1.0000   1.0000   1.0000   1.0000   1.0000   1.0000   1.0000   1.0000
     1.0000   1.0000   1.0000   1.0000   1.0000   1.0000   1.0000   1.0000
     0.0000   0.0000   0.0000   0.0000

          k = 0.0000-0.5000-0.5000 (  3048 PWs)   bands (ev):

    -4.0355  -4.0348  -4.0348  -4.0346   4.2491   4.2493   4.2494   4.2494
     5.4479   5.4479   5.4482   5.4483   9.9674   9.9674   9.9675   9.9682
    21.0177  21.0184  21.0184  21.0187

     occupation numbers 
     1.0000   1.0000   1.0000   1.0000   1.0000   1.0000   1.0000   1.0000
     1.0000   1.0000   1.0000   1.0000   1.0000   1.0000   1.0000   1.0000
     0.0000   0.0000   0.0000   0.0000

          k = 0.2500 0.2500 0.2500 (  3058 PWs)   bands (ev):

    -6.7598  -2.5032  -2.5028  -2.5028   2.2073   2.2073   2.2074   6.2683
     6.2686   6.2686   6.4004   8.1253   8.1253   8.1253  11.2248  11.2248
    19.2164  19.2164  19.2168  20.8186

     occupation numbers 
     1.0000   1.0000   1.0000   1.0000   1.0000   1.0000   1.0000   1.0000
     1.0000   1.0000   1.0000   1.0000   1.0000   1.0000   1.0000   1.0000
     0.0000   0.0000   0.0000   0.0000

          k = 0.2500 0.2500-0.5000 (  3050 PWs)   bands (ev):

    -5.1041  -5.1037  -1.7877  -1.7873   0.7020   0.7022   3.8870   3.8874
     6.6726   6.6730   8.3262   8.3264   9.4664   9.4670   9.7661   9.7664
    20.0785  20.0787  21.4615  21.4622

     occupation numbers 
     1.0000   1.0000   1.0000   1.0000   1.0000   1.0000   1.0000   1.0000
     1.0000   1.0000   1.0000   1.0000   1.0000   1.0000   1.0000   1.0000
     0.0000   0.0000   0.0000   0.0000

          k = 0.2500-0.5000-0.5000 (  3060 PWs)   bands (ev):

    -3.5698  -3.5691  -3.5691  -3.5689   1.4835   1.4838   1.4838   1.4843
     8.4026   8.4028   8.4028   8.4034  10.0668  10.0668  10.0669  10.0676
    21.2743  21.2749  21.2749  21.2752

     occupation numbers 
     1.0000   1.0000   1.0000   1.0000   1.0000   1.0000   1.0000   1.0000
     1.0000   1.0000   1.0000   1.0000   1.0000   1.0000   1.0000   1.0000
     0.0000   0.0000   0.0000   0.0000

          k =-0.5000-0.5000-0.5000 (  3112 PWs)   bands (ev):

    -2.7978  -2.7970  -2.7970  -2.7970  -0.2751  -0.2751  -0.2751  -0.2747
    10.1708  10.1708  10.1708  10.1710  10.1710  10.1710  10.1716  10.1716
    21.5280  21.5283  21.5285  21.5286

     occupation numbers 
     1.0000   1.0000   1.0000   1.0000   1.0000   1.0000   1.0000   1.0000
     1.0000   1.0000   1.0000   1.0000   1.0000   1.0000   1.0000   1.0000
     0.0000   0.0000   0.0000   0.0000

     the Fermi energy is    16.1135 ev

!    total energy              =    -151.94218855 Ry
     total all-electron energy =      -614.054965 Ry
     estimated scf accuracy    <       0.00000002 Ry
     smearing contrib. (-TS)   =      -0.00000000 Ry
     internal energy E=F+TS    =    -151.94218855 Ry

     The total energy is F=E-TS. E is the sum of the following terms:
     one-electron contribution =      33.58036824 Ry
     hartree contribution      =       7.95041268 Ry
     xc contribution           =     -39.00435217 Ry
     ewald contribution        =    -102.13945302 Ry
     one-center paw contrib.   =     -52.32916429 Ry
      -> PAW hartree energy AE =       8.97854519 Ry
      -> PAW hartree energy PS =      -8.97023569 Ry
      -> PAW xc energy AE      =     -11.11065420 Ry
      -> PAW xc energy PS      =       4.56119847 Ry
      -> total E_H with PAW    =       7.95872219 Ry
      -> total E_XC with PAW   =     -45.55380790 Ry

     convergence has been achieved in   1 iterations


     -----------------------------------------------
     Non-local corr. energy    =       0.27348990 Ry
     -----------------------------------------------


     Forces acting on atoms (cartesian axes, Ry/au):

     atom    1 type  1   force =     0.00003555   -0.00003555    0.00003555
     atom    2 type  1   force =     0.00000000    0.00000000    0.00000000
     atom    3 type  1   force =     0.00003555    0.00003555   -0.00003555
     atom    4 type  1   force =     0.00000000    0.00000000    0.00000000
     atom    5 type  1   force =    -0.00003555   -0.00003555   -0.00003555
     atom    6 type  1   force =     0.00000000    0.00000000    0.00000000
     atom    7 type  1   force =    -0.00003555    0.00003555    0.00003555
     atom    8 type  1   force =     0.00000000    0.00000000    0.00000000
     The non-local contrib.  to forces
     atom    1 type  1   force =     0.00012229   -0.00012229    0.00012229
     atom    2 type  1   force =     0.00000000    0.00000000    0.00000000
     atom    3 type  1   force =     0.00012229    0.00012229   -0.00012229
     atom    4 type  1   force =     0.00000000    0.00000000    0.00000000
     atom    5 type  1   force =    -0.00012229   -0.00012229   -0.00012229
     atom    6 type  1   force =     0.00000000    0.00000000    0.00000000
     atom    7 type  1   force =    -0.00012229    0.00012229    0.00012229
     atom    8 type  1   force =     0.00000000    0.00000000    0.00000000
     The ionic contribution  to forces
     atom    1 type  1   force =    -0.00021943    0.00021946   -0.00021943
     atom    2 type  1   force =    -0.00000006   -0.00000006    0.00000003
     atom    3 type  1   force =    -0.00021943   -0.00021943    0.00021946
     atom    4 type  1   force =    -0.00000006    0.00000003   -0.00000006
     atom    5 type  1   force =     0.00021946    0.00021946    0.00021946
     atom    6 type  1   force =     0.00000003   -0.00000006   -0.00000006
     atom    7 type  1   force =     0.00021946   -0.00021943   -0.00021943
     atom    8 type  1   force =     0.00000003    0.00000003    0.00000003
     The local contribution  to forces
     atom    1 type  1   force =     0.00010557   -0.00010542    0.00010557
     atom    2 type  1   force =     0.00000000   -0.00000000    0.00000008
     atom    3 type  1   force =     0.00010557    0.00010557   -0.00010542
     atom    4 type  1   force =    -0.00000000    0.00000008    0.00000000
     atom    5 type  1   force =    -0.00010542   -0.00010542   -0.00010542
     atom    6 type  1   force =     0.00000008    0.00000000    0.00000000
     atom    7 type  1   force =    -0.00010542    0.00010557    0.00010557
     atom    8 type  1   force =     0.00000008    0.00000008    0.00000008
     The core correction contribution to forces
     atom    1 type  1   force =     0.00010815   -0.00010815    0.00010815
     atom    2 type  1   force =    -0.00000000   -0.00000000   -0.00000000
     atom    3 type  1   force =     0.00010815    0.00010815   -0.00010815
     atom    4 type  1   force =    -0.00000000   -0.00000000   -0.00000000
     atom    5 type  1   force =    -0.00010815   -0.00010815   -0.00010815
     atom    6 type  1   force =    -0.00000000   -0.00000000   -0.00000000
     atom    7 type  1   force =    -0.00010815    0.00010815    0.00010815
     atom    8 type  1   force =    -0.00000000   -0.00000000   -0.00000000
     The Hubbard contrib.    to forces
     atom    1 type  1   force =     0.00000000    0.00000000    0.00000000
     atom    2 type  1   force =     0.00000000    0.00000000    0.00000000
     atom    3 type  1   force =     0.00000000    0.00000000    0.00000000
     atom    4 type  1   force =     0.00000000    0.00000000    0.00000000
     atom    5 type  1   force =     0.00000000    0.00000000    0.00000000
     atom    6 type  1   force =     0.00000000    0.00000000    0.00000000
     atom    7 type  1   force =     0.00000000    0.00000000    0.00000000
     atom    8 type  1   force =     0.00000000    0.00000000    0.00000000
     The SCF correction term to forces
     atom    1 type  1   force =    -0.00008093    0.00008093   -0.00008093
     atom    2 type  1   force =    -0.00000000   -0.00000000   -0.00000000
     atom    3 type  1   force =    -0.00008093   -0.00008093    0.00008093
     atom    4 type  1   force =    -0.00000000   -0.00000000   -0.00000000
     atom    5 type  1   force =     0.00008093    0.00008093    0.00008093
     atom    6 type  1   force =    -0.00000000   -0.00000000   -0.00000000
     atom    7 type  1   force =     0.00008093   -0.00008093   -0.00008093
     atom    8 type  1   force =    -0.00000000   -0.00000000   -0.00000000

     Total force =     0.000123     Total SCF correction =     0.000280
     SCF correction compared to forces is large: reduce conv_thr to get better values


     Computing stress (Cartesian axis) and pressure



     -----------------------------------------------
     Non-local corr. energy    =       0.27348990 Ry
     -----------------------------------------------

          total   stress  (Ry/bohr**3)                   (kbar)     P=        0.02
   0.00000013   0.00000000   0.00000000            0.02        0.00        0.00
   0.00000000   0.00000013   0.00000000            0.00        0.02        0.00
   0.00000000   0.00000000   0.00000013            0.00        0.00        0.02

     kinetic stress (kbar)  18999.88      0.00      0.00
                                0.00  18999.88      0.00
                                0.00      0.00  18999.88

     local   stress (kbar)  -3484.16     -0.00     -0.00
                               -0.00  -3484.16     -0.00
                               -0.00     -0.00  -3484.16

     nonloc. stress (kbar)   4322.10      0.00      0.00
                                0.00   4322.10      0.00
                                0.00      0.00   4322.10

     hartree stress (kbar)   1267.23      0.00      0.00
                                0.00   1267.23     -0.00
                                0.00     -0.00   1267.23

     exc-cor stress (kbar)   -414.49      0.00      0.00
                                0.00   -414.49      0.00
                                0.00      0.00   -414.49

     corecor stress (kbar)  -4435.20     -0.00     -0.00
                               -0.00  -4435.20     -0.00
                               -0.00     -0.00  -4435.20

     ewald   stress (kbar) -16280.16      0.00      0.00
                                0.00 -16280.16      0.00
                                0.00      0.00 -16280.16

     hubbard stress (kbar)      0.00      0.00      0.00
                                0.00      0.00      0.00
                                0.00      0.00      0.00

     DFT-D   stress (kbar)      0.00      0.00      0.00
                                0.00      0.00      0.00
                                0.00      0.00      0.00

     XDM     stress (kbar)      0.00      0.00      0.00
                                0.00      0.00      0.00
                                0.00      0.00      0.00

     dft-nl  stress (kbar)     24.82     -0.00     -0.00
                               -0.00     24.82     -0.00
                               -0.00     -0.00     24.82

     TS-vdW  stress (kbar)      0.00      0.00      0.00
                                0.00      0.00      0.00
                                0.00      0.00      0.00

     MDB     stress (kbar)      0.00      0.00      0.00
                                0.00      0.00      0.00
                                0.00      0.00      0.00

     3D-RISM stress (kbar)      0.00      0.00      0.00
                                0.00      0.00      0.00
                                0.00      0.00      0.00



     -----------------------------------------------
     Non-local corr. energy    =       0.27348990 Ry
     -----------------------------------------------



     -----------------------------------------------
     Non-local corr. energy    =       0.27348990 Ry
     -----------------------------------------------



     -----------------------------------------------
     Non-local corr. energy    =       0.27348990 Ry
     -----------------------------------------------



     -----------------------------------------------
     Non-local corr. energy    =       0.27348990 Ry
     -----------------------------------------------



     -----------------------------------------------
     Non-local corr. energy    =       0.27348990 Ry
     -----------------------------------------------



     -----------------------------------------------
     Non-local corr. energy    =       0.27348990 Ry
     -----------------------------------------------



     -----------------------------------------------
     Non-local corr. energy    =       0.27348990 Ry
     -----------------------------------------------



     -----------------------------------------------
     Non-local corr. energy    =       0.27348990 Ry
     -----------------------------------------------



     -----------------------------------------------
     Non-local corr. energy    =       0.27348990 Ry
     -----------------------------------------------



     -----------------------------------------------
     Non-local corr. energy    =       0.27348990 Ry
     -----------------------------------------------



     -----------------------------------------------
     Non-local corr. energy    =       0.27348990 Ry
     -----------------------------------------------



     -----------------------------------------------
     Non-local corr. energy    =       0.27348990 Ry
     -----------------------------------------------



     -----------------------------------------------
     Non-local corr. energy    =       0.27348990 Ry
     -----------------------------------------------



     -----------------------------------------------
     Non-local corr. energy    =       0.27348990 Ry
     -----------------------------------------------



     -----------------------------------------------
     Non-local corr. energy    =       0.27348990 Ry
     -----------------------------------------------



     -----------------------------------------------
     Non-local corr. energy    =       0.27348990 Ry
     -----------------------------------------------



     -----------------------------------------------
     Non-local corr. energy    =       0.27348990 Ry
     -----------------------------------------------



     -----------------------------------------------
     Non-local corr. energy    =       0.27348990 Ry
     -----------------------------------------------



     -----------------------------------------------
     Non-local corr. energy    =       0.27348990 Ry
     -----------------------------------------------



     -----------------------------------------------
     Non-local corr. energy    =       0.27348990 Ry
     -----------------------------------------------



     -----------------------------------------------
     Non-local corr. energy    =       0.27348990 Ry
     -----------------------------------------------



     -----------------------------------------------
     Non-local corr. energy    =       0.27348990 Ry
     -----------------------------------------------



     -----------------------------------------------
     Non-local corr. energy    =       0.27348990 Ry
     -----------------------------------------------



     -----------------------------------------------
     Non-local corr. energy    =       0.27348990 Ry
     -----------------------------------------------



     -----------------------------------------------
     Non-local corr. energy    =       0.27348990 Ry
     -----------------------------------------------



     -----------------------------------------------
     Non-local corr. energy    =       0.27348990 Ry
     -----------------------------------------------



     -----------------------------------------------
     Non-local corr. energy    =       0.27348990 Ry
     -----------------------------------------------



     -----------------------------------------------
     Non-local corr. energy    =       0.27348990 Ry
     -----------------------------------------------



     -----------------------------------------------
     Non-local corr. energy    =       0.27348990 Ry
     -----------------------------------------------



     -----------------------------------------------
     Non-local corr. energy    =       0.27348990 Ry
     -----------------------------------------------



     -----------------------------------------------
     Non-local corr. energy    =       0.27348990 Ry
     -----------------------------------------------



     -----------------------------------------------
     Non-local corr. energy    =       0.27348990 Ry
     -----------------------------------------------



     -----------------------------------------------
     Non-local corr. energy    =       0.27348990 Ry
     -----------------------------------------------



     -----------------------------------------------
     Non-local corr. energy    =       0.27348990 Ry
     -----------------------------------------------

 BEEFens 2000 ensemble energies
             -0.284277145174810E+01
             -0.190856120626291E+00
             -0.642178229890465E+00
              0.195842261662792E+01
             -0.860850798599477E+00
             -0.733491242845677E+00
             -0.197812878649460E+01
             -0.426318536442096E+01
             -0.158642086607118E+01
             -0.165561810963244E+01
             -0.170237045931410E+01
              0.236707205187030E+00
              0.247807017442074E+00
             -0.211449033478649E+00
              0.187945332348500E+00
              0.209896377118717E+01
             -0.847237097157917E+00
             -0.551210364914605E+00
              0.107420472019397E+01
             -0.485835744845167E+01
              0.254256152351745E+01
             -0.885697025279068E+00
             -0.261002207917171E+00
             -0.345415037673773E+00
             -0.189541948877192E-02
             -0.259845556694769E+00
              0.381712117949466E+01
             -0.102668425302629E+01
             -0.397209878602865E+00
             -0.254784745952836E+01
              0.309188866848491E+01
             -0.287410643398852E+00
             -0.185099780864769E+01
              0.886273071118593E+00
             -0.102584464231086E+00
              0.126484733174237E+01
              0.103178043010468E+00
              0.603521295364828E-02
              0.162596166793158E+01
             -0.442493015563913E+01
              0.234659093355956E+01
              0.567228201427763E+00
             -0.452793600436220E+00
             -0.143139488175502E+01
              0.509885484216705E+00
             -0.742637330870451E+00
              0.221931114962568E+01
              0.154149300737516E+01
             -0.853353041760229E+00
             -0.146446016978339E+01
             -0.141993529338479E+01
             -0.157685701477308E+01
              0.839830643713810E+00
             -0.234985865044024E+01
              0.684802031747658E+00
              0.270654238848392E+01
              0.331354781374631E+01
              0.134308362391530E+01
              0.703776247115437E+00
              0.138631249471690E+01
              0.389111666418368E+01
              0.763124672265999E+00
             -0.241064094901453E+01
             -0.397496429802580E+00
             -0.123085702824879E+01
              0.283102646517496E+01
             -0.314802324762475E+01
             -0.259828469671169E+01
             -0.137722182809656E+01
             -0.703021995876867E+00
             -0.185012676826214E+01
              0.116122546013921E+01
              0.503713355465241E+00
              0.708484117250851E+00
             -0.160349215351510E+01
             -0.160218658350690E+01
             -0.260547739189996E+01
              0.144182341478070E+01
             -0.149055886608007E+01
              0.126978141249960E+01
             -0.291328477391490E+00
             -0.124611555519678E+01
             -0.230911029345202E+01
             -0.758089213078204E+00
             -0.773591719220228E+00
             -0.689482839982841E+00
              0.162156215170029E+01
              0.336864649530311E+01
             -0.201903810194123E+01
             -0.357981518959246E+01
             -0.816048220028327E+00
              0.480910661489428E+01
             -0.239323537035249E+01
              0.139050199893742E+01
             -0.612004996159889E+00
             -0.261595483952491E+01
              0.116454028838497E+01
              0.136896481875030E+01
             -0.731120335913163E+00
              0.130378575503677E+01
             -0.111142947178663E+01
             -0.267897930602626E+01
              0.438977163734083E+01
              0.210306879022687E+01
              0.946083186781340E+00
              0.683773520326685E+00
              0.112092501411911E+01
              0.362378002781659E+01
             -0.106229957345474E+01
              0.118932003483532E+00
             -0.611323043891660E+01
              0.728975103387999E+00
             -0.296180959295700E+01
              0.531258439136650E+00
              0.945088963334459E+00
             -0.166685477207173E+01
             -0.220594935881908E+01
              0.179866217615235E+00
             -0.133953539341996E+01
              0.194806971233203E+01
             -0.206322882376070E+01
             -0.311537475656010E+00
             -0.167952892476876E+01
             -0.247292425916125E+00
              0.226251336490757E+00
              0.101457968654169E+01
             -0.152177157732893E-01
             -0.234825183217396E+00
              0.287768053880485E+01
              0.403948055203868E+01
              0.218900410245394E+01
              0.294140236036266E+01
             -0.499721299520405E+00
              0.536943559228220E+00
              0.225550611290420E+01
              0.162441730673709E+00
             -0.325834907765249E+01
             -0.185470093332812E+01
             -0.211015646774730E+01
             -0.125189135053106E+01
              0.114388178535474E+01
             -0.540124435452509E+01
             -0.562511692344893E+00
              0.212203734033941E+01
             -0.173822144169110E+01
             -0.128268342366480E+01
              0.258656406485340E+01
              0.207015326982398E+01
             -0.120529063010610E+01
              0.132648068557135E+01
             -0.104684875310860E+01
              0.162551751619106E+01
              0.303369076036164E+00
              0.514406452154462E+00
             -0.356886302810604E+01
             -0.208311038310773E+01
             -0.285233628936133E+00
              0.538473642608492E-01
             -0.185900802171508E+01
              0.486948855180039E+01
             -0.562453644862078E+00
             -0.117167762079666E+01
              0.174401927065443E+01
             -0.203079137500264E+01
             -0.168971478005679E+01
              0.148882206358617E+01
              0.595676014222580E+00
              0.485576206363458E+00
              0.725401825140618E+00
             -0.490648826788540E+00
              0.463889149226183E+00
              0.255958316142728E+01
             -0.120273143556143E+01
              0.100049763036149E+01
              0.386533249193630E+01
              0.140561082579108E+01
             -0.213393687667711E+00
             -0.969244364703574E+00
              0.688387911168670E+01
             -0.106725481685996E+01
              0.167124577591785E+01
              0.130196912300956E+01
              0.126384862496357E+01
              0.408322827183321E+01
              0.214624121829393E+01
             -0.307822307015466E+00
              0.115704941365279E+01
              0.231535159487006E+01
              0.176436602341356E+01
             -0.260944756380466E+01
              0.411029915424993E+01
             -0.360363370145046E+01
             -0.529545845235005E+00
              0.251612888949722E+01
              0.741565281891835E+00
              0.387668186134249E+00
              0.123339921155228E+01
              0.739868111091015E+00
              0.146824612791546E+01
             -0.283025163230126E+01
              0.163997347061979E+00
             -0.105535377747485E+01
             -0.380941666948838E+00
             -0.188275927575006E+00
             -0.535014117248577E+00
             -0.256833386454614E+00
              0.356991727146015E+01
             -0.264648915633426E+00
             -0.123977899092655E+01
             -0.459765819772551E-01
              0.669039371369639E+00
             -0.285995870163454E+01
             -0.237934995427320E+01
             -0.155887878527542E+01
             -0.281667555045282E+01
             -0.927336204529885E+00
             -0.182206405629085E+01
              0.801208257519045E+00
              0.102153984274694E+00
             -0.527819332321426E+00
             -0.362443822765580E+00
              0.200162706034973E+00
             -0.563895394875530E+00
              0.286241264156855E+01
             -0.378746714671387E+01
             -0.636311475966379E+00
             -0.605205147464123E+00
              0.620187432997831E+00
              0.100950908459205E+01
             -0.230833530772925E+01
             -0.645310678972068E+00
              0.192267836739844E+01
             -0.825008816963540E+00
              0.638491521518725E+00
              0.143118903483434E+01
             -0.954144825935010E-01
              0.514424663267967E+01
             -0.615511034047771E+00
             -0.147453746445947E+01
              0.811027924872221E-01
             -0.115718112749289E+01
              0.254524918792918E+01
             -0.199395582823055E+01
              0.571059555480225E+00
              0.237125030202923E+01
             -0.496484056088072E+00
              0.521023363037781E+01
              0.562955331484089E+01
             -0.298773122348818E+01
              0.253713108666654E+01
              0.104983860728331E+01
             -0.245963847523020E+01
              0.763504642618056E+00
              0.181814572179963E+01
              0.202565390362745E+01
              0.191390442615518E+00
              0.701025035174375E+00
              0.319946655481717E+01
             -0.103839159674801E+01
              0.425134055223129E+00
              0.302754802251304E+01
             -0.161733832904142E+01
             -0.100033903584558E+01
              0.253573130419549E+01
              0.134849772778819E+01
              0.349137320543544E+01
              0.138690336138430E+01
              0.520046673414370E+00
              0.117853133636494E+01
              0.180439031484295E+01
             -0.225983284986657E+01
              0.342727682264741E+00
              0.110395236674035E+01
              0.598228164199487E+00
              0.102636726319010E+01
             -0.262029549708561E+01
              0.146846897660181E+01
             -0.196052548529475E+01
             -0.135367569446995E+01
              0.818147916622912E+00
             -0.384800806409916E+00
              0.268099576694535E+01
             -0.655018388060967E+00
              0.132272520493212E+01
              0.144573546060540E+01
              0.344544281030769E+01
              0.227355808005971E+01
              0.212379690275719E+01
             -0.111038519151689E+00
             -0.517671618565194E+00
             -0.121891482677051E+01
              0.357612293666274E+01
              0.366123268745061E+01
              0.177808505444435E+01
             -0.120529675710647E+01
              0.222524020665179E+01
             -0.449186063718177E-01
              0.700298124563630E+00
              0.300480596901404E+01
             -0.369918062293362E-02
             -0.408745369998922E+00
             -0.915884943920375E+00
             -0.259845716493526E+01
              0.423475828472531E+01
              0.219955342364431E+01
             -0.282957425335844E+01
             -0.943555670504160E+00
              0.113461697367539E+01
             -0.373666792369228E+00
              0.293732078763467E+01
              0.702022257560934E+00
              0.368975618210067E+01
              0.135453494909573E+01
             -0.113755900671654E+01
              0.936871239920321E+00
             -0.316975775437580E+00
             -0.122450807433987E+01
              0.728055768151371E+00
              0.727991249638233E+00
              0.397429582601649E+01
              0.341785939538868E+01
              0.246582166804891E+01
              0.297387053232976E+01
              0.200028449495385E+00
             -0.106667169608254E+01
              0.655346188040102E+00
             -0.149413811836660E+01
             -0.244642022518779E+01
             -0.252348102542451E+01
             -0.137704630893859E+01
             -0.471729648006439E+01
             -0.159098416489924E+01
             -0.380175166195464E+01
              0.954520911992657E+00
             -0.194747134414905E+01
              0.218531274889689E+01
             -0.435599236309400E+01
             -0.135103035711225E+01
              0.181484812758063E+01
              0.101748420900859E+01
             -0.401529456076751E+01
              0.248376499366690E+01
             -0.122289588270045E+01
              0.241647066699762E+01
             -0.120505183874387E+01
             -0.350151469050548E+01
              0.761056263995975E+00
             -0.296840410249412E+01
             -0.188347801940754E+00
             -0.308952737064440E-01
              0.184282911642385E+01
              0.558771972546776E+01
             -0.190996622038898E+01
             -0.173872562628759E+01
             -0.185300833053994E+00
             -0.310424556584239E+00
             -0.362197526293968E+01
             -0.245211074193890E+01
              0.218280534912252E+01
             -0.857240853103043E+00
              0.104574881226726E+01
             -0.221892570804821E+01
             -0.744780958866738E+00
             -0.184879750949464E+01
              0.223518741260590E+01
              0.621773926094981E+00
             -0.106047548048863E+01
             -0.789143130062065E+00
              0.530053433961100E+00
             -0.296618854082267E+00
              0.188155087062806E+01
             -0.113987599326655E+01
              0.384246307981734E+00
              0.142573523228606E+01
              0.622193574130304E+00
             -0.952601273869789E+00
              0.686751287579540E+01
              0.253804237217077E+01
              0.452485456456971E+00
              0.441900138724975E+00
             -0.260820864573075E+01
              0.149864881134514E+01
             -0.352004400392523E+01
             -0.150111364254190E+01
             -0.254987620571465E+01
             -0.821498148845539E+00
              0.258604928544207E+01
             -0.248896796104474E+01
              0.113268144507269E+01
             -0.139913405711727E+00
              0.120006255533802E+00
             -0.146339260546082E+01
             -0.189371189279344E+01
             -0.185511380743797E+00
             -0.150657279149585E+01
             -0.105204567884296E+01
             -0.185201197634228E+01
             -0.297801514195117E+00
             -0.144993647915575E+01
             -0.217768920640162E+01
              0.856175097681898E+00
             -0.622652173226053E+00
              0.101739114963522E+01
              0.301387234125268E+00
             -0.332325477303555E+01
             -0.225829356145208E+01
             -0.211486152199267E+01
              0.141743761289960E+01
             -0.271509128579050E+00
             -0.273545887184862E+01
              0.246612528676178E+01
             -0.183870894620373E+01
              0.265352490728842E+01
             -0.132636171270368E+01
             -0.212978206629476E+01
              0.120123755428084E+01
             -0.323618937348891E+01
             -0.136559719793508E+01
              0.250279132493823E+01
              0.816227063912944E+00
             -0.185517334021036E+01
              0.228440445878681E+01
             -0.686015277152460E+00
             -0.156664517635425E+01
             -0.129173480055754E+01
             -0.226455335756357E+01
              0.108696204670493E+01
             -0.379523562476301E+01
             -0.337028537890145E+01
             -0.359409999285038E+00
             -0.131744246740203E+01
             -0.258451832519902E+01
              0.342563232612307E+01
              0.606753514385772E+01
             -0.100672478252589E+01
             -0.219578213607296E+00
             -0.256954406461889E+01
              0.298857457953777E+01
              0.920677659467662E+00
             -0.848693604361237E+00
             -0.160349551884263E+01
              0.705658699716709E+00
             -0.266834655954100E+01
             -0.521352781866462E+00
             -0.383849375235445E+01
              0.154575306356760E+01
              0.457157072360774E+00
             -0.265939697115929E+00
             -0.474407463586314E+00
             -0.176485730150453E+01
             -0.491351889740926E+00
              0.586691284255098E+01
             -0.784532958120405E+00
             -0.202907207793907E+01
             -0.308417817120209E+01
              0.554049404343502E+00
             -0.166334405573754E+01
              0.437968305514906E+00
              0.144164230431587E+01
              0.201458953502815E+00
              0.147214735517082E+01
              0.719344536782174E+00
              0.262440606147400E+01
              0.114554566080541E+01
             -0.159449292403956E+01
              0.233944404455427E+01
              0.152517653818494E+01
              0.568281224944592E+00
              0.157816552960787E+01
             -0.138978354847344E+01
              0.322517051499132E+01
              0.114980875474023E+01
             -0.151758419005386E+01
             -0.132004253754348E+00
             -0.722381123362817E+00
              0.757329761065682E+00
             -0.118188224585175E+01
             -0.456594357767150E+00
             -0.505649167514839E+00
              0.369578362704170E+01
              0.248191527705519E+01
             -0.287527398774348E+01
             -0.311222548383634E+00
             -0.222241462004301E+01
             -0.664442289705502E+00
             -0.867015777382351E+00
              0.461679308677379E+00
             -0.159991273729273E+00
             -0.118852225691639E+01
              0.740055151097842E+00
             -0.412104991622710E+00
             -0.291046933859835E+00
              0.394887058345560E+01
              0.698313620837557E+00
             -0.364249578975283E+01
             -0.163436409616018E+01
              0.423760652940391E+01
              0.107625623260740E+01
             -0.395484322810265E+00
              0.478220697530484E+01
             -0.825765749509625E+00
             -0.373754811095477E+00
             -0.414192381152183E+00
              0.618399611711006E+00
              0.142841220410392E+01
              0.120134296606868E+00
              0.127329964098877E+01
             -0.573370749477071E+00
             -0.168779089535037E+01
             -0.173457648279913E+01
             -0.208337687407286E+01
              0.174443819248025E+01
              0.635381646032006E+00
              0.163907700550616E+01
              0.623355163102080E+00
              0.395985452909697E+01
              0.966429216900298E+00
             -0.349731247030173E+01
             -0.141822903820917E+01
              0.204048298639413E+00
             -0.125886098243397E+01
              0.283186962232006E+01
             -0.694182739613751E+00
              0.840721954235766E+00
              0.245723512201721E+01
             -0.356392745822942E+01
              0.655263440169911E+01
              0.808484419646419E+00
              0.112724068987745E+01
              0.163297331189217E+01
              0.141921645382077E+00
             -0.110328969495564E+00
              0.148503441628431E+01
             -0.145433966129805E+01
              0.378798812607693E+01
              0.325311336956876E+01
             -0.171803488470123E+01
              0.614405573968586E+00
              0.321925416028858E+01
             -0.997551913293783E+00
              0.895078013817756E+00
              0.152037348366367E+01
              0.184231463966191E+01
             -0.328881833375151E+01
             -0.281642621432560E+00
             -0.127541445656686E+01
             -0.178097310624892E+00
             -0.197516247540851E+00
              0.164078362224455E+00
             -0.561541691060484E+00
             -0.127709424794883E+01
              0.608490915019193E+00
              0.292768982324372E+00
              0.232163027125520E+01
             -0.200158182858709E+01
              0.196434535386199E+01
              0.209439385792832E+01
             -0.527239244447195E+00
              0.346408639065560E+01
             -0.304035235603362E+01
             -0.459417403740712E+01
             -0.413581349560859E+00
             -0.250791911387402E+00
             -0.547199280295239E-01
              0.344317685659599E+01
             -0.117368532477417E+00
              0.186859159873243E+01
              0.251302770409174E+01
              0.173869617539534E+01
             -0.353910615417604E+00
              0.267689085868523E+01
             -0.699155341210958E+00
             -0.168568888528674E+01
             -0.153624982934862E+01
              0.489566433625948E+00
              0.154103252945756E+01
             -0.138900683030647E+00
              0.156105583205978E+01
             -0.808757481024305E-01
              0.258278252275590E+01
              0.801580836950142E+00
              0.387104336028642E+00
              0.664650665907907E-01
              0.133165393916384E+01
              0.186138736198422E+01
              0.738382524011401E+00
             -0.164390155018648E+00
             -0.243144226678217E+01
              0.136366960338834E+01
              0.935745352024547E+00
              0.150055681459148E+01
              0.134220959173719E+01
              0.168709902748181E+01
             -0.496191994424532E+00
              0.141889426605670E+01
             -0.125269109370706E+01
             -0.271538926044279E-01
             -0.233742573857574E+01
             -0.162151362847738E+01
              0.189329124842081E+01
             -0.388227445494034E+01
              0.108808508444812E+01
              0.602198103133212E+00
              0.373482853562614E+01
             -0.689067979381959E+00
              0.139678118442041E+01
             -0.504070786972601E+00
             -0.220663865828585E+01
             -0.303275667819504E+01
             -0.573398961024695E+00
             -0.389924299585526E+01
              0.424970811114758E+00
             -0.921773840678925E+00
              0.145584639390119E+01
              0.100822739555425E+01
             -0.120366514601361E+01
             -0.120242967026017E+01
              0.186709838970948E+01
             -0.252247650139266E+01
             -0.531999041732121E+00
             -0.767968504277644E+00
              0.116130529738238E+01
              0.147587982296006E+00
              0.200341907456905E+00
             -0.697246350900149E+00
              0.242355553087696E+01
             -0.243805300990699E+01
              0.220653035908704E+00
              0.259490250190541E+01
             -0.164274851707347E+01
              0.161054846687415E+00
              0.608639618827205E-01
             -0.285043226693560E+01
             -0.176128051289352E+01
             -0.134422738019822E+00
              0.131814064712956E+01
              0.153449837021587E+01
              0.112570318752583E+00
             -0.581450897474483E+00
              0.761440239939169E+00
             -0.181556328552368E+01
             -0.146526538780545E+00
             -0.228767371326858E+01
             -0.120611909458220E+01
              0.222830207391631E+01
             -0.136889263327027E+01
              0.302080099789569E+01
             -0.925939549067602E+00
              0.153157131288210E+01
              0.105871483842770E+01
             -0.266423262096374E+01
             -0.115577504440267E+01
              0.499276182045445E+00
             -0.183790727992010E+01
             -0.175057117446975E+01
             -0.397775289176347E+01
             -0.240568959747697E+01
             -0.219967460674826E+01
             -0.204932586701817E+01
              0.198347991248760E-02
              0.995607149073038E+00
              0.357720587141130E+00
              0.116154841228002E+01
             -0.255769619157296E+01
              0.553630778169847E+00
              0.110236919445757E+01
             -0.303437477938448E+01
             -0.262386077004723E+01
             -0.172471114933781E+01
             -0.134675154532308E+01
              0.650878193624779E+00
             -0.135355300569429E+00
             -0.201903313492457E+01
              0.132175901915070E+01
             -0.105221448416960E+01
              0.228511531952987E+01
             -0.397914376367696E+01
              0.281686220625236E+01
             -0.450062158183173E+00
             -0.175794485461099E+01
             -0.129528043939432E+01
              0.742006536533033E-01
              0.222609305036890E+01
             -0.310378484407783E+01
             -0.631020579992843E+00
             -0.725783822846193E+00
              0.185479574047986E+01
              0.359854722546356E+01
             -0.434959623379680E+01
              0.410772221107375E+01
              0.186579747650469E+01
             -0.337235292623154E+01
             -0.142733319542753E+01
              0.345675964263467E+01
              0.254554929523596E+01
             -0.755849630214652E+00
             -0.317647242010622E+00
              0.734747464143906E+00
              0.337179802856104E+01
             -0.259233634876871E+01
              0.568709025889871E+00
             -0.372731521410585E+00
              0.122740349503127E+01
             -0.313054121465071E+01
             -0.151774819355951E+00
             -0.121300298228275E+01
              0.217669808456950E+01
              0.183679825752875E+01
             -0.389231353761701E+01
             -0.210625705169401E+01
             -0.944847936154126E+00
             -0.190773281251789E+01
             -0.558352286455459E+00
             -0.877458698374996E+00
              0.193557175673887E+01
              0.198246337228980E+01
             -0.695045587778544E-01
             -0.199504630599291E+01
             -0.374613619381025E+01
              0.223410414169020E+01
             -0.207426239994408E+01
             -0.165616013662539E+01
              0.310342365543795E+00
             -0.159494375372465E+01
             -0.183635928115623E+01
             -0.125405301410729E+01
             -0.209049314749008E+01
             -0.117508454541678E+01
             -0.223516234283841E+01
              0.244093616989802E+01
              0.263860534641687E+01
             -0.474921476626704E+00
             -0.978704166846981E+00
              0.174891876421874E+00
              0.186444192558790E+01
             -0.374840567982282E+01
             -0.991785115984065E+00
              0.219102540364047E+01
              0.308939220502926E+01
             -0.481344240856906E+00
              0.473317206027222E+00
              0.223730699018840E+01
              0.659898463458559E+00
             -0.966612022803197E-01
             -0.177701066245186E+01
              0.666549769406007E+00
             -0.143209419389227E+01
             -0.295494605201386E+00
             -0.965386676374990E+00
             -0.663883691596824E+00
              0.103796542172351E+01
              0.341779410085674E+01
             -0.228484692017538E+00
              0.114949724851177E+00
             -0.396029909445679E+01
             -0.690314587353019E+00
             -0.161509027135789E+01
              0.245399643957853E-01
             -0.212039104200291E+01
              0.392861569086032E+01
              0.381728350786305E+01
              0.782674378613371E+00
             -0.892824382353242E+00
              0.816359034970814E+00
              0.893572563034535E+00
             -0.207394904546172E+01
             -0.366370897127016E+00
              0.785065957607731E+00
              0.642167953725579E+00
              0.229218853621721E+01
              0.179051856208711E+01
             -0.963821056017951E+00
              0.103451219342787E+01
             -0.416548976699784E+01
             -0.609769253549706E-01
              0.398131709985346E+01
              0.789430517374667E+00
             -0.919854140009697E-01
              0.114377941638433E+01
             -0.112082348228465E+01
              0.392954389615074E+01
             -0.817400626370576E+00
              0.344827318098758E+01
              0.168319701373710E+01
             -0.185339644281184E+01
              0.146631322950127E+01
             -0.134044188065474E+01
             -0.300845781760492E+01
             -0.391635948357091E+00
             -0.238652797960452E+01
             -0.227025747411515E+01
             -0.139690817937197E+00
              0.154689211544877E+01
             -0.574521312987571E+00
             -0.137451905623774E+01
              0.342242375912772E+00
             -0.298964451954874E+01
             -0.212167196418154E+00
             -0.384594075027175E+01
              0.237623882066324E+01
             -0.197579705051139E+00
             -0.211550440967240E+01
             -0.673851529870710E+00
              0.835809114276787E+00
             -0.161522222800024E+01
             -0.202200439498817E+01
              0.394669083186742E+01
             -0.117726692756338E+01
             -0.176249629500440E+01
              0.128400504657997E+01
             -0.813843679628322E+00
              0.253250046198330E+01
             -0.380503195177724E-01
              0.312350043064422E+00
              0.482755816704197E+01
             -0.445330850656539E+00
             -0.170969561241911E+01
             -0.198766642340451E+01
             -0.229113781183471E+01
             -0.165905323013010E+01
              0.133542744999869E+01
              0.126224799598999E+01
              0.119328201464704E+01
              0.343761328667102E+01
              0.288875283698729E+00
              0.964396679825148E+00
             -0.259966961353848E+01
              0.108774363797199E+00
             -0.700194351816338E+00
             -0.114436844343828E+01
             -0.213897398930911E+00
              0.142860124241022E+01
              0.166910405233533E+01
             -0.257068238481437E-01
              0.607969092762694E+00
              0.118617569860632E+01
              0.159169871393348E+01
             -0.116992767035971E+01
             -0.500880873774882E+00
              0.638094981336623E-01
             -0.114071882949054E+01
             -0.144859666350889E+00
             -0.161041835873486E+01
              0.349135342253140E+01
              0.273578814017737E+01
             -0.686296256908648E+00
              0.639803206678875E+00
             -0.207905829114360E+00
             -0.122038926999168E+01
              0.160664534082748E+01
             -0.472663285620484E+00
              0.171220813674893E+01
             -0.222470786235406E+01
              0.877173764761526E+00
             -0.359446200045522E+00
             -0.253215399545201E+01
             -0.117445516756618E+01
              0.116122535885635E+01
             -0.422279778384593E+01
              0.178401729684413E+01
              0.214253044075731E+01
             -0.437588703529763E+00
             -0.370412043838234E+00
             -0.229037319969517E+00
              0.121026471652079E+01
             -0.149217462622520E+01
              0.135801284636142E+01
              0.142846153488817E+01
             -0.414901234163673E+01
             -0.165538662569455E+01
              0.107386996575282E+01
             -0.554958282763780E+00
              0.203040898930852E+01
             -0.267386819124638E+01
             -0.385040717915686E+00
             -0.182869071963735E+01
             -0.567458422431256E+01
              0.354671762636633E+01
             -0.267945226819327E+01
             -0.294074435506661E+01
              0.266931579283576E+00
              0.568668988652023E+01
              0.329676547558429E+00
             -0.128796265836611E+01
             -0.353204142722987E-01
             -0.236649132037637E+00
             -0.388563784519933E+01
             -0.251144619843319E+01
              0.378107126491597E+01
             -0.383951358921061E+00
             -0.170373274604706E+01
              0.224326151936470E+01
             -0.146814191182439E+01
              0.148156902012292E+01
              0.217000203770551E+01
             -0.246116010923816E+01
             -0.116626613131642E+01
             -0.153973432632618E+01
             -0.686953886768064E+00
             -0.787927408126310E+00
             -0.672528849024705E+00
              0.944811809559894E+00
             -0.153204421165979E+01
              0.121875284328253E+01
              0.250988024606682E+01
             -0.451787312645321E+00
             -0.886254405782083E+00
              0.584602950529703E+00
              0.243031332530866E+01
              0.247396098118089E+01
              0.303464204996956E+00
             -0.344705320065401E+00
             -0.372300955701458E+00
             -0.229095740983815E+01
              0.169034823258087E+01
             -0.108611082700538E+01
              0.913409181916332E+00
             -0.598179826191000E+00
              0.127904366477260E+01
              0.741158170296188E+00
             -0.355653949583734E+01
             -0.113836114668929E+01
             -0.345942536859562E+01
             -0.171780953184532E+01
              0.229143383264395E+00
             -0.890824201195633E+00
              0.157604897955853E+01
             -0.130723548705028E+01
              0.161933959141921E+00
              0.350825016236577E+00
              0.322154019091091E+01
              0.168194207002380E+01
             -0.137492949362355E+01
              0.351579306247771E-01
              0.579664254622170E+00
              0.164499956918775E+01
             -0.595016272238098E-01
              0.241911295424927E+01
              0.120253953817196E+01
              0.399992983426130E+01
              0.147654801710916E+00
              0.275902657080464E+01
             -0.133472285711940E+01
             -0.178448375195642E+01
              0.130947212059244E+00
              0.448914224709831E+00
              0.106104649138259E+01
             -0.659044465457509E+00
             -0.497401538332978E+00
              0.981939702892966E+00
             -0.195224974025060E+01
             -0.262074722230608E+01
              0.357204866795232E+01
             -0.346646216936328E+00
             -0.166081675873810E+01
             -0.183832651123340E+00
             -0.628072684911732E+00
              0.180320756983067E+01
              0.157845977568183E+01
             -0.924528368729952E+00
             -0.352796775729631E-01
             -0.116354307360290E+01
             -0.153337399123741E+01
             -0.116998918069839E+01
             -0.439962996661541E+01
             -0.791616490162959E-01
             -0.294090831674100E+01
             -0.262566008237658E+01
             -0.178304596002680E+01
              0.912543084241541E+00
             -0.175547497510981E+01
              0.977494842085026E+00
             -0.281982032201619E+01
             -0.506903249429520E-01
             -0.192276208029753E+01
              0.399653701407434E+00
              0.294649323150536E+00
              0.138041677769877E+01
             -0.828984360075072E+00
             -0.785445851807431E+00
              0.139382107277341E+01
              0.255770483840971E+01
              0.142481541522204E+01
              0.470381880426366E+00
             -0.325885967897015E+01
             -0.603089721426723E+00
             -0.132353034638242E+01
             -0.271181021969522E+01
              0.192165238258067E+01
             -0.149165964503793E+01
             -0.340144770094216E+00
             -0.107371934951745E+01
             -0.442912956338085E+01
              0.244117220288735E+01
             -0.680632565666819E+00
              0.176079229788406E+01
             -0.331752400564586E+01
              0.285259471587463E+01
              0.304113970385483E+00
             -0.120406744023600E+01
              0.462495027720152E+00
             -0.983331611714028E+00
             -0.284492957483435E+01
              0.736238809034801E+00
              0.153680134055709E+01
             -0.227121611942174E-01
             -0.152369236052154E+01
             -0.641844186990841E+00
              0.790419187841518E+00
              0.159511945345846E+01
              0.275323445764128E+01
              0.103045971660559E+01
             -0.101229241605559E+01
              0.427899160745213E+01
              0.108564168934476E+01
              0.193133184937490E+01
             -0.776320931724442E+00
              0.137449290983087E+01
[...]
             -0.105195633898435E+01
              0.232277594833186E+01
              0.605015681431869E+00
             -0.362093805521822E+01
              0.140581084555973E+01
              0.270910967792869E+00
              0.405178119580038E+00
             -0.213426272358384E+01
              0.335372115381382E+00
              0.154231065906478E+01
              0.204979141113590E+01
              0.287336442822122E+01
              0.143191180606312E+01
              0.407340940382664E+00
             -0.238867681752286E+01
             -0.188375718083351E+01
             -0.295725814108043E+01
             -0.544193777360395E+00
              0.141478849952360E+01
              0.885880798471943E-01
              0.231476076619815E+01
             -0.141160835631137E+01
              0.864289315763980E+00
             -0.855909627005695E+00
             -0.116278105657422E+01
              0.257272503414434E+01
              0.243282863528687E+00
              0.274663211515339E+01
              0.205310551752280E+00
              0.887459898930038E+00
             -0.799449218816612E+00
              0.271990312535120E+01
             -0.620503371207310E+00
             -0.717251743953723E-01
             -0.346713174965752E+01
             -0.320711229810113E+00
              0.309714066086427E+01
              0.285273958832905E+01
              0.116576299466030E+01
             -0.819165573526814E+00
              0.196082493609222E+00
             -0.100879033350691E+01
             -0.791108715529592E+00
              0.399806724326641E+01
              0.300883875482107E+00
             -0.127507205616209E+01
             -0.477305174725235E+01
             -0.200088253307034E+01
             -0.164831594393800E+01
             -0.283094081939362E+01
             -0.253221692180507E+01
             -0.310499079912013E+01
             -0.195557437240634E+01
             -0.129920009992499E+01
             -0.218989149149895E+01
              0.193752736930888E+01
             -0.843216068831573E+00
             -0.387225042538036E+01
              0.176013914985422E+01
             -0.136616195904472E+01
             -0.359278214599874E+01
              0.442525491832658E+01
             -0.109849833376951E+01
              0.725823590543929E+00
              0.167346958595381E+01
              0.406437700204391E+00
              0.116971511850665E+01
              0.805385438522963E-01
              0.745593172197074E-01
             -0.484744190647493E+00
             -0.315993657176827E+01
              0.468428199321950E+00
             -0.535121103501059E+01
              0.308815663559609E+01
             -0.179190292515698E+01
             -0.898544780093486E+00
             -0.100193791403695E+01
              0.825155214071452E+00
             -0.703384613700049E+00
              0.131101180072169E+01
             -0.263821810490503E+01
              0.154228711950801E+01
              0.175350161085551E+01
              0.474224949606263E+00
              0.306012172689751E+00
              0.945170656713159E+00
              0.460103940554564E+00
              0.131738159401582E+01
             -0.154117356530522E+00
             -0.319799120923641E+01
              0.391258917985635E+00
             -0.137828762713020E+01
             -0.127233876811442E+00
              0.238102028957482E+01
             -0.347203993417782E+01
             -0.418758029502406E-01
              0.158226230933387E+00
              0.412496249043027E+00
              0.139099056561238E+01
             -0.505680456344292E+00
              0.378384166829706E+01
              0.172810766533339E+01
             -0.725667699682607E+00
             -0.453727093805384E+00
              0.257534112673495E+00
              0.349508616770342E+01
             -0.230594052753767E+01
             -0.449528730399552E+01
              0.121286972255134E+01
             -0.393809707704952E+00
             -0.555253006184772E+00
              0.866736906103762E+00
              0.338591380903269E+01
              0.187916550106268E+01
             -0.731050587614696E+00
             -0.235972076976075E+01
             -0.520311964491730E+00
              0.124078220336316E+01
             -0.748810846415843E+00
             -0.338015613819093E+01
             -0.346975612059658E+00
             -0.430262769833167E+01
             -0.235775047660441E+01
              0.376735969250265E+01
             -0.226890439979061E+01
             -0.312216643108725E+01
             -0.224178730562488E+01
             -0.173188234014445E+01
              0.139304674115971E+01
              0.377241016583831E+01
             -0.334776442372315E+00
              0.119259904673934E+01
             -0.899167436027721E+00
             -0.307790941022940E+01
              0.213520347167307E+01
             -0.210668377796772E+01
              0.112516641914561E+01
              0.138756899749828E+01
             -0.658926146566518E+00
              0.168951534331383E+01
              0.177294819900229E+01
              0.521895399309452E+01
             -0.459661154001292E+00
             -0.243668846985816E+01
             -0.294090511249612E+01
             -0.911967884302666E+00
             -0.169898166435953E+01
              0.410848630757080E+01
             -0.185019367365100E+01
              0.536184679609454E+00
              0.169364628164303E+00
             -0.903109518479922E+00
             -0.374340166868472E+01
             -0.243659926076861E+00
              0.441577222382858E+01
              0.931892999247752E+00
              0.352618241791586E+00
             -0.261149201712919E+01
             -0.255911126151884E+01
             -0.780183613380034E+00
              0.205183955776537E+01
             -0.111267967009107E+01
              0.453244962097666E+01
             -0.197096652895362E+01
              0.893865813239406E+00
             -0.676753565744864E+00
             -0.279955639972277E+01
              0.294773336565445E+00
             -0.246122425614550E+01
             -0.333056581202627E+01
              0.485998266115118E+00
              0.128226833065709E+00
              0.221256896319393E+01
              0.118268467317518E+01
             -0.147587859626233E+01
              0.964713900470350E+00
             -0.386240701091193E+01
             -0.217859034055598E+01
              0.407951293977178E+01
              0.343203210178570E+00
             -0.279099624144557E+00
             -0.119134538237582E+01
             -0.311745770455651E-01
             -0.538335001146223E+00
              0.387399852035578E+01
              0.174162673166693E+01
             -0.462650843932785E+00
             -0.462758962311476E-01
             -0.171743033938370E+01
             -0.663247967132499E+00
             -0.283666966004340E+01
              0.215205561512177E+01
              0.233470670056453E+00
              0.354468259960822E+00
              0.841973997487289E+00
             -0.525728676565269E+00
             -0.965025540896157E+00
              0.337067840013859E+00
             -0.494158077680640E+01
             -0.476719689108073E+00
             -0.354910783975701E+00
             -0.290469712126613E+00
              0.229210433391127E+01
              0.282465445799532E+01
              0.811964453070434E+00
             -0.417446468402524E+01
              0.288829206672253E+01
             -0.104371680310414E+01
             -0.168811158798407E+01
             -0.391689835216599E+01
             -0.120893767172437E+01
              0.275974815241951E+01
              0.130201989172573E+01
              0.541520822960457E+00
              0.154628379986661E+01
             -0.249362172819423E+01
             -0.219911560662746E+01
              0.263916076794344E+01
              0.186067189180248E+01
              0.215733170080260E+01
              0.254479622849191E+00
              0.374429265034550E+00
              0.238874065221769E+01
              0.439079271106751E+01
             -0.851589043127833E+00
              0.172998540648319E+01
             -0.117648673255896E+01
             -0.191325997513768E+01
             -0.148082380989338E+01
             -0.144401481069228E+01
             -0.643588638099601E+00
             -0.223914622313537E+01
             -0.872189819695983E+00
             -0.580364104889927E+01
              0.129490769420997E+01
              0.125571857021542E+01
             -0.159501031039071E+00
             -0.169780072675523E+01
             -0.892420317477526E+00
             -0.250482637790287E+01
              0.206256230060635E+00
              0.352580869715196E+01
             -0.871229323587158E+00
             -0.798131507669973E+00
              0.935348817605760E+00
             -0.214360179037530E+01
              0.379201554841908E+01
              0.677293273486463E+00
              0.408951874448473E+00
              0.235384219584261E+01
             -0.142694153149659E+00
              0.264031679882395E+01
              0.866545857464397E+00
             -0.921678926118199E-01
              0.616130799988349E+00
             -0.247516119810381E+00
              0.300674962377551E+01
              0.255138415327028E+00
              0.860912099752849E+00
             -0.349589292124076E+00
              0.454111446662377E+00
             -0.419523407479623E+01
             -0.155074170296316E+01
             -0.221140686020515E+01
              0.226145890909386E+01
             -0.153066492200150E+01
             -0.253669992467168E+01
              0.267684078907718E+01
             -0.608756902261393E+00
              0.181708863714503E+01
             -0.401095783575543E+01
              0.761215672068027E+00
              0.278264079511838E+00
              0.316412173586571E+00
             -0.593593070151208E+00
             -0.315008992620992E+00
              0.217723627451052E+01
              0.125846335780093E+00
             -0.238260084783439E+01
             -0.860931467836181E+00
              0.941913752614098E+00
             -0.503224578391784E+01
             -0.387882965192343E+01
              0.457483018995646E-01
              0.732740430334120E+00
             -0.211740948045444E+01
              0.542616885169167E-01
              0.461651714091054E+01
              0.140122306364288E+01
             -0.237131321089488E+01
              0.405002198311363E+00
             -0.548097572672257E+00
              0.462172345869716E+00
             -0.154481459481459E+01
              0.974948885041964E+00
              0.108696166425244E+01
             -0.457959001469845E+00
              0.503993091771985E+01
             -0.149849087842647E+00
             -0.140465243284260E+01
              0.136593781937765E+01
              0.189047718277574E+01
             -0.138216907023266E+01
             -0.988082850170091E-01
              0.427839055742617E+01
             -0.912616039955516E-01
              0.241982669006549E+01
              0.692850652013020E+00
             -0.379024447592102E+00
             -0.796000551914208E+00
              0.225216595952027E+01
             -0.268449553696601E+01
             -0.480095693121996E-01
             -0.889539911676291E+00
             -0.175848060341724E+01
              0.511814219533519E+00
              0.102457869735537E+01
             -0.781223037355971E-02
             -0.355600923885184E-01
             -0.189624879570328E+01
              0.815862036695519E+00
             -0.458051267005901E-01
             -0.106938329250025E+01
             -0.914040952269456E+00
              0.806425722753202E+00
              0.799659181100623E-01
             -0.169668388274332E+01
             -0.472568973720830E+01
              0.352742280314688E+00
              0.665764761149988E+00
             -0.215932802355800E+01
             -0.107120755564569E+01
              0.362275641669501E+01
              0.538203213028840E+00
              0.195598135917892E+01
              0.492224426864536E+00
              0.181779565154937E+01
              0.828740253189650E-01
             -0.178261477447718E+01
             -0.446736274517477E+00
              0.255101466505966E+00
              0.141422950063254E+01
              0.340355639516528E+01
              0.223732161977696E+01
              0.141262269763317E+00
              0.441047555086508E+00
              0.266500311186884E+01
              0.127398735320628E+01
             -0.310264424112758E+01
             -0.122511995145065E+01
              0.418665025571215E+00
              0.460461097562705E+00
              0.119370935294650E+01
             -0.229549128015587E+01
              0.316211351177257E+00
              0.178967757134944E+01
              0.222879346643365E+01
             -0.196673284650716E+01
              0.113755066214768E+00
             -0.144683826303137E+00
             -0.942029861731420E+00
             -0.128601937920938E+01
             -0.585854579424275E+00
             -0.482657683617403E+00
              0.474640091369334E+00
              0.186539311297385E+01
             -0.156820689599442E+01
              0.356361130287675E+01
              0.158071278248604E+01
              0.111017051418465E+01
              0.151846069727547E+01
              0.114217690297024E+01
              0.150194430347041E+01
              0.248402502857196E+01
             -0.207355388333181E+01
              0.275531587229650E+01
             -0.500113883579692E+01
              0.142517544949375E+01
             -0.472573000187415E+01
              0.369141097630619E+01
              0.343137757384719E+01
             -0.416832408823723E+00
             -0.211857010755002E+01
             -0.185755839284850E+01
             -0.242976696921300E+01
             -0.289339958583010E+01
              0.242079664144167E+01
              0.191586066115628E+01
              0.114291688639302E+01
              0.118440945659152E+01
              0.204528206662088E+01
             -0.181970445153120E+01
             -0.708230674383525E+00
              0.228629908326189E+01
             -0.449573029085697E+00
              0.216642355179732E+01
              0.342904641308991E+01
             -0.127986551781973E+00
             -0.332713228006714E+01
              0.932390027727834E-01
              0.445420407664203E-01
             -0.497407802045405E+00
              0.218079476421273E+00
             -0.285592029485156E+01
             -0.481922746990641E+00
              0.506164663211853E+00
              0.543606902810248E+00
              0.223025306560693E+01
             -0.193345586371948E+01
              0.233100745862124E+01
             -0.172950634610875E+01
              0.115553878815737E+01
              0.191435226477443E+01
 
 BEEF-vdW xc energy contributions
            1 :    -32.75638944630512     
            2 :     28.90331263547746     
            3 :    -22.25857775394665     
            4 :     14.54459297625687     
            5 :    -7.520183891026868     
            6 :     2.399649301867711     
            7 :    0.4517126852610289     
            8 :    -1.452226069914616     
            9 :     1.446842498571215     
           10 :    -1.256337908613062     
           11 :     1.345144524062022     
           12 :    -1.733178304159267     
           13 :     2.141783836610330     
           14 :    -2.252964216708733     
           15 :     1.926774832861135     
           16 :    -1.271289260492097     
           17 :    0.5557567517122024     
           18 :   -4.3436923194249744E-002
           19 :   -0.1481640259610302     
           20 :    8.4468086460709912E-002
           21 :    5.7308842719521635E-002
           22 :   -0.1107152508490969     
           23 :    1.5776773850049608E-002
           24 :    0.1638464455129878     
           25 :   -0.3009496929176194     
           26 :    0.2954559321360151     
           27 :   -0.1369115068660776     
           28 :   -9.5648975423173965E-002
           29 :    0.2889157351005807     
           30 :   -0.3654661696355106     
           31 :    -4.285138180627222     
           32 :    -3.109674600685096     

     Writing all to output data dir ./diamond.save/
 
     init_run     :      2.43s CPU      2.47s WALL (       1 calls)
     electrons    :      0.48s CPU      0.56s WALL (       1 calls)
     forces       :      0.06s CPU      0.06s WALL (       1 calls)
     stress       :      0.22s CPU      0.23s WALL (       1 calls)

     Called by init_run:
     wfcinit      :      0.05s CPU      0.05s WALL (       1 calls)
     potinit      :      2.31s CPU      2.33s WALL (       1 calls)
     hinit0       :      0.04s CPU      0.05s WALL (       1 calls)

     Called by electrons:
     c_bands      :      0.34s CPU      0.40s WALL (       2 calls)
     sum_band     :      0.04s CPU      0.04s WALL (       2 calls)
     v_of_rho     :      2.28s CPU      2.30s WALL (       2 calls)
     v_h          :      0.00s CPU      0.00s WALL (       2 calls)
     v_xc         :      3.32s CPU      3.39s WALL (      38 calls)
     newd         :      0.00s CPU      0.00s WALL (       2 calls)
     PAW_pot      :      0.11s CPU      0.12s WALL (       2 calls)
     mix_rho      :      0.00s CPU      0.00s WALL (       2 calls)
     vdW_kernel   :      2.22s CPU      2.23s WALL (       1 calls)

     Called by c_bands:
     init_us_2    :      0.00s CPU      0.00s WALL (      60 calls)
     init_us_2:cp :      0.00s CPU      0.00s WALL (      60 calls)
     cegterg      :      0.33s CPU      0.34s WALL (      20 calls)

     Called by sum_band:
     sum_band:wei :      0.00s CPU      0.00s WALL (       2 calls)
     sum_band:loo :      0.04s CPU      0.04s WALL (       2 calls)
     sum_band:buf :      0.00s CPU      0.00s WALL (      20 calls)
     sum_band:ini :      0.00s CPU      0.00s WALL (      20 calls)
     sum_band:cal :      0.00s CPU      0.00s WALL (      20 calls)
     sum_band:bec :      0.00s CPU      0.00s WALL (      20 calls)
     addusdens    :      0.00s CPU      0.00s WALL (       2 calls)
                                        0.00s GPU  (       2 calls)
     addusd:skk   :      0.00s CPU      0.00s WALL (       2 calls)
                                        0.00s GPU  (       2 calls)

     Called by *egterg:
     cdiaghg      :      0.09s CPU      0.10s WALL (     117 calls)
     cegterg:over :      0.03s CPU      0.03s WALL (     117 calls)
     cegterg:upda :      0.01s CPU      0.01s WALL (     117 calls)
     cegterg:last :      0.00s CPU      0.00s WALL (      23 calls)
     h_psi        :      0.18s CPU      0.18s WALL (     137 calls)
     s_psi        :      0.01s CPU      0.01s WALL (     137 calls)
     g_psi        :      0.00s CPU      0.00s WALL (     117 calls)

     Called by h_psi:
     h_psi:calbec :      0.02s CPU      0.02s WALL (     137 calls)
     vloc_psi     :      0.15s CPU      0.16s WALL (     137 calls)
     add_vuspsi   :      0.01s CPU      0.01s WALL (     137 calls)

     General routines
     calbec       :      0.03s CPU      0.03s WALL (     207 calls)
     fft          :      0.45s CPU      0.46s WALL (    2232 calls)
     ffts         :      0.00s CPU      0.00s WALL (       4 calls)
     fftw         :      0.17s CPU      0.17s WALL (    2786 calls)
     interpolate  :      0.00s CPU      0.00s WALL (       2 calls)
 
     Parallel routines

     PAW routines
     PAW_pot      :      0.11s CPU      0.12s WALL (       2 calls)
     PAW_symme    :      0.00s CPU      0.00s WALL (       3 calls)
 
     PWSCF        :      4.36s CPU      4.74s WALL

 
   This run was terminated on:  22:22: 4  27Mar2024            

=------------------------------------------------------------------------------=
   JOB DONE.
=------------------------------------------------------------------------------=
