
     Program PWSCF v.7.1 starts on 18Feb2024 at  7:55:17 

     This program is part of the open-source Quantum ESPRESSO suite
     for quantum simulation of materials; please cite
         "P. Giannozzi et al., J. Phys.:Condens. Matter 21 395502 (2009);
         "P. Giannozzi et al., J. Phys.:Condens. Matter 29 465901 (2017);
         "P. Giannozzi et al., J. Chem. Phys. 152 154105 (2020);
          URL http://www.quantum-espresso.org", 
     in publications or presentations arising from this work. More details at
     http://www.quantum-espresso.org/quote

     Parallel version (MPI & OpenMP), running on     256 processor cores
     Number of MPI processes:               256
     Threads/MPI process:                     1

     MPI processes distributed on     2 nodes
     1919128 MiB available memory on the printing compute node when the environment starts
 
     Reading input from espresso.pwi
Warning: card &CELL ignored
Warning: card    CELL_DYNAMICS    = 'BFGS' ignored
Warning: card / ignored

     Current dimensions of program PWSCF are:
     Max number of different atomic species (ntypx) = 10
     Max number of k-points (npk) =  40000
     Max angular momentum in pseudopotentials (lmaxx) =  4
     file Pb.pbe-dn-kjpaw_psl.1.0.0.UPF: wavefunction(s)  6S 6P 5D renormalized
     file I.pbe-dn-kjpaw_psl.1.0.0.UPF: wavefunction(s)  5S 5P renormalized

     **************************************************************************
     Initializing libbeef V0.1.2 with the BEEF-vdW functional.
     Citation: Wellendorff et al., PRB 85, 235149 (2012).
     **************************************************************************


     IMPORTANT: XC functional enforced from input :
     Exchange-correlation= BEEF-VDW
                           (   1   4  43  14   2   0   0)
     Any further DFT definition will be discarded
     Please, verify this is what you really want

 
     R & G space division:  proc/nbgrp/npool/nimage =     256
     WARNING: too many processors for an effective parallelization!
     wavefunctions fft division:  task group distribution
                                  #TG    x Z-proc =       8     32
     Subspace diagonalization in iterative solution of the eigenvalue problem:
     a serial algorithm will be used

 
     Parallelization info
     --------------------
     sticks:   dense  smooth     PW     G-vecs:    dense   smooth      PW
     Min         119      95     23                19837    14191    1763
     Max         120      96     24                19846    14206    1780
     Sum       30589   24439   6121              5079105  3634441  454335
 
     Using Pencil Decomposition
 


     bravais-lattice index     =            4
     lattice parameter (alat)  =      35.6120  a.u.
     unit-cell volume          =   45937.3577 (a.u.)^3
     number of atoms/cell      =          143
     number of atomic types    =            2
     number of electrons       =      2291.00
     number of Kohn-Sham states=         1375
     kinetic-energy cutoff     =      70.0000  Ry
     charge density cutoff     =     350.0000  Ry
     scf convergence threshold =      1.0E-07
     mixing beta               =       0.7000
     number of iterations used =            8  plain     mixing
     Exchange-correlation= BEEF-VDW
                           (   1   4  43  14   2   0   0)

     celldm(1)=  35.612033  celldm(2)=   0.000000  celldm(3)=   1.174479
     celldm(4)=   0.000000  celldm(5)=   0.000000  celldm(6)=   0.000000

     crystal axes: (cart. coord. in units of alat)
               a(1) = (   1.000000   0.000000   0.000000 )  
               a(2) = (  -0.500000   0.866025   0.000000 )  
               a(3) = (   0.000000   0.000000   1.174479 )  

     reciprocal axes: (cart. coord. in units 2 pi/alat)
               b(1) = (  1.000000  0.577350 -0.000000 )  
               b(2) = (  0.000000  1.154701  0.000000 )  
               b(3) = (  0.000000 -0.000000  0.851442 )  


     PseudoPot. # 1 for Pb read from file:
     /trace/group/acmegroup/atimmins/packages/espresso/pseudo/psl_1.0.0/pslibrary.1.0.0/pbe/PSEUDOPOTENTIALS/Pb.pbe-dn-kjpaw_psl.1.0.0.UPF
     MD5 check sum: 39ab5b8a6bbd56b7735ad9f188aac93a
     Pseudo is Projector augmented-wave + core cor, Zval = 14.0
     Generated using 'atomic' code by A. Dal Corso  v.7.1
     Shape of augmentation charge: PSQ
     Using radial grid of 1281 points,  6 beta functions with: 
                l(1) =   0
                l(2) =   0
                l(3) =   1
                l(4) =   1
                l(5) =   2
                l(6) =   2
     Q(r) pseudized with 0 coefficients 


     PseudoPot. # 2 for I  read from file:
     /trace/group/acmegroup/atimmins/packages/espresso/pseudo/psl_1.0.0/pslibrary.1.0.0/pbe/PSEUDOPOTENTIALS/I.pbe-dn-kjpaw_psl.1.0.0.UPF
     MD5 check sum: bfa8781bc1224d19af3f3980e3fab11e
     Pseudo is Projector augmented-wave + core cor, Zval = 17.0
     Generated using 'atomic' code by A. Dal Corso  v.7.1
     Shape of augmentation charge: PSQ
     Using radial grid of 1247 points,  6 beta functions with: 
                l(1) =   0
                l(2) =   0
                l(3) =   1
                l(4) =   1
                l(5) =   2
                l(6) =   2
     Q(r) pseudized with 0 coefficients 


     atomic species   valence    mass     pseudopotential
        Pb            14.00   207.20000     Pb( 1.00)
        I             17.00   126.90447     I ( 1.00)

     No symmetry found


                                    s                        frac. trans.

      isym =  1     identity                                     

 cryst.   s( 1) = (     1          0          0      )
                  (     0          1          0      )
                  (     0          0          1      )

 cart.    s( 1) = (  1.0000000  0.0000000  0.0000000 )
                  (  0.0000000  1.0000000  0.0000000 )
                  (  0.0000000  0.0000000  1.0000000 )


     point group C_1 (1)    
     there are  1 classes
     the character table:

       E    
A      1.00

     the symmetry operations in each class and the name of the first element:

     E        1
          identity                                               

   Cartesian axes

     site n.     atom                  positions (alat units)
         1           Pb  tau(   1) = (   0.1250034   0.2164918   0.3914896  )
         2           Pb  tau(   2) = (   0.1250085   0.2164873   0.7829825  )
         3           Pb  tau(   3) = (   0.0000128   0.4329881   1.1744712  )
         4           Pb  tau(   4) = (   0.0000026   0.4329971   0.3914855  )
         5           Pb  tau(   5) = (   0.0000077   0.4329926   0.7829784  )
         6           Pb  tau(   6) = (  -0.1249881   0.6494934   1.1744671  )
         7           Pb  tau(   7) = (  -0.1249983   0.6495025   0.3914814  )
         8           Pb  tau(   8) = (  -0.1249932   0.6494980   0.7829742  )
         9           Pb  tau(   9) = (  -0.2499889   0.8659988   1.1744630  )
        10           Pb  tau(  10) = (  -0.2499991   0.8660078   0.3914773  )
        11           Pb  tau(  11) = (  -0.2499940   0.8660033   0.7829701  )
        12           Pb  tau(  12) = (   0.3750136   0.2164818   1.1744786  )
        13           Pb  tau(  13) = (   0.3750034   0.2164908   0.3914929  )
        14           Pb  tau(  14) = (   0.3750085   0.2164863   0.7829857  )
        15           Pb  tau(  15) = (   0.2500128   0.4329871   1.1744745  )
        16           Pb  tau(  16) = (   0.2500026   0.4329962   0.3914888  )
        17           Pb  tau(  17) = (   0.2500077   0.4329916   0.7829816  )
        18           Pb  tau(  18) = (   0.1250119   0.6494925   1.1744703  )
        19           Pb  tau(  19) = (   0.1250017   0.6495015   0.3914847  )
        20           Pb  tau(  20) = (   0.1250068   0.6494970   0.7829775  )
        21           Pb  tau(  21) = (   0.0000111   0.8659978   1.1744662  )
        22           Pb  tau(  22) = (   0.0000009   0.8660069   0.3914805  )
        23           Pb  tau(  23) = (   0.0000060   0.8660024   0.7829734  )
        24           Pb  tau(  24) = (   0.6250136   0.2164808   1.1744818  )
        25           Pb  tau(  25) = (   0.6250034   0.2164898   0.3914962  )
        26           Pb  tau(  26) = (   0.6250085   0.2164853   0.7829890  )
        27           Pb  tau(  27) = (   0.5000128   0.4329862   1.1744777  )
        28           Pb  tau(  28) = (   0.5000026   0.4329952   0.3914920  )
        29           Pb  tau(  29) = (   0.5000077   0.4329907   0.7829849  )
        30           Pb  tau(  30) = (   0.3750119   0.6494915   1.1744736  )
        31           Pb  tau(  31) = (   0.3750017   0.6495006   0.3914879  )
        32           Pb  tau(  32) = (   0.3750068   0.6494960   0.7829808  )
        33           Pb  tau(  33) = (   0.2500111   0.8659969   1.1744695  )
        34           Pb  tau(  34) = (   0.2500009   0.8660059   0.3914838  )
        35           Pb  tau(  35) = (   0.2500060   0.8660014   0.7829766  )
        36           Pb  tau(  36) = (   0.8750136   0.2164798   1.1744851  )
        37           Pb  tau(  37) = (   0.8750034   0.2164889   0.3914994  )
        38           Pb  tau(  38) = (   0.8750085   0.2164844   0.7829923  )
        39           Pb  tau(  39) = (   0.7500128   0.4329852   1.1744810  )
        40           Pb  tau(  40) = (   0.7500026   0.4329942   0.3914953  )
        41           Pb  tau(  41) = (   0.7500077   0.4329897   0.7829881  )
        42           Pb  tau(  42) = (   0.6250119   0.6494906   1.1744769  )
        43           Pb  tau(  43) = (   0.6250017   0.6494996   0.3914912  )
        44           Pb  tau(  44) = (   0.6250068   0.6494951   0.7829840  )
        45           Pb  tau(  45) = (   0.5000111   0.8659959   1.1744727  )
        46           Pb  tau(  46) = (   0.5000009   0.8660050   0.3914870  )
        47           Pb  tau(  47) = (   0.5000060   0.8660004   0.7829799  )
        48           I   tau(  48) = (   0.1250054   0.0721550   0.2909325  )
        49           I   tau(  49) = (   0.1250105   0.0721505   0.6824253  )
        50           I   tau(  50) = (   0.1250156   0.0721459   1.0739182  )
        51           I   tau(  51) = (   0.0000045   0.2886603   0.2909283  )
        52           I   tau(  52) = (   0.0000096   0.2886558   0.6824212  )
        53           I   tau(  53) = (   0.0000147   0.2886513   1.0739140  )
        54           I   tau(  54) = (  -0.1249963   0.5051657   0.2909242  )
        55           I   tau(  55) = (  -0.1249912   0.5051612   0.6824171  )
        56           I   tau(  56) = (  -0.1249861   0.5051566   1.0739099  )
        57           I   tau(  57) = (  -0.2499971   0.7216710   0.2909201  )
        58           I   tau(  58) = (  -0.2499920   0.7216665   0.6824129  )
        59           I   tau(  59) = (  -0.2499869   0.7216620   1.0739058  )
        60           I   tau(  60) = (   0.3750054   0.0721540   0.2909357  )
        61           I   tau(  61) = (   0.3750105   0.0721495   0.6824286  )
        62           I   tau(  62) = (   0.3750156   0.0721450   1.0739214  )
        63           I   tau(  63) = (   0.2500045   0.2886594   0.2909316  )
        64           I   tau(  64) = (   0.2500096   0.2886548   0.6824244  )
        65           I   tau(  65) = (   0.2500147   0.2886503   1.0739173  )
        66           I   tau(  66) = (   0.1250037   0.5051647   0.2909275  )
        67           I   tau(  67) = (   0.1250088   0.5051602   0.6824203  )
        68           I   tau(  68) = (   0.1250139   0.5051557   1.0739132  )
        69           I   tau(  69) = (   0.0000029   0.7216701   0.2909233  )
        70           I   tau(  70) = (   0.0000080   0.7216656   0.6824162  )
        71           I   tau(  71) = (   0.0000131   0.7216610   1.0739090  )
        72           I   tau(  72) = (   0.6250054   0.0721530   0.2909390  )
        73           I   tau(  73) = (   0.6250105   0.0721485   0.6824318  )
        74           I   tau(  74) = (   0.6250156   0.0721440   1.0739247  )
        75           I   tau(  75) = (   0.5000045   0.2886584   0.2909348  )
        76           I   tau(  76) = (   0.5000096   0.2886539   0.6824277  )
        77           I   tau(  77) = (   0.5000147   0.2886494   1.0739205  )
        78           I   tau(  78) = (   0.3750037   0.5051638   0.2909307  )
        79           I   tau(  79) = (   0.3750088   0.5051592   0.6824236  )
        80           I   tau(  80) = (   0.3750139   0.5051547   1.0739164  )
        81           I   tau(  81) = (   0.2500029   0.7216691   0.2909266  )
        82           I   tau(  82) = (   0.2500080   0.7216646   0.6824194  )
        83           I   tau(  83) = (   0.2500131   0.7216601   1.0739123  )
        84           I   tau(  84) = (   0.8750054   0.0721521   0.2909422  )
        85           I   tau(  85) = (   0.8750105   0.0721476   0.6824351  )
        86           I   tau(  86) = (   0.8750156   0.0721430   1.0739279  )
        87           I   tau(  87) = (   0.7500045   0.2886574   0.2909381  )
        88           I   tau(  88) = (   0.7500096   0.2886529   0.6824310  )
        89           I   tau(  89) = (   0.7500147   0.2886484   1.0739238  )
        90           I   tau(  90) = (   0.6250037   0.5051628   0.2909340  )
        91           I   tau(  91) = (   0.6250088   0.5051583   0.6824268  )
        92           I   tau(  92) = (   0.6250139   0.5051538   1.0739197  )
        93           I   tau(  93) = (   0.5000029   0.7216681   0.2909299  )
        94           I   tau(  94) = (   0.5000080   0.7216636   0.6824227  )
        95           I   tau(  95) = (   0.5000131   0.7216591   1.0739156  )
        96           I   tau(  96) = (  -0.0000017   0.1443297   0.1005555  )
        97           I   tau(  97) = (   0.0000034   0.1443252   0.4920483  )
        98           I   tau(  98) = (   0.0000085   0.1443207   0.8835412  )
        99           I   tau(  99) = (  -0.1250025   0.3608351   0.1005514  )
       100           I   tau( 100) = (  -0.1249974   0.3608306   0.4920442  )
       101           I   tau( 101) = (  -0.1249923   0.3608260   0.8835371  )
       102           I   tau( 102) = (  -0.2500034   0.5773404   0.1005472  )
       103           I   tau( 103) = (  -0.2499983   0.5773359   0.4920401  )
       104           I   tau( 104) = (  -0.2499932   0.5773314   0.8835329  )
       105           I   tau( 105) = (  -0.3750042   0.7938458   0.1005431  )
       106           I   tau( 106) = (  -0.3749991   0.7938413   0.4920360  )
       107           I   tau( 107) = (  -0.3749940   0.7938368   0.8835288  )
       108           I   tau( 108) = (   0.2499983   0.1443288   0.1005587  )
       109           I   tau( 109) = (   0.2500034   0.1443242   0.4920516  )
       110           I   tau( 110) = (   0.2500085   0.1443197   0.8835444  )
       111           I   tau( 111) = (   0.1249975   0.3608341   0.1005546  )
       112           I   tau( 112) = (   0.1250026   0.3608296   0.4920475  )
       113           I   tau( 113) = (   0.1250077   0.3608251   0.8835403  )
       114           I   tau( 114) = (  -0.0000034   0.5773395   0.1005505  )
       115           I   tau( 115) = (   0.0000017   0.5773350   0.4920433  )
       116           I   tau( 116) = (   0.0000068   0.5773304   0.8835362  )
       117           I   tau( 117) = (  -0.1250042   0.7938448   0.1005464  )
       118           I   tau( 118) = (  -0.1249991   0.7938403   0.4920392  )
       119           I   tau( 119) = (  -0.1249940   0.7938358   0.8835321  )
       120           I   tau( 120) = (   0.4999983   0.1443278   0.1005620  )
       121           I   tau( 121) = (   0.5000034   0.1443233   0.4920548  )
       122           I   tau( 122) = (   0.5000085   0.1443188   0.8835477  )
       123           I   tau( 123) = (   0.3749975   0.3608332   0.1005579  )
       124           I   tau( 124) = (   0.3750026   0.3608286   0.4920507  )
       125           I   tau( 125) = (   0.3750077   0.3608241   0.8835436  )
       126           I   tau( 126) = (   0.2499966   0.5773385   0.1005537  )
       127           I   tau( 127) = (   0.2500017   0.5773340   0.4920466  )
       128           I   tau( 128) = (   0.2500068   0.5773295   0.8835394  )
       129           I   tau( 129) = (   0.1249958   0.7938439   0.1005496  )
       130           I   tau( 130) = (   0.1250009   0.7938394   0.4920425  )
       131           I   tau( 131) = (   0.1250060   0.7938348   0.8835353  )
       132           I   tau( 132) = (   0.7499983   0.1443268   0.1005653  )
       133           I   tau( 133) = (   0.7500034   0.1443223   0.4920581  )
       134           I   tau( 134) = (   0.7500085   0.1443178   0.8835509  )
       135           I   tau( 135) = (   0.6249975   0.3608322   0.1005611  )
       136           I   tau( 136) = (   0.6250026   0.3608277   0.4920540  )
       137           I   tau( 137) = (   0.6250077   0.3608232   0.8835468  )
       138           I   tau( 138) = (   0.4999966   0.5773376   0.1005570  )
       139           I   tau( 139) = (   0.5000017   0.5773330   0.4920499  )
       140           I   tau( 140) = (   0.5000068   0.5773285   0.8835427  )
       141           I   tau( 141) = (   0.3749958   0.7938429   0.1005529  )
       142           I   tau( 142) = (   0.3750009   0.7938384   0.4920457  )
       143           I   tau( 143) = (   0.3750060   0.7938339   0.8835386  )

   Crystallographic axes

     site n.     atom                  positions (cryst. coord.)
         1           Pb  tau(   1) = (  0.2499950  0.2499832  0.3333306  )
         2           Pb  tau(   2) = (  0.2499975  0.2499780  0.6666639  )
         3           Pb  tau(   3) = (  0.2499986  0.4999716  0.9999938  )
         4           Pb  tau(   4) = (  0.2499936  0.4999820  0.3333271  )
         5           Pb  tau(   5) = (  0.2499961  0.4999768  0.6666604  )
         6           Pb  tau(   6) = (  0.2499972  0.7499704  0.9999902  )
         7           Pb  tau(   7) = (  0.2499922  0.7499809  0.3333236  )
         8           Pb  tau(   8) = (  0.2499947  0.7499757  0.6666569  )
         9           Pb  tau(   9) = (  0.2499957  0.9999693  0.9999867  )
        10           Pb  tau(  10) = (  0.2499908  0.9999797  0.3333201  )
        11           Pb  tau(  11) = (  0.2499932  0.9999745  0.6666534  )
        12           Pb  tau(  12) = (  0.4999994  0.2499716  1.0000000  )
        13           Pb  tau(  13) = (  0.4999944  0.2499821  0.3333334  )
        14           Pb  tau(  14) = (  0.4999969  0.2499768  0.6666667  )
        15           Pb  tau(  15) = (  0.4999980  0.4999705  0.9999965  )
        16           Pb  tau(  16) = (  0.4999930  0.4999809  0.3333299  )
        17           Pb  tau(  17) = (  0.4999955  0.4999757  0.6666632  )
        18           Pb  tau(  18) = (  0.4999966  0.7499693  0.9999930  )
        19           Pb  tau(  19) = (  0.4999916  0.7499798  0.3333264  )
        20           Pb  tau(  20) = (  0.4999941  0.7499745  0.6666597  )
        21           Pb  tau(  21) = (  0.4999952  0.9999682  0.9999895  )
        22           Pb  tau(  22) = (  0.4999902  0.9999786  0.3333228  )
        23           Pb  tau(  23) = (  0.4999927  0.9999734  0.6666562  )
        24           Pb  tau(  24) = (  0.7499989  0.2499705  1.0000028  )
        25           Pb  tau(  25) = (  0.7499939  0.2499809  0.3333362  )
        26           Pb  tau(  26) = (  0.7499964  0.2499757  0.6666695  )
        27           Pb  tau(  27) = (  0.7499975  0.4999694  0.9999993  )
        28           Pb  tau(  28) = (  0.7499925  0.4999798  0.3333326  )
        29           Pb  tau(  29) = (  0.7499950  0.4999746  0.6666660  )
        30           Pb  tau(  30) = (  0.7499960  0.7499682  0.9999958  )
        31           Pb  tau(  31) = (  0.7499910  0.7499786  0.3333291  )
        32           Pb  tau(  32) = (  0.7499935  0.7499734  0.6666625  )
        33           Pb  tau(  33) = (  0.7499946  0.9999671  0.9999923  )
        34           Pb  tau(  34) = (  0.7499896  0.9999775  0.3333256  )
        35           Pb  tau(  35) = (  0.7499921  0.9999723  0.6666590  )
        36           Pb  tau(  36) = (  0.9999983  0.2499694  1.0000056  )
        37           Pb  tau(  37) = (  0.9999933  0.2499798  0.3333389  )
        38           Pb  tau(  38) = (  0.9999958  0.2499746  0.6666723  )
        39           Pb  tau(  39) = (  0.9999969  0.4999682  1.0000021  )
        40           Pb  tau(  40) = (  0.9999919  0.4999787  0.3333354  )
        41           Pb  tau(  41) = (  0.9999944  0.4999735  0.6666687  )
        42           Pb  tau(  42) = (  0.9999955  0.7499671  0.9999986  )
        43           Pb  tau(  43) = (  0.9999905  0.7499775  0.3333319  )
        44           Pb  tau(  44) = (  0.9999930  0.7499723  0.6666652  )
        45           Pb  tau(  45) = (  0.9999941  0.9999659  0.9999951  )
        46           Pb  tau(  46) = (  0.9999891  0.9999764  0.3333284  )
        47           Pb  tau(  47) = (  0.9999916  0.9999712  0.6666617  )
        48           I   tau(  48) = (  0.1666641  0.0833174  0.2477120  )
        49           I   tau(  49) = (  0.1666666  0.0833122  0.5810454  )
        50           I   tau(  50) = (  0.1666691  0.0833070  0.9143787  )
        51           I   tau(  51) = (  0.1666626  0.3333162  0.2477085  )
        52           I   tau(  52) = (  0.1666651  0.3333110  0.5810418  )
        53           I   tau(  53) = (  0.1666676  0.3333058  0.9143752  )
        54           I   tau(  54) = (  0.1666612  0.5833151  0.2477050  )
        55           I   tau(  55) = (  0.1666637  0.5833099  0.5810383  )
        56           I   tau(  56) = (  0.1666662  0.5833047  0.9143717  )
        57           I   tau(  57) = (  0.1666598  0.8333139  0.2477015  )
        58           I   tau(  58) = (  0.1666623  0.8333087  0.5810348  )
        59           I   tau(  59) = (  0.1666648  0.8333035  0.9143682  )
        60           I   tau(  60) = (  0.4166635  0.0833163  0.2477148  )
        61           I   tau(  61) = (  0.4166660  0.0833111  0.5810481  )
        62           I   tau(  62) = (  0.4166685  0.0833058  0.9143815  )
        63           I   tau(  63) = (  0.4166621  0.3333151  0.2477113  )
        64           I   tau(  64) = (  0.4166646  0.3333099  0.5810446  )
        65           I   tau(  65) = (  0.4166671  0.3333047  0.9143780  )
        66           I   tau(  66) = (  0.4166607  0.5833140  0.2477078  )
        67           I   tau(  67) = (  0.4166632  0.5833088  0.5810411  )
        68           I   tau(  68) = (  0.4166657  0.5833035  0.9143744  )
        69           I   tau(  69) = (  0.4166593  0.8333128  0.2477043  )
        70           I   tau(  70) = (  0.4166618  0.8333076  0.5810376  )
        71           I   tau(  71) = (  0.4166643  0.8333024  0.9143709  )
        72           I   tau(  72) = (  0.6666629  0.0833152  0.2477176  )
        73           I   tau(  73) = (  0.6666654  0.0833099  0.5810509  )
        74           I   tau(  74) = (  0.6666679  0.0833047  0.9143842  )
        75           I   tau(  75) = (  0.6666615  0.3333140  0.2477141  )
        76           I   tau(  76) = (  0.6666640  0.3333088  0.5810474  )
        77           I   tau(  77) = (  0.6666665  0.3333036  0.9143807  )
        78           I   tau(  78) = (  0.6666601  0.5833129  0.2477106  )
        79           I   tau(  79) = (  0.6666626  0.5833076  0.5810439  )
        80           I   tau(  80) = (  0.6666651  0.5833024  0.9143772  )
        81           I   tau(  81) = (  0.6666587  0.8333117  0.2477070  )
        82           I   tau(  82) = (  0.6666612  0.8333065  0.5810404  )
        83           I   tau(  83) = (  0.6666637  0.8333013  0.9143737  )
        84           I   tau(  84) = (  0.9166624  0.0833141  0.2477203  )
        85           I   tau(  85) = (  0.9166649  0.0833088  0.5810537  )
        86           I   tau(  86) = (  0.9166674  0.0833036  0.9143870  )
        87           I   tau(  87) = (  0.9166610  0.3333129  0.2477168  )
        88           I   tau(  88) = (  0.9166635  0.3333077  0.5810502  )
        89           I   tau(  89) = (  0.9166660  0.3333025  0.9143835  )
        90           I   tau(  90) = (  0.9166596  0.5833118  0.2477133  )
        91           I   tau(  91) = (  0.9166621  0.5833065  0.5810467  )
        92           I   tau(  92) = (  0.9166646  0.5833013  0.9143800  )
        93           I   tau(  93) = (  0.9166582  0.8333106  0.2477098  )
        94           I   tau(  94) = (  0.9166607  0.8333054  0.5810431  )
        95           I   tau(  95) = (  0.9166632  0.8333002  0.9143765  )
        96           I   tau(  96) = (  0.0833271  0.1666576  0.0856171  )
        97           I   tau(  97) = (  0.0833296  0.1666524  0.4189505  )
        98           I   tau(  98) = (  0.0833321  0.1666472  0.7522838  )
        99           I   tau(  99) = (  0.0833257  0.4166565  0.0856136  )
       100           I   tau( 100) = (  0.0833282  0.4166513  0.4189470  )
       101           I   tau( 101) = (  0.0833307  0.4166460  0.7522803  )
       102           I   tau( 102) = (  0.0833243  0.6666553  0.0856101  )
       103           I   tau( 103) = (  0.0833268  0.6666501  0.4189434  )
       104           I   tau( 104) = (  0.0833293  0.6666449  0.7522768  )
       105           I   tau( 105) = (  0.0833229  0.9166542  0.0856066  )
       106           I   tau( 106) = (  0.0833254  0.9166489  0.4189399  )
       107           I   tau( 107) = (  0.0833279  0.9166437  0.7522733  )
       108           I   tau( 108) = (  0.3333265  0.1666565  0.0856199  )
       109           I   tau( 109) = (  0.3333290  0.1666513  0.4189532  )
       110           I   tau( 110) = (  0.3333315  0.1666461  0.7522866  )
       111           I   tau( 111) = (  0.3333251  0.4166554  0.0856164  )
       112           I   tau( 112) = (  0.3333276  0.4166501  0.4189497  )
       113           I   tau( 113) = (  0.3333301  0.4166449  0.7522831  )
       114           I   tau( 114) = (  0.3333237  0.6666542  0.0856129  )
       115           I   tau( 115) = (  0.3333262  0.6666490  0.4189462  )
       116           I   tau( 116) = (  0.3333287  0.6666438  0.7522795  )
       117           I   tau( 117) = (  0.3333223  0.9166531  0.0856094  )
       118           I   tau( 118) = (  0.3333248  0.9166478  0.4189427  )
       119           I   tau( 119) = (  0.3333273  0.9166426  0.7522760  )
       120           I   tau( 120) = (  0.5833260  0.1666554  0.0856227  )
       121           I   tau( 121) = (  0.5833285  0.1666502  0.4189560  )
       122           I   tau( 122) = (  0.5833310  0.1666450  0.7522893  )
       123           I   tau( 123) = (  0.5833246  0.4166542  0.0856192  )
       124           I   tau( 124) = (  0.5833271  0.4166490  0.4189525  )
       125           I   tau( 125) = (  0.5833296  0.4166438  0.7522858  )
       126           I   tau( 126) = (  0.5833232  0.6666531  0.0856157  )
       127           I   tau( 127) = (  0.5833257  0.6666479  0.4189490  )
       128           I   tau( 128) = (  0.5833282  0.6666427  0.7522823  )
       129           I   tau( 129) = (  0.5833218  0.9166519  0.0856121  )
       130           I   tau( 130) = (  0.5833243  0.9166467  0.4189455  )
       131           I   tau( 131) = (  0.5833268  0.9166415  0.7522788  )
       132           I   tau( 132) = (  0.8333254  0.1666543  0.0856254  )
       133           I   tau( 133) = (  0.8333279  0.1666491  0.4189588  )
       134           I   tau( 134) = (  0.8333304  0.1666438  0.7522921  )
       135           I   tau( 135) = (  0.8333240  0.4166531  0.0856219  )
       136           I   tau( 136) = (  0.8333265  0.4166479  0.4189553  )
       137           I   tau( 137) = (  0.8333290  0.4166427  0.7522886  )
       138           I   tau( 138) = (  0.8333226  0.6666520  0.0856184  )
       139           I   tau( 139) = (  0.8333251  0.6666468  0.4189518  )
       140           I   tau( 140) = (  0.8333276  0.6666415  0.7522851  )
       141           I   tau( 141) = (  0.8333212  0.9166508  0.0856149  )
       142           I   tau( 142) = (  0.8333237  0.9166456  0.4189482  )
       143           I   tau( 143) = (  0.8333262  0.9166404  0.7522816  )

     number of k points=     1  Gaussian smearing, width (Ry)=  0.0100
                       cart. coord. in units 2pi/alat
        k(    1) = (   0.0000000   0.0000000   0.0000000), wk =   2.0000000

                       cryst. coord.
        k(    1) = (   0.0000000   0.0000000   0.0000000), wk =   2.0000000

     Dense  grid:  5079105 G-vectors     FFT dimensions: ( 216, 216, 250)

     Smooth grid:  3634441 G-vectors     FFT dimensions: ( 192, 192, 225)

     Dynamical RAM for                 wfc:      37.22 MB

     Dynamical RAM for     wfc (w. buffer):      37.22 MB

     Dynamical RAM for           str. fact:       0.61 MB

     Dynamical RAM for           local pot:       0.00 MB

     Dynamical RAM for          nlocal pot:      69.68 MB

     Dynamical RAM for                qrad:       3.00 MB

     Dynamical RAM for          rho,v,vnew:       1.98 MB

     Dynamical RAM for               rhoin:       0.66 MB

     Dynamical RAM for            rho*nmix:       4.84 MB

     Dynamical RAM for           G-vectors:       1.24 MB

     Dynamical RAM for          h,s,v(r/c):    1384.74 MB

     Dynamical RAM for          <psi|beta>:      54.00 MB

     Dynamical RAM for                 psi:     148.88 MB

     Dynamical RAM for                hpsi:     148.88 MB

     Dynamical RAM for                spsi:     148.88 MB

     Dynamical RAM for      wfcinit/wfcrot:     117.72 MB

     Dynamical RAM for           addusdens:      85.38 MB

     Dynamical RAM for          addusforce:     143.42 MB

     Dynamical RAM for         addusstress:      60.85 MB

     Estimated static dynamical RAM per process >     117.07 MB

     Estimated max dynamical RAM per process >       1.96 GB

     Estimated total dynamical RAM >     501.82 GB

     Atomic positions and unit cell read from directory:
     ./PbI2.save/
     Atomic positions from file used, from input discarded
 

     Check: negative core charge=   -0.000001

     The initial density is read from file :
     ./PbI2.save/charge-density



     %%%%%%%%%%%%%%%%%%%%%%%%%%%%%%%%%%%%%%%%%%%%%%%%%%%%%%%%%%%%%%%%%%%%%%%%
     %                                                                      %
     % You are using vdW-DF, which was implemented by the Thonhauser group. %
     % Please cite the following two papers that made this development      %
     % possible and the two reviews that describe the various versions:     %
     %                                                                      %
     %   T. Thonhauser et al., PRL 115, 136402 (2015).                      %
     %   T. Thonhauser et al., PRB 76, 125112 (2007).                       %
     %   K. Berland et al., Rep. Prog. Phys. 78, 066501 (2015).             %
     %   D.C. Langreth et al., J. Phys.: Condens. Matter 21, 084203 (2009). %
     %                                                                      %
     % If you are calculating stress with vdW-DF, please also cite:         %
     %                                                                      %
     %   R. Sabatini et al., J. Phys.: Condens. Matter 24, 424209 (2012).   %
     %                                                                      %
     %%%%%%%%%%%%%%%%%%%%%%%%%%%%%%%%%%%%%%%%%%%%%%%%%%%%%%%%%%%%%%%%%%%%%%%%

     %%%%%%%%%%%%%%%%%%%%%%%%%%%%%%%%%%%%%%%%%%%%%%%%%%%%%%%%%%%%%%%%%%%%%%%%
     %                                                                      %
     %  vdW-DF NEWS:                                                        %
     %                                                                      %
     %  * vdW-DF3 is now available. DOI: 10.1021/acs.jctc.0c00471           %
     %    use with input_dft = 'vdW-DF3-opt1' or 'vdW-DF3-opt2'             %
     %                                                                      %
     %  * Unscreened and range-separated vdW-DF hybrid functionals          %
     %    DOI: 10.1063/1.4986522 and 10.1088/1361-648X/ac2ad2               %
     %    use with input_dft = 'vdW-DF-cx0' (etc) and 'vdW-DF-ahcx'         %
     %                                                                      %
     %%%%%%%%%%%%%%%%%%%%%%%%%%%%%%%%%%%%%%%%%%%%%%%%%%%%%%%%%%%%%%%%%%%%%%%%


     Carrying out vdW-DF run using the following parameters:
     Nqs    =  20  Npoints =  1024  r_max =  100.000
     q_mesh =  0.00001000  0.04494208  0.09755937  0.15916263
               0.23128650  0.31572767  0.41458969  0.53033537
               0.66584808  0.82450364  1.01025438  1.22772762
               1.48234092  1.78043706  2.12944203  2.53805004
               3.01644009  3.57652955  4.23227104  5.00000000


     -----------------------------------------------
     Non-local corr. energy    =      68.79474440 Ry
     -----------------------------------------------

     Starting wfcs from file
     Checking if some PAW data can be deallocated... 
       PAW data deallocated on  162 nodes for type:  1
       PAW data deallocated on   94 nodes for type:  2

     total cpu time spent up to now is       46.4 secs

     Self-consistent Calculation

     iteration #  1     ecut=    70.00 Ry     beta= 0.70
     Davidson diagonalization with overlap

---- Real-time Memory Report at c_bands before calling an iterative solver
           370 MiB given to the printing process from OS
             0 MiB allocation reported by mallinfo(arena+hblkhd)
       1886981 MiB available memory on the node where the printing process lives
------------------
     ethr =  1.00E-05,  avg # of iterations =  1.0

     Threshold (ethr) on eigenvalues was too large:
     Diagonalizing with lowered threshold

     Davidson diagonalization with overlap

---- Real-time Memory Report at c_bands before calling an iterative solver
          1400 MiB given to the printing process from OS
             0 MiB allocation reported by mallinfo(arena+hblkhd)
       1865651 MiB available memory on the node where the printing process lives
------------------
     c_bands:  3 eigenvalues not converged
     ethr =  4.44E-13,  avg # of iterations = 20.0


     -----------------------------------------------
     Non-local corr. energy    =      68.79474501 Ry
     -----------------------------------------------


     total cpu time spent up to now is      730.0 secs

     End of self-consistent calculation

          k = 0.0000 0.0000 0.0000 (454335 PWs)   bands (ev):

   -40.9553 -40.9553 -40.9552 -40.9552 -40.9552 -40.9552 -40.9552 -40.9552
   -40.9551 -40.9551 -40.9551 -40.9551 -40.9544 -40.9544 -40.9544 -40.9544
   -40.9544 -40.9544 -40.9544 -40.9544 -40.9544 -40.9544 -40.9544 -40.9544
   -40.9544 -40.9544 -40.9544 -40.9544 -40.9544 -40.9543 -40.9543 -40.9543
   -40.9543 -40.9543 -40.9543 -40.9543 -40.9542 -40.9542 -40.9542 -40.9542
   -40.9542 -40.9542 -40.9540 -40.9540 -40.9540 -40.9540 -40.9540 -40.9539
   -40.9533 -40.9533 -40.9533 -40.9533 -40.9533 -40.9533 -40.9533 -40.9533
   -40.9533 -40.9533 -40.9533 -40.9533 -40.9533 -40.9533 -40.9533 -40.9533
   -40.9532 -40.9532 -40.9532 -40.9532 -40.9532 -40.9532 -40.9532 -40.9532
   -40.9530 -40.9530 -40.9530 -40.9530 -40.9529 -40.9529 -40.9523 -40.9523
   -40.9522 -40.9522 -40.9522 -40.9522 -40.9522 -40.9522 -40.9522 -40.9522
   -40.9522 -40.9522 -40.9522 -40.9522 -40.9521 -40.9521 -40.9518 -40.9518
   -40.9518 -40.9518 -40.9518 -40.9518 -40.9517 -40.9516 -40.9516 -40.9516
   -40.9516 -40.9515 -40.9512 -40.9512 -40.9511 -40.9511 -40.9505 -40.9505
   -40.9505 -40.9505 -40.9504 -40.9504 -40.9504 -40.9504 -40.9504 -40.9504
   -40.9504 -40.9503 -40.9503 -40.9503 -40.9503 -40.9503 -40.9502 -40.9502
   -40.9502 -40.9502 -40.9501 -40.9501 -40.9501 -40.9501 -40.9501 -40.9500
   -40.9492 -40.9491 -40.9491 -40.9491 -40.9491 -40.9491 -40.9490 -40.9490
   -40.9489 -40.9489 -40.9489 -40.9488 -40.9487 -40.9487 -40.9487 -40.9487
   -40.9486 -40.9486 -40.9475 -40.9475 -40.9475 -40.9475 -40.9475 -40.9474
   -40.9437 -40.9437 -40.9437 -40.9437 -40.9437 -40.9436 -40.9436 -40.9436
   -40.9436 -40.9436 -40.9436 -40.9436 -40.9433 -40.9433 -40.9433 -40.9433
   -40.9433 -40.9433 -40.9432 -40.9432 -40.9431 -40.9431 -40.9431 -40.9431
   -40.9431 -40.9431 -40.9431 -40.9431 -40.9431 -40.9431 -40.9431 -40.9431
   -40.9431 -40.9431 -40.9431 -40.9431 -40.9424 -40.9424 -40.9424 -40.9424
   -40.9424 -40.9424 -40.9423 -40.9423 -40.9423 -40.9423 -40.9423 -40.9423
   -40.9422 -40.9422 -40.9422 -40.9422 -40.9422 -40.9422 -40.9421 -40.9421
   -40.9421 -40.9421 -40.9420 -40.9420 -40.9406 -40.9406 -40.9406 -40.9405
   -40.9405 -40.9405 -40.9403 -40.9403 -40.9403 -40.9403 -40.9403 -40.9403
   -40.9399 -40.9399 -40.9399 -40.9399 -40.9399 -40.9399 -40.9399 -40.9399
   -40.9398 -40.9398 -40.9398 -40.9398 -40.9398 -40.9398 -40.9398 -40.9398
   -40.9398 -40.9398 -40.9397 -40.9397 -40.9397 -40.9396 -40.9396 -40.9396
   -40.9396 -40.9396 -40.9396 -40.9396 -40.9396 -40.9396 -40.9393 -40.9393
   -40.9393 -40.9393 -40.9393 -40.9393 -40.9393 -40.9392 -40.9392 -40.9392
   -40.9392 -40.9392 -40.9392 -40.9392 -40.9392 -40.9392 -40.9392 -40.9392
   -40.9390 -40.9390 -40.9390 -40.9390 -40.9390 -40.9390 -40.9386 -40.9386
   -40.9386 -40.9385 -40.9385 -40.9385 -40.9385 -40.9385 -40.9385 -40.9385
   -40.9385 -40.9385 -40.9384 -40.9383 -40.9383 -40.9383 -40.9383 -40.9383
   -40.9383 -40.9383 -40.9383 -40.9383 -40.9383 -40.9383 -40.9269 -40.9268
   -40.9268 -40.9268 -40.9268 -40.9267 -40.9260 -40.9260 -40.9260 -40.9260
   -40.7316 -40.7316 -40.7316 -40.7316 -40.7316 -40.7315 -40.7309 -40.7309
   -40.7308 -40.7308 -40.7308 -40.7308 -40.7290 -40.7290 -40.7290 -40.7290
   -40.7290 -40.7289 -40.7261 -40.7261 -40.7261 -40.7261 -40.7242 -40.7241
   -40.7241 -40.7241 -40.7239 -40.7239 -40.7239 -40.7239 -40.7239 -40.7239
   -40.7238 -40.7238 -40.7238 -40.7238 -40.7237 -40.7237 -40.7232 -40.7232
   -40.6965 -40.6965 -40.6965 -40.6965 -40.6964 -40.6964 -40.6954 -40.6954
   -40.6954 -40.6954 -40.6954 -40.6954 -40.6945 -40.6945 -40.6945 -40.6945
   -40.6944 -40.6944 -40.6930 -40.6929 -40.6929 -40.6929 -40.6929 -40.6929
   -40.6923 -40.6922 -40.6922 -40.6922 -40.6922 -40.6922 -40.6543 -40.6543
   -40.6543 -40.6543 -40.6542 -40.6542 -40.6542 -40.6542 -40.6542 -40.6542
   -40.6542 -40.6542 -40.6535 -40.6534 -40.6534 -40.6534 -40.6534 -40.6534
   -40.6534 -40.6534 -40.6534 -40.6534 -40.6533 -40.6533 -40.6413 -40.6413
   -40.6413 -40.6413 -40.6413 -40.6413 -40.6413 -40.6413 -40.6413 -40.6413
   -40.6413 -40.6412 -40.6381 -40.6381 -40.6381 -40.6381 -40.6381 -40.6380
   -40.6380 -40.6380 -40.6380 -40.6380 -40.6380 -40.6379 -40.6355 -40.6354
   -40.6354 -40.6354 -40.6354 -40.6354 -40.6354 -40.6354 -40.6354 -40.6354
   -40.6354 -40.6353 -40.4932 -40.4931 -40.4931 -40.4931 -40.4931 -40.4931
   -40.4922 -40.4921 -40.4921 -40.4921 -40.4921 -40.4921 -40.4197 -40.4196
   -40.4196 -40.4196 -40.4196 -40.4196 -40.4152 -40.4152 -40.4152 -40.4152
   -40.4152 -40.4151 -40.3935 -40.3935 -40.3935 -40.3935 -40.3935 -40.3934
   -13.1214 -13.1214 -13.1214 -13.1214 -13.1208 -13.1208 -13.1152 -13.1152
   -13.1152 -13.1152 -13.1146 -13.1146 -13.1134 -13.1134 -13.1134 -13.1134
   -13.1132 -13.1131 -13.1110 -13.1110 -13.1104 -13.1104 -13.1104 -13.1104
   -13.1087 -13.1087 -13.1087 -13.1087 -13.1078 -13.1077 -13.1033 -13.1033
   -13.1032 -13.1032 -13.1021 -13.1020 -13.1015 -13.1015 -13.1015 -13.1015
   -13.1007 -13.1006 -13.1000 -13.1000 -13.1000 -13.1000 -13.0980 -13.0980
   -13.0980 -13.0980 -13.0979 -13.0979 -13.0977 -13.0977 -13.0975 -13.0975
   -13.0971 -13.0971 -13.0970 -13.0970 -13.0970 -13.0970 -13.0959 -13.0959
   -13.0959 -13.0959 -13.0958 -13.0958 -13.0957 -13.0957 -13.0956 -13.0956
   -13.0947 -13.0947 -13.0946 -13.0946 -13.0939 -13.0939 -13.0930 -13.0930
   -13.0930 -13.0930 -13.0928 -13.0928 -13.0927 -13.0927 -13.0926 -13.0926
   -13.0926 -13.0926 -13.0925 -13.0925 -13.0925 -13.0925 -13.0924 -13.0924
   -13.0923 -13.0923 -13.0923 -13.0923 -13.0922 -13.0922 -13.0917 -13.0917
   -13.0917 -13.0917 -13.0912 -13.0911 -13.0907 -13.0907 -13.0906 -13.0906
   -13.0904 -13.0904 -13.0900 -13.0900 -13.0900 -13.0900 -13.0897 -13.0897
   -13.0896 -13.0896 -13.0894 -13.0894 -13.0880 -13.0880 -13.0880 -13.0880
   -13.0876 -13.0875 -13.0873 -13.0873 -13.0871 -13.0871 -13.0871 -13.0871
   -13.0855 -13.0855 -13.0850 -13.0850 -13.0850 -13.0850 -13.0849 -13.0849
   -13.0837 -13.0837 -13.0837 -13.0837 -13.0827 -13.0826 -13.0817 -13.0817
   -13.0816 -13.0816 -13.0791 -13.0790 -13.0790 -13.0790 -13.0777 -13.0777
   -12.8718 -12.8710 -12.8660 -12.8660 -12.8633 -12.8633 -12.8603 -12.8603
   -12.8598 -12.8598 -12.8568 -12.8554 -12.8512 -12.8511 -12.8492 -12.8492
   -12.8491 -12.8491 -12.8462 -12.8462 -12.8462 -12.8462 -12.8459 -12.8449
   -12.8447 -12.8446 -12.8438 -12.8436 -12.8434 -12.8434 -12.8317 -12.8296
   -12.8296 -12.8248 -12.8248 -12.8247 -12.8155 -12.8155 -12.8148 -12.8147
   -12.8138 -12.8137 -12.8093 -12.8092 -12.8092 -12.7832 -12.7792 -12.7792
   -12.7708 -12.7708 -12.7655 -12.7650 -12.7599 -12.7599 -12.7569 -12.7566
   -12.7566 -12.7563 -12.7553 -12.7552 -12.7531 -12.7531 -12.7519 -12.7496
   -12.7496 -12.7490 -12.7473 -12.7473 -12.7438 -12.7351 -12.7345 -12.7344
   -12.7328 -12.7328 -12.7321  -8.2637  -8.2201  -8.0652  -8.0652  -8.0649
    -8.0645  -8.0645  -8.0636  -8.0292  -8.0292  -8.0289  -8.0286  -8.0286
    -8.0276  -7.9526  -7.8281  -7.8070  -7.8070  -7.8069  -7.8060  -7.8056
    -7.8056  -7.8037  -7.7894  -7.7894  -7.7889  -7.7889  -7.7887  -7.7886
    -7.7869  -7.7869  -7.7852  -7.7820  -7.7820  -7.7813  -7.7737  -7.7737
    -7.7717  -7.7717  -7.7688  -7.7523  -7.7309  -7.7224  -7.7224  -7.7182
    -7.7182  -7.7029  -7.7029  -7.7026  -7.7025  -7.7025  -7.7020  -7.6892
    -7.6892  -7.6866  -7.6747  -7.6727  -7.6727  -7.6726  -7.6721  -7.6721
    -7.6692  -7.6692  -7.6653  -7.6556  -7.6520  -7.6520  -7.6509  -7.6503
    -7.6503  -7.6477  -7.5636  -7.5514  -7.5514  -7.5216  -7.5216  -7.5048
    -7.4885  -7.4744  -7.4563  -7.4548  -7.4548  -7.4265  -7.4251  -7.4250
    -7.4160  -7.4159  -7.3913  -7.3913  -7.3592  -7.3092  -7.2754  -7.2754
    -7.1973  -7.1972  -7.1722  -3.8181  -3.8172  -3.8172  -3.8124  -3.8118
    -3.8118  -3.8044  -3.8044  -3.8041  -3.8041  -3.8040  -3.8038  -3.8032
    -3.8030  -3.8007  -3.8007  -3.8002  -3.8002  -3.5560  -3.5560  -3.5538
    -3.5494  -3.5493  -3.5482  -3.5481  -3.5472  -3.5472  -3.5370  -3.5370
    -3.5351  -3.5349  -3.5348  -3.5348  -3.5272  -3.5272  -3.4890  -3.4828
    -3.4828  -3.3462  -3.3045  -3.3014  -3.3003  -3.2630  -3.2630  -3.2013
    -3.2012  -3.0454   0.7407   0.7407   0.7409   0.8441   0.8441   0.8454
     1.0357   1.0357   1.0373   1.0383   1.0393   1.0393   1.1016   1.1029
     1.1039   1.1039   1.1060   1.1060   1.1517   1.1517   1.1602   1.2535
     1.2535   1.2544   1.2567   1.2567   1.2606   1.2994   1.3017   1.3019
     1.3019   1.3046   1.3046   1.3287   1.3307   1.3307   1.3309   1.3310
     1.3330   1.4065   1.4065   1.4273   1.4297   1.4361   1.4361   1.4466
     1.4466   1.4546   1.4666   1.4666   1.4885   1.5333   1.5430   1.5430
     1.5622   1.6105   1.6105   1.6227   1.6540   1.6540   1.6799   1.6810
     1.6826   1.6826   1.6842   1.6842   1.7040   1.7342   1.7342   1.7557
     1.7557   1.7565   1.7685   1.7685   1.7744   1.7744   1.7744   1.7760
     1.7949   1.8193   1.8193   1.8195   1.8258   1.8258   1.8440   1.8441
     1.8441   1.9052   1.9081   1.9081   1.9085   1.9112   1.9113   2.0082
     2.0246   2.0247   2.0305   2.0317   2.0317   2.0322   2.0391   2.0391
     2.0441   2.0650   2.0664   2.0664   2.0669   2.0669   2.0687   2.0687
     2.0687   2.0743   2.0743   2.1009   2.1191   2.1191   2.1191   2.1193
     2.1202   2.1202   2.1221   2.1388   2.1388   2.1399   2.1439   2.1784
     2.1784   2.2054   2.2060   2.2106   2.2106   2.2224   2.2224   2.2440
     2.2440   2.2532   2.3539   2.3560   2.3560   2.3639   2.3697   2.3709
     2.3709   2.4112   2.4588   2.4588   2.4630   2.4637   2.4654   2.4654
     2.4690   2.4793   2.4793   2.4943   2.4943   2.5206   2.5315   2.5315
     2.5509   2.5535   2.5535   2.5630   2.5630   2.5654   2.5684   2.5684
     2.6240   2.6248   2.6248   2.6335   2.6341   2.6341   2.6357   2.6364
     2.6396   2.6396   2.6418   2.6418   2.6672   2.6672   2.6804   2.7171
     2.7171   2.7180   2.7202   2.7220   2.7220   2.7228   2.7228   2.7234
     2.7324   2.7324   2.7340   2.7397   2.7397   2.7479   2.7538   2.7538
     2.7552   2.7675   2.7675   2.7722   2.7722   2.7976   2.7976   2.8069
     2.8073   2.8074   2.8074   2.8079   2.8079   2.8205   2.8448   2.8692
     2.8745   2.8837   2.8837   2.8842   2.8842   2.9159   2.9159   2.9275
     2.9372   2.9372   2.9467   2.9563   2.9563   2.9591   2.9666   2.9666
     2.9698   2.9759   2.9759   2.9834   3.0101   3.0170   3.0170   3.0182
     3.0205   3.0205   3.0252   3.0252   3.0394   3.0478   3.0530   3.0530
     3.0585   3.0585   3.0687   3.0692   3.0692   3.0698   3.0698   3.0871
     3.0934   3.1684   3.1914   3.1914   3.1933   3.1935   3.1935   3.1970
     3.1970   3.1983   3.1983   3.2007   3.2007   3.2032   3.2032   3.2199
     3.2284   3.3047   3.3048   3.3848   3.3931   3.3931   3.3993   3.4055
     3.4055   3.4381   3.4662   3.4665   3.4665   3.5055   3.5055   3.5202
     3.5203   3.5237   5.7981   5.8885   6.2051   6.3240   6.3240   6.3245
     6.3260   6.3267   6.3267   6.4440   6.4440   6.4525   6.4548   6.4548
     6.4572   6.4750   6.4750   6.4917   6.6415   6.6415   6.6436   6.6448
     6.6448   6.6916   6.6916   6.7610   6.7610   6.7786   6.7890   6.7890
     6.7961   6.8749   6.8749   6.8754   6.8754   6.8766   6.8772   6.9342
     6.9342   6.9489   6.9524   6.9663   6.9663   6.9701   6.9701   7.0054
     7.0054   7.0060   7.0061   7.0082   7.0082   7.0404   7.0586   7.0586
     7.0687   7.0687   7.0692   7.0703   7.0964   7.0964   7.0999   7.1002
     7.1002   7.1045   7.1078   7.1078   7.1745   7.1745   7.1766   7.1766
     7.1806   7.1828   7.1837   7.1844   7.1844   7.1995   7.2004   7.2011
     7.2012   7.2081   7.2081   7.2194   7.2217   7.2217   7.2262   7.2262
     7.2683   7.3273   7.3291   7.3291   7.3348   7.3372   7.3372   7.3674
     7.3674   7.3810   7.3846   7.3853   7.3854   7.3931   7.3931   7.3965
     7.4117   7.4146   7.4149   7.4149   7.4292   7.4544   7.4544   7.4614
     7.4614   7.5281   7.5352   7.5358   7.5358   7.5429   7.5452   7.5452
     7.5457   7.5459   7.5459   7.5521   7.5521   7.5648   7.5649   7.6006
     7.6213   7.6327   7.6327   7.6415   7.6533   7.6533   7.6812   7.7991
     7.7991   7.8170   7.8170   7.8977   7.9916   8.0155   8.0155   9.0804
     9.0804   9.0806   9.4374   9.4375   9.4375   9.6534   9.6695   9.6695
     9.6726   9.6726   9.6728   9.6737   9.6755   9.6755   9.7114   9.8131
     9.8131   9.8151   9.8347   9.8644   9.8644   9.9461   9.9461   9.9493
     9.9493   9.9575   9.9681  10.1228  10.1594  10.1594  10.1713  10.1803
    10.1803  10.1820  10.1820  10.1830  10.1830  10.1843  10.1843  10.1856
    10.1977  10.2036  10.2053  10.2202  10.2391  10.2391  10.2522  10.3437
    10.3578  10.3578  10.3875  10.4049  10.4049  10.4902  10.5434  10.5434
    10.5590  10.5855  10.5855  10.6885  10.6885  10.6941  10.6941  10.7058
    10.7284  10.7549  10.7699  10.7706  10.7706  10.8016  10.8074  10.8074
    10.8147  10.8147  10.8151  10.8924  10.8924  10.9126  10.9126  10.9386
    10.9456  10.9478  10.9478  10.9531  10.9889  10.9980  10.9995

     occupation numbers 
     1.0000   1.0000   1.0000   1.0000   1.0000   1.0000   1.0000   1.0000
     1.0000   1.0000   1.0000   1.0000   1.0000   1.0000   1.0000   1.0000
     1.0000   1.0000   1.0000   1.0000   1.0000   1.0000   1.0000   1.0000
     1.0000   1.0000   1.0000   1.0000   1.0000   1.0000   1.0000   1.0000
     1.0000   1.0000   1.0000   1.0000   1.0000   1.0000   1.0000   1.0000
     1.0000   1.0000   1.0000   1.0000   1.0000   1.0000   1.0000   1.0000
     1.0000   1.0000   1.0000   1.0000   1.0000   1.0000   1.0000   1.0000
     1.0000   1.0000   1.0000   1.0000   1.0000   1.0000   1.0000   1.0000
     1.0000   1.0000   1.0000   1.0000   1.0000   1.0000   1.0000   1.0000
     1.0000   1.0000   1.0000   1.0000   1.0000   1.0000   1.0000   1.0000
     1.0000   1.0000   1.0000   1.0000   1.0000   1.0000   1.0000   1.0000
     1.0000   1.0000   1.0000   1.0000   1.0000   1.0000   1.0000   1.0000
     1.0000   1.0000   1.0000   1.0000   1.0000   1.0000   1.0000   1.0000
     1.0000   1.0000   1.0000   1.0000   1.0000   1.0000   1.0000   1.0000
     1.0000   1.0000   1.0000   1.0000   1.0000   1.0000   1.0000   1.0000
     1.0000   1.0000   1.0000   1.0000   1.0000   1.0000   1.0000   1.0000
     1.0000   1.0000   1.0000   1.0000   1.0000   1.0000   1.0000   1.0000
     1.0000   1.0000   1.0000   1.0000   1.0000   1.0000   1.0000   1.0000
     1.0000   1.0000   1.0000   1.0000   1.0000   1.0000   1.0000   1.0000
     1.0000   1.0000   1.0000   1.0000   1.0000   1.0000   1.0000   1.0000
     1.0000   1.0000   1.0000   1.0000   1.0000   1.0000   1.0000   1.0000
     1.0000   1.0000   1.0000   1.0000   1.0000   1.0000   1.0000   1.0000
     1.0000   1.0000   1.0000   1.0000   1.0000   1.0000   1.0000   1.0000
     1.0000   1.0000   1.0000   1.0000   1.0000   1.0000   1.0000   1.0000
     1.0000   1.0000   1.0000   1.0000   1.0000   1.0000   1.0000   1.0000
     1.0000   1.0000   1.0000   1.0000   1.0000   1.0000   1.0000   1.0000
     1.0000   1.0000   1.0000   1.0000   1.0000   1.0000   1.0000   1.0000
     1.0000   1.0000   1.0000   1.0000   1.0000   1.0000   1.0000   1.0000
     1.0000   1.0000   1.0000   1.0000   1.0000   1.0000   1.0000   1.0000
     1.0000   1.0000   1.0000   1.0000   1.0000   1.0000   1.0000   1.0000
     1.0000   1.0000   1.0000   1.0000   1.0000   1.0000   1.0000   1.0000
     1.0000   1.0000   1.0000   1.0000   1.0000   1.0000   1.0000   1.0000
     1.0000   1.0000   1.0000   1.0000   1.0000   1.0000   1.0000   1.0000
     1.0000   1.0000   1.0000   1.0000   1.0000   1.0000   1.0000   1.0000
     1.0000   1.0000   1.0000   1.0000   1.0000   1.0000   1.0000   1.0000
     1.0000   1.0000   1.0000   1.0000   1.0000   1.0000   1.0000   1.0000
     1.0000   1.0000   1.0000   1.0000   1.0000   1.0000   1.0000   1.0000
     1.0000   1.0000   1.0000   1.0000   1.0000   1.0000   1.0000   1.0000
     1.0000   1.0000   1.0000   1.0000   1.0000   1.0000   1.0000   1.0000
     1.0000   1.0000   1.0000   1.0000   1.0000   1.0000   1.0000   1.0000
     1.0000   1.0000   1.0000   1.0000   1.0000   1.0000   1.0000   1.0000
     1.0000   1.0000   1.0000   1.0000   1.0000   1.0000   1.0000   1.0000
     1.0000   1.0000   1.0000   1.0000   1.0000   1.0000   1.0000   1.0000
     1.0000   1.0000   1.0000   1.0000   1.0000   1.0000   1.0000   1.0000
     1.0000   1.0000   1.0000   1.0000   1.0000   1.0000   1.0000   1.0000
     1.0000   1.0000   1.0000   1.0000   1.0000   1.0000   1.0000   1.0000
     1.0000   1.0000   1.0000   1.0000   1.0000   1.0000   1.0000   1.0000
     1.0000   1.0000   1.0000   1.0000   1.0000   1.0000   1.0000   1.0000
     1.0000   1.0000   1.0000   1.0000   1.0000   1.0000   1.0000   1.0000
     1.0000   1.0000   1.0000   1.0000   1.0000   1.0000   1.0000   1.0000
     1.0000   1.0000   1.0000   1.0000   1.0000   1.0000   1.0000   1.0000
     1.0000   1.0000   1.0000   1.0000   1.0000   1.0000   1.0000   1.0000
     1.0000   1.0000   1.0000   1.0000   1.0000   1.0000   1.0000   1.0000
     1.0000   1.0000   1.0000   1.0000   1.0000   1.0000   1.0000   1.0000
     1.0000   1.0000   1.0000   1.0000   1.0000   1.0000   1.0000   1.0000
     1.0000   1.0000   1.0000   1.0000   1.0000   1.0000   1.0000   1.0000
     1.0000   1.0000   1.0000   1.0000   1.0000   1.0000   1.0000   1.0000
     1.0000   1.0000   1.0000   1.0000   1.0000   1.0000   1.0000   1.0000
     1.0000   1.0000   1.0000   1.0000   1.0000   1.0000   1.0000   1.0000
     1.0000   1.0000   1.0000   1.0000   1.0000   1.0000   1.0000   1.0000
     1.0000   1.0000   1.0000   1.0000   1.0000   1.0000   1.0000   1.0000
     1.0000   1.0000   1.0000   1.0000   1.0000   1.0000   1.0000   1.0000
     1.0000   1.0000   1.0000   1.0000   1.0000   1.0000   1.0000   1.0000
     1.0000   1.0000   1.0000   1.0000   1.0000   1.0000   1.0000   1.0000
     1.0000   1.0000   1.0000   1.0000   1.0000   1.0000   1.0000   1.0000
     1.0000   1.0000   1.0000   1.0000   1.0000   1.0000   1.0000   1.0000
     1.0000   1.0000   1.0000   1.0000   1.0000   1.0000   1.0000   1.0000
     1.0000   1.0000   1.0000   1.0000   1.0000   1.0000   1.0000   1.0000
     1.0000   1.0000   1.0000   1.0000   1.0000   1.0000   1.0000   1.0000
     1.0000   1.0000   1.0000   1.0000   1.0000   1.0000   1.0000   1.0000
     1.0000   1.0000   1.0000   1.0000   1.0000   1.0000   1.0000   1.0000
     1.0000   1.0000   1.0000   1.0000   1.0000   1.0000   1.0000   1.0000
     1.0000   1.0000   1.0000   1.0000   1.0000   1.0000   1.0000   1.0000
     1.0000   1.0000   1.0000   1.0000   1.0000   1.0000   1.0000   1.0000
     1.0000   1.0000   1.0000   1.0000   1.0000   1.0000   1.0000   1.0000
     1.0000   1.0000   1.0000   1.0000   1.0000   1.0000   1.0000   1.0000
     1.0000   1.0000   1.0000   1.0000   1.0000   1.0000   1.0000   1.0000
     1.0000   1.0000   1.0000   1.0000   1.0000   1.0000   1.0000   1.0000
     1.0000   1.0000   1.0000   1.0000   1.0000   1.0000   1.0000   1.0000
     1.0000   1.0000   1.0000   1.0000   1.0000   1.0000   1.0000   1.0000
     1.0000   1.0000   1.0000   1.0000   1.0000   1.0000   1.0000   1.0000
     1.0000   1.0000   1.0000   1.0000   1.0000   1.0000   1.0000   1.0000
     1.0000   1.0000   1.0000   1.0000   1.0000   1.0000   1.0000   1.0000
     1.0000   1.0000   1.0000   1.0000   1.0000   1.0000   1.0000   1.0000
     1.0000   1.0000   1.0000   1.0000   1.0000   1.0000   1.0000   1.0000
     1.0000   1.0000   1.0000   1.0000   1.0000   1.0000   1.0000   1.0000
     1.0000   1.0000   1.0000   1.0000   1.0000   1.0000   1.0000   1.0000
     1.0000   1.0000   1.0000   1.0000   1.0000   1.0000   1.0000   1.0000
     1.0000   1.0000   1.0000   1.0000   1.0000   1.0000   1.0000   1.0000
     1.0000   1.0000   1.0000   1.0000   1.0000   1.0000   1.0000   1.0000
     1.0000   1.0000   1.0000   1.0000   1.0000   1.0000   1.0000   1.0000
     1.0000   1.0000   1.0000   1.0000   1.0000   1.0000   1.0000   1.0000
     1.0000   1.0000   1.0000   1.0000   1.0000   1.0000   1.0000   1.0000
     1.0000   1.0000   1.0000   1.0000   1.0000   1.0000   1.0000   1.0000
     1.0000   1.0000   1.0000   1.0000   1.0000   1.0000   1.0000   1.0000
     1.0000   1.0000   1.0000   1.0000   1.0000   1.0000   1.0000   1.0000
     1.0000   1.0000   1.0000   1.0000   1.0000   1.0000   1.0000   1.0000
     1.0000   1.0000   1.0000   1.0000   1.0000   1.0000   1.0000   1.0000
     1.0000   1.0000   1.0000   1.0000   1.0000   1.0000   1.0000   1.0000
     1.0000   1.0000   1.0000   1.0000   1.0000   1.0000   1.0000   1.0000
     1.0000   1.0000   1.0000   1.0000   1.0000   1.0000   1.0000   1.0000
     1.0000   1.0000   1.0000   1.0000   1.0000   1.0000   1.0000   1.0000
     1.0000   1.0000   1.0000   1.0000   1.0000   1.0000   1.0000   1.0000
     1.0000   1.0000   1.0000   1.0000   1.0000   1.0000   1.0000   1.0000
     1.0000   1.0000   1.0000   1.0000   1.0000   1.0000   1.0000   1.0000
     1.0000   1.0000   1.0000   1.0000   1.0000   1.0000   1.0000   1.0000
     1.0000   1.0000   1.0000   1.0000   1.0000   1.0000   1.0000   1.0000
     1.0000   1.0000   1.0000   1.0000   1.0000   1.0000   1.0000   1.0000
     1.0000   1.0000   1.0000   1.0000   1.0000   1.0000   1.0000   1.0000
     1.0000   1.0000   1.0000   1.0000   1.0000   1.0000   1.0000   1.0000
     1.0000   1.0000   1.0000   1.0000   1.0000   1.0000   1.0000   1.0000
     1.0000   1.0000   1.0000   1.0000   1.0000   1.0000   1.0000   1.0000
     1.0000   1.0000   1.0000   1.0000   1.0000   1.0000   1.0000   1.0000
     1.0000   1.0000   1.0000   1.0000   1.0000   1.0000   1.0000   1.0000
     1.0000   1.0000   1.0000   1.0000   1.0000   1.0000   1.0000   1.0000
     1.0000   1.0000   1.0000   1.0000   1.0000   1.0000   1.0000   1.0000
     1.0000   1.0000   1.0000   1.0000   1.0000   1.0000   1.0000   1.0000
     1.0000   1.0000   1.0000   1.0000   1.0000   1.0000   1.0000   1.0000
     1.0000   1.0000   1.0000   1.0000   1.0000   1.0000   1.0000   1.0000
     1.0000   1.0000   1.0000   1.0000   1.0000   1.0000   1.0000   1.0000
     1.0000   1.0000   1.0000   1.0000   1.0000   1.0000   1.0000   1.0000
     1.0000   1.0000   1.0000   1.0000   1.0000   1.0000   1.0000   1.0000
     1.0000   1.0000   1.0000   1.0000   1.0000   1.0000   1.0000   1.0000
     1.0000   1.0000   1.0000   1.0000   1.0000   1.0000   1.0000   1.0000
     1.0000   1.0000   1.0000   1.0000   1.0000   1.0000   1.0000   1.0000
     1.0000   1.0000   1.0000   1.0000   1.0000   1.0000   1.0000   1.0000
     1.0000   1.0000   1.0000   1.0000   1.0000   1.0000   1.0000   1.0000
     1.0000   1.0000   1.0000   1.0000   1.0000   1.0000   1.0000   1.0000
     1.0000   1.0000   1.0000   1.0000   1.0000   1.0000   1.0000   1.0000
     1.0000   1.0000   1.0000   1.0000   1.0000   1.0000   1.0000   1.0000
     1.0000   1.0000   1.0000   1.0000   1.0000   1.0000   1.0000   1.0000
     1.0000   1.0000   1.0000   1.0000   1.0000   1.0000   1.0000   1.0000
     1.0000   1.0000   1.0000   1.0000   1.0000   1.0000   1.0000   1.0000
     1.0000   1.0000   1.0000   1.0000   1.0000   1.0000   1.0000   1.0000
     1.0000   1.0000   1.0000   1.0000   1.0000   1.0000   1.0000   1.0000
     1.0000   1.0000   1.0000   1.0000   1.0000   1.0000   1.0000   1.0000
     1.0000   1.0000   1.0000   1.0000   1.0000   1.0000   1.0000   1.0000
     1.0000   1.0000   1.0000   1.0000   1.0000   1.0000   1.0000   1.0000
     1.0000   1.0000   1.0000   1.0000   1.0000   1.0000   1.0000   1.0000
     1.0000   1.0000   1.0000   1.0000   1.0000   1.0000   1.0000   1.0000
     1.0000   1.0000   1.0000   1.0000   1.0000   1.0000   1.0000   1.0000
     1.0000   0.9999   0.9999   0.9973   0.9965   0.9965   0.9958   0.9949
     0.9949   0.9872   0.9738   0.9736   0.9736   0.9372   0.9371   0.9159
     0.9158   0.9101   0.0000   0.0000   0.0000   0.0000   0.0000   0.0000
     0.0000   0.0000   0.0000   0.0000   0.0000   0.0000   0.0000   0.0000
     0.0000   0.0000   0.0000   0.0000   0.0000   0.0000   0.0000   0.0000
     0.0000   0.0000   0.0000   0.0000   0.0000   0.0000   0.0000   0.0000
     0.0000   0.0000   0.0000   0.0000   0.0000   0.0000   0.0000   0.0000
     0.0000   0.0000   0.0000   0.0000   0.0000   0.0000   0.0000   0.0000
     0.0000   0.0000   0.0000   0.0000   0.0000   0.0000   0.0000   0.0000
     0.0000   0.0000   0.0000   0.0000   0.0000   0.0000   0.0000   0.0000
     0.0000   0.0000   0.0000   0.0000   0.0000   0.0000   0.0000   0.0000
     0.0000   0.0000   0.0000   0.0000   0.0000   0.0000   0.0000   0.0000
     0.0000   0.0000   0.0000   0.0000   0.0000   0.0000   0.0000   0.0000
     0.0000   0.0000   0.0000   0.0000   0.0000   0.0000   0.0000   0.0000
     0.0000   0.0000   0.0000   0.0000   0.0000   0.0000   0.0000   0.0000
     0.0000   0.0000   0.0000   0.0000   0.0000   0.0000   0.0000   0.0000
     0.0000   0.0000   0.0000   0.0000   0.0000   0.0000   0.0000   0.0000
     0.0000   0.0000   0.0000   0.0000   0.0000   0.0000   0.0000   0.0000
     0.0000   0.0000   0.0000   0.0000   0.0000   0.0000   0.0000   0.0000
     0.0000   0.0000   0.0000   0.0000   0.0000   0.0000   0.0000   0.0000
     0.0000   0.0000   0.0000   0.0000   0.0000   0.0000   0.0000   0.0000
     0.0000   0.0000   0.0000   0.0000   0.0000   0.0000   0.0000   0.0000
     0.0000   0.0000   0.0000   0.0000   0.0000   0.0000   0.0000   0.0000
     0.0000   0.0000   0.0000   0.0000   0.0000   0.0000   0.0000   0.0000
     0.0000   0.0000   0.0000   0.0000   0.0000   0.0000   0.0000   0.0000
     0.0000   0.0000   0.0000   0.0000   0.0000   0.0000   0.0000   0.0000
     0.0000   0.0000   0.0000   0.0000   0.0000   0.0000   0.0000   0.0000
     0.0000   0.0000   0.0000   0.0000   0.0000   0.0000   0.0000   0.0000
     0.0000   0.0000   0.0000   0.0000   0.0000   0.0000   0.0000   0.0000
     0.0000   0.0000   0.0000   0.0000   0.0000   0.0000   0.0000   0.0000
     0.0000   0.0000   0.0000   0.0000   0.0000   0.0000   0.0000

     the Fermi energy is     3.6528 ev

!    total energy              =  -96237.55635092 Ry
     total all-electron energy =  -3331665.169087 Ry
     estimated scf accuracy    <       0.00000001 Ry
     smearing contrib. (-TS)   =      -0.01423333 Ry
     internal energy E=F+TS    =  -96237.54211760 Ry

     The total energy is F=E-TS. E is the sum of the following terms:
     one-electron contribution =  -17944.65176102 Ry
     hartree contribution      =   10008.18698221 Ry
     xc contribution           =   -6771.70576513 Ry
     ewald contribution        =  -14688.73569821 Ry
     one-center paw contrib.   =  -66840.63587544 Ry
      -> PAW hartree energy AE =      95.94170585 Ry
      -> PAW hartree energy PS =     -96.17876597 Ry
      -> PAW xc energy AE      =    -798.43324211 Ry
      -> PAW xc energy PS      =      33.31296949 Ry
      -> total E_H with PAW    =   10007.94992208 Ry
      -> total E_XC with PAW   =   -7536.82603775 Ry

     convergence has been achieved in   1 iterations


     -----------------------------------------------
     Non-local corr. energy    =      68.79474501 Ry
     -----------------------------------------------


     Forces acting on atoms (cartesian axes, Ry/au):

     atom    1 type  1   force =     0.00000216   -0.00000242    0.00039767
     atom    2 type  1   force =    -0.00000042   -0.00000105   -0.00039353
     atom    3 type  1   force =     0.00039622   -0.00068203   -0.00000468
     atom    4 type  1   force =    -0.00001294    0.00012676    0.00036643
     atom    5 type  1   force =    -0.00010321    0.00007544   -0.00035846
     atom    6 type  1   force =     0.00000038    0.00000106   -0.00000313
     atom    7 type  1   force =     0.00006329    0.00003818    0.00036925
     atom    8 type  1   force =    -0.00006373   -0.00003577   -0.00036267
     atom    9 type  1   force =    -0.00038996    0.00067717   -0.00000180
     atom   10 type  1   force =     0.00010459   -0.00007494    0.00036417
     atom   11 type  1   force =     0.00001297   -0.00012721   -0.00035782
     atom   12 type  1   force =    -0.00078222   -0.00000134   -0.00000298
     atom   13 type  1   force =     0.00011740   -0.00005365    0.00036176
     atom   14 type  1   force =     0.00011633    0.00005159   -0.00036002
     atom   15 type  1   force =    -0.00039101   -0.00067930   -0.00000501
     atom   16 type  1   force =     0.00001558    0.00012608    0.00036337
     atom   17 type  1   force =     0.00010353    0.00007640   -0.00035861
     atom   18 type  1   force =     0.00000220   -0.00009681    0.00020779
     atom   19 type  1   force =     0.00000098    0.00010661    0.00042447
     atom   20 type  1   force =     0.00000086    0.00002181   -0.00032201
     atom   21 type  1   force =    -0.00008485    0.00005055    0.00020897
     atom   22 type  1   force =     0.00009076   -0.00005151    0.00042345
     atom   23 type  1   force =     0.00001828   -0.00001017   -0.00032159
     atom   24 type  1   force =    -0.00000139   -0.00000038   -0.00000629
     atom   25 type  1   force =    -0.00000152   -0.00007443    0.00036702
     atom   26 type  1   force =    -0.00000059    0.00007283   -0.00036399
     atom   27 type  1   force =    -0.00008760   -0.00004686   -0.00022018
     atom   28 type  1   force =     0.00001781    0.00000973    0.00032655
     atom   29 type  1   force =     0.00008998    0.00005397   -0.00041880
     atom   30 type  1   force =    -0.00000101    0.00000026   -0.00000577
     atom   31 type  1   force =    -0.00006243    0.00003674    0.00036733
     atom   32 type  1   force =     0.00006337   -0.00003541   -0.00036210
     atom   33 type  1   force =     0.00008491    0.00004856    0.00020742
     atom   34 type  1   force =    -0.00009143   -0.00005271    0.00042440
     atom   35 type  1   force =    -0.00001769   -0.00001052   -0.00032121
     atom   36 type  1   force =     0.00078476   -0.00000321   -0.00000675
     atom   37 type  1   force =    -0.00011731   -0.00005328    0.00036440
     atom   38 type  1   force =    -0.00011707    0.00005115   -0.00035984
     atom   39 type  1   force =     0.00008283   -0.00004830   -0.00022055
     atom   40 type  1   force =    -0.00001895    0.00001075    0.00032803
     atom   41 type  1   force =    -0.00009174    0.00005357   -0.00041985
     atom   42 type  1   force =    -0.00000357    0.00009884   -0.00021926
     atom   43 type  1   force =     0.00000046   -0.00001974    0.00032666
     atom   44 type  1   force =    -0.00000112   -0.00010362   -0.00041889
     atom   45 type  1   force =     0.00039008    0.00067466   -0.00000564
     atom   46 type  1   force =    -0.00010148   -0.00007595    0.00036378
     atom   47 type  1   force =    -0.00001376   -0.00012716   -0.00035812
     atom   48 type  2   force =     0.00000026    0.00003602   -0.00040692
     atom   49 type  2   force =     0.00000334    0.00006320    0.00032280
     atom   50 type  2   force =     0.00000986    0.00056584   -0.00073216
     atom   51 type  2   force =     0.00002248   -0.00001101   -0.00041361
     atom   52 type  2   force =     0.00005396   -0.00002933    0.00032260
     atom   53 type  2   force =     0.00048659   -0.00027268   -0.00071667
     atom   54 type  2   force =     0.00002023   -0.00000661   -0.00029203
     atom   55 type  2   force =     0.00007907   -0.00002492    0.00029751
     atom   56 type  2   force =     0.00009418   -0.00015066    0.00007465
     atom   57 type  2   force =     0.00001448    0.00001277   -0.00028736
     atom   58 type  2   force =     0.00001945    0.00008330    0.00029682
     atom   59 type  2   force =    -0.00006987    0.00015187    0.00006427
     atom   60 type  2   force =    -0.00000267   -0.00000364   -0.00031515
     atom   61 type  2   force =    -0.00004480    0.00002386    0.00030695
     atom   62 type  2   force =    -0.00021179    0.00011483   -0.00021441
     atom   63 type  2   force =    -0.00003548   -0.00001854   -0.00040704
     atom   64 type  2   force =    -0.00005518   -0.00003330    0.00032418
     atom   65 type  2   force =    -0.00049551   -0.00028884   -0.00073176
     atom   66 type  2   force =    -0.00001443   -0.00000821   -0.00031715
     atom   67 type  2   force =    -0.00000405   -0.00005062    0.00030353
     atom   68 type  2   force =    -0.00002107   -0.00024853   -0.00020797
     atom   69 type  2   force =    -0.00001129   -0.00000838   -0.00022488
     atom   70 type  2   force =     0.00001258    0.00001002    0.00023891
     atom   71 type  2   force =    -0.00006025   -0.00003281    0.00002513
     atom   72 type  2   force =     0.00000016    0.00000834   -0.00022281
     atom   73 type  2   force =    -0.00000352   -0.00001823    0.00023607
     atom   74 type  2   force =    -0.00000730    0.00005858    0.00001951
     atom   75 type  2   force =    -0.00000566   -0.00001669   -0.00028481
     atom   76 type  2   force =    -0.00006404   -0.00005674    0.00029518
     atom   77 type  2   force =    -0.00017451   -0.00001154    0.00005791
     atom   78 type  2   force =    -0.00001836   -0.00000801   -0.00027997
     atom   79 type  2   force =    -0.00007985   -0.00002923    0.00029104
     atom   80 type  2   force =    -0.00009241   -0.00016279    0.00005153
     atom   81 type  2   force =    -0.00000339    0.00000051   -0.00021740
     atom   82 type  2   force =    -0.00002027    0.00001061    0.00023181
     atom   83 type  2   force =     0.00003144   -0.00002432    0.00001347
     atom   84 type  2   force =     0.00000398    0.00001385   -0.00031545
     atom   85 type  2   force =     0.00004403    0.00002803    0.00029888
     atom   86 type  2   force =     0.00020936    0.00013820   -0.00021321
     atom   87 type  2   force =     0.00001945   -0.00000923   -0.00029055
     atom   88 type  2   force =     0.00006294   -0.00005273    0.00029391
     atom   89 type  2   force =     0.00018326    0.00000354    0.00006854
     atom   90 type  2   force =     0.00001375   -0.00000341   -0.00020099
     atom   91 type  2   force =     0.00000364   -0.00000004    0.00020888
     atom   92 type  2   force =     0.00001883   -0.00000379    0.00035676
     atom   93 type  2   force =     0.00000200    0.00002092   -0.00028113
     atom   94 type  2   force =    -0.00001254    0.00008410    0.00028922
     atom   95 type  2   force =     0.00009995    0.00015683    0.00005134
     atom   96 type  2   force =     0.00048164    0.00029632    0.00076695
     atom   97 type  2   force =     0.00005032    0.00003311   -0.00034293
     atom   98 type  2   force =     0.00004084    0.00002823    0.00038981
     atom   99 type  2   force =     0.00020183   -0.00010829    0.00024650
     atom  100 type  2   force =     0.00004179   -0.00002332   -0.00033575
     atom  101 type  2   force =     0.00001212   -0.00000176    0.00030282
     atom  102 type  2   force =     0.00005807    0.00001927    0.00002233
     atom  103 type  2   force =    -0.00001200   -0.00001091   -0.00027204
     atom  104 type  2   force =     0.00001227    0.00000345    0.00020949
     atom  105 type  2   force =     0.00001531    0.00023277    0.00025495
     atom  106 type  2   force =     0.00000285    0.00004864   -0.00032682
     atom  107 type  2   force =     0.00001106    0.00001658    0.00029693
     atom  108 type  2   force =    -0.00048089    0.00027426    0.00076804
     atom  109 type  2   force =    -0.00005164    0.00002914   -0.00033766
     atom  110 type  2   force =    -0.00003478    0.00002043    0.00039198
     atom  111 type  2   force =    -0.00001840   -0.00056311    0.00076062
     atom  112 type  2   force =    -0.00000376   -0.00005980   -0.00034248
     atom  113 type  2   force =    -0.00000339   -0.00004468    0.00039187
     atom  114 type  2   force =     0.00006440   -0.00016074   -0.00001621
     atom  115 type  2   force =    -0.00001846   -0.00008037   -0.00032627
     atom  116 type  2   force =    -0.00001288   -0.00002622    0.00026863
     atom  117 type  2   force =    -0.00009233    0.00013542   -0.00001611
     atom  118 type  2   force =    -0.00007527    0.00002386   -0.00032146
     atom  119 type  2   force =    -0.00002703    0.00000807    0.00026898
     atom  120 type  2   force =    -0.00016917    0.00000448   -0.00001254
     atom  121 type  2   force =    -0.00005948    0.00005234   -0.00032013
     atom  122 type  2   force =    -0.00002466    0.00001680    0.00026576
     atom  123 type  2   force =    -0.00020061   -0.00012475    0.00025314
     atom  124 type  2   force =    -0.00004154   -0.00002646   -0.00032529
     atom  125 type  2   force =    -0.00001394   -0.00001530    0.00029611
     atom  126 type  2   force =    -0.00009713   -0.00015955   -0.00000455
     atom  127 type  2   force =     0.00001226   -0.00008025   -0.00031963
     atom  128 type  2   force =    -0.00000332   -0.00003033    0.00025918
     atom  129 type  2   force =    -0.00001555    0.00000203   -0.00029978
     atom  130 type  2   force =    -0.00000294    0.00000060   -0.00023883
     atom  131 type  2   force =    -0.00001056    0.00000185    0.00017588
     atom  132 type  2   force =     0.00017176    0.00002236   -0.00000999
     atom  133 type  2   force =     0.00006120    0.00005654   -0.00032480
     atom  134 type  2   force =     0.00001645    0.00002507    0.00026440
     atom  135 type  2   force =     0.00001464   -0.00005013    0.00002530
     atom  136 type  2   force =     0.00000448    0.00001748   -0.00027013
     atom  137 type  2   force =     0.00000374   -0.00000654    0.00020653
     atom  138 type  2   force =    -0.00002649    0.00001839    0.00003396
     atom  139 type  2   force =     0.00001978   -0.00001010   -0.00026567
     atom  140 type  2   force =     0.00000284   -0.00000095    0.00020015
     atom  141 type  2   force =     0.00009131    0.00015720   -0.00000077
     atom  142 type  2   force =     0.00007662    0.00002948   -0.00031985
     atom  143 type  2   force =     0.00002483    0.00001404    0.00025805
     The non-local contrib.  to forces
     atom    1 type  1   force =     0.00000423   -0.00002625   -0.00592529
     atom    2 type  1   force =     0.00001395   -0.00003561    0.00592396
     atom    3 type  1   force =     0.03773560   -0.06536329    0.00001334
     atom    4 type  1   force =     0.00112070   -0.00033046   -0.00437923
     atom    5 type  1   force =    -0.00028513   -0.00115358    0.00436916
     atom    6 type  1   force =     0.00000809   -0.00003317    0.00000021
     atom    7 type  1   force =     0.00073736    0.00039536   -0.00288428
     atom    8 type  1   force =    -0.00072034   -0.00045793    0.00288707
     atom    9 type  1   force =    -0.03772572    0.06530482   -0.00000683
     atom   10 type  1   force =     0.00029260    0.00108723   -0.00438696
     atom   11 type  1   force =    -0.00109962    0.00026988    0.00438549
     atom   12 type  1   force =    -0.07543142   -0.00003090   -0.00002334
     atom   13 type  1   force =    -0.00081799   -0.00083931   -0.00438345
     atom   14 type  1   force =    -0.00079986    0.00077731    0.00438413
     atom   15 type  1   force =    -0.03770425   -0.06536441    0.00002210
     atom   16 type  1   force =    -0.00111141   -0.00032802   -0.00437744
     atom   17 type  1   force =     0.00030707   -0.00115712    0.00437880
     atom   18 type  1   force =     0.00001785   -0.01038357    0.01292102
     atom   19 type  1   force =     0.00000440   -0.00124252   -0.00478456
     atom   20 type  1   force =     0.00000957   -0.00060775    0.00296952
     atom   21 type  1   force =    -0.00893401    0.00512707    0.01291008
     atom   22 type  1   force =    -0.00104241    0.00057153   -0.00479107
     atom   23 type  1   force =    -0.00048307    0.00025378    0.00296586
     atom   24 type  1   force =     0.00001862   -0.00004232   -0.00001104
     atom   25 type  1   force =     0.00000882   -0.00087659   -0.00288814
     atom   26 type  1   force =     0.00001699    0.00080911    0.00288175
     atom   27 type  1   force =    -0.00893669   -0.00520558   -0.01291997
     atom   28 type  1   force =    -0.00049380   -0.00031375   -0.00296867
     atom   29 type  1   force =    -0.00103262   -0.00064872    0.00478875
     atom   30 type  1   force =     0.00002627   -0.00003209    0.00000923
     atom   31 type  1   force =    -0.00073018    0.00039504   -0.00288260
     atom   32 type  1   force =     0.00074614   -0.00045948    0.00289082
     atom   33 type  1   force =     0.00897399    0.00512980    0.01291793
     atom   34 type  1   force =     0.00105647    0.00057357   -0.00479239
     atom   35 type  1   force =     0.00050678    0.00025546    0.00296016
     atom   36 type  1   force =     0.07546671   -0.00004196   -0.00001183
     atom   37 type  1   force =     0.00082861   -0.00084270   -0.00437594
     atom   38 type  1   force =     0.00082799    0.00077733    0.00437372
     atom   39 type  1   force =     0.00897540   -0.00521129   -0.01291843
     atom   40 type  1   force =     0.00050481   -0.00031708   -0.00296514
     atom   41 type  1   force =     0.00106067   -0.00064817    0.00478374
     atom   42 type  1   force =     0.00001404    0.01030118   -0.01291643
     atom   43 type  1   force =     0.00000162    0.00054579   -0.00296087
     atom   44 type  1   force =     0.00001333    0.00117345    0.00479976
     atom   45 type  1   force =     0.03774815    0.06530972    0.00001376
     atom   46 type  1   force =    -0.00029297    0.00108271   -0.00437830
     atom   47 type  1   force =     0.00112480    0.00026914    0.00438563
     atom   48 type  2   force =     0.00000768   -0.00073699    0.25781012
     atom   49 type  2   force =     0.00000388   -0.00072309    0.24527508
     atom   50 type  2   force =     0.00000929   -0.14180847    0.18735840
     atom   51 type  2   force =    -0.00064677    0.00039573    0.25780243
     atom   52 type  2   force =    -0.00063818    0.00039512    0.24527357
     atom   53 type  2   force =    -0.12284485    0.07094733    0.18733904
     atom   54 type  2   force =    -0.00010472   -0.00053816    0.25407657
     atom   55 type  2   force =    -0.00038926    0.00058313    0.24507849
     atom   56 type  2   force =    -0.02767870    0.00850517    0.22275505
     atom   57 type  2   force =    -0.00052341    0.00019201    0.25407936
     atom   58 type  2   force =     0.00029647   -0.00060477    0.24507887
     atom   59 type  2   force =    -0.00647520   -0.02820937    0.22274643
     atom   60 type  2   force =     0.00181277   -0.00105353    0.26165379
     atom   61 type  2   force =     0.00069590   -0.00040344    0.24485101
     atom   62 type  2   force =    -0.00482055    0.00277712    0.23560626
     atom   63 type  2   force =     0.00063265    0.00038455    0.25780808
     atom   64 type  2   force =     0.00062271    0.00038696    0.24527569
     atom   65 type  2   force =     0.12281212    0.07092125    0.18734486
     atom   66 type  2   force =    -0.00001920    0.00211120    0.26165290
     atom   67 type  2   force =    -0.00001683    0.00082930    0.24484620
     atom   68 type  2   force =    -0.00002673   -0.00554194    0.23560684
     atom   69 type  2   force =     0.00032688    0.00019998    0.25671533
     atom   70 type  2   force =     0.00009213    0.00007117    0.24515865
     atom   71 type  2   force =    -0.00480617   -0.00274925    0.23212471
     atom   72 type  2   force =    -0.00000461   -0.00038705    0.25671665
     atom   73 type  2   force =    -0.00000891   -0.00011384    0.24515551
     atom   74 type  2   force =    -0.00001786    0.00553489    0.23212064
     atom   75 type  2   force =    -0.00042685    0.00038911    0.25408070
     atom   76 type  2   force =     0.00067361    0.00007892    0.24507634
     atom   77 type  2   force =     0.02118273    0.01974273    0.22274092
     atom   78 type  2   force =     0.00010487   -0.00054413    0.25408361
     atom   79 type  2   force =     0.00038188    0.00057784    0.24507140
     atom   80 type  2   force =     0.02767151    0.00849738    0.22272950
     atom   81 type  2   force =    -0.00035040    0.00020882    0.25671904
     atom   82 type  2   force =    -0.00011709    0.00007582    0.24515039
     atom   83 type  2   force =     0.00476191   -0.00274461    0.23210990
     atom   84 type  2   force =    -0.00181866   -0.00103699    0.26165430
     atom   85 type  2   force =    -0.00070926   -0.00039405    0.24484224
     atom   86 type  2   force =     0.00480728    0.00279785    0.23560541
     atom   87 type  2   force =     0.00042956    0.00039641    0.25407691
     atom   88 type  2   force =    -0.00068672    0.00008341    0.24507478
     atom   89 type  2   force =    -0.02119116    0.01975961    0.22274897
     atom   90 type  2   force =     0.00000849    0.00001500    0.25367472
     atom   91 type  2   force =    -0.00000042    0.00001667    0.24364132
     atom   92 type  2   force =     0.00000769    0.00001923    0.23395110
     atom   93 type  2   force =     0.00054241    0.00019776    0.25408281
     atom   94 type  2   force =    -0.00029248   -0.00060372    0.24507054
     atom   95 type  2   force =     0.00649371   -0.02821055    0.22272919
     atom   96 type  2   force =    -0.12285031   -0.07089007   -0.18731599
     atom   97 type  2   force =    -0.00065108   -0.00034568   -0.24529162
[...]
              0.136871556738051E+02
             -0.760497724960237E+02
              0.616790732574817E+03
             -0.353692229120217E+02
              0.132654294124865E+03
              0.444796110549221E+03
              0.976096054713330E+02
             -0.351041901384268E+03
             -0.511583413725248E+03
              0.537132916114479E+01
             -0.575410520243009E+03
              0.195218032345250E+03
             -0.116494202324550E+03
             -0.270206520933377E+03
              0.242991101436563E+03
              0.932300805380282E+02
              0.219209015619247E+03
              0.194224193880934E+02
              0.349120057491714E+03
             -0.570544909770542E+03
             -0.522628518501870E+02
             -0.497596489890338E+03
              0.897521315492518E+02
              0.269486082587417E+03
             -0.497005181079412E+02
             -0.187404531851184E+03
              0.400918299051589E+03
             -0.185908942949303E+03
              0.130614890385074E+03
             -0.116607291307687E+03
              0.286226665424599E+03
              0.345649889982788E+03
             -0.149072635542628E+03
              0.297426713194959E+03
              0.114129405239839E+03
             -0.306663053359672E+03
             -0.183418599985357E+03
              0.494499427428142E+03
              0.234367856318765E+03
             -0.226069342001231E+02
             -0.664895327370687E+02
              0.726876354867563E+03
              0.435885779423434E+03
              0.159771038316485E+03
             -0.465737135517593E+03
              0.729527739404105E+03
             -0.329900012021276E+03
             -0.409064738521428E+03
             -0.633582998709604E+03
              0.305396550279416E+03
             -0.579685329587337E+03
              0.251408571394208E+03
              0.412731353285400E+03
              0.305902900918412E+03
              0.649175914249430E+02
              0.182368390835594E+03
             -0.456933473166585E+03
             -0.162499159461182E+03
             -0.147322744049808E+03
              0.220728691525948E+03
              0.492697409065936E+03
              0.485756196396263E+03
              0.371768727669891E+03
             -0.917937543829739E+02
              0.132023982611922E+03
              0.184862905655236E+02
             -0.145994025987708E+03
              0.217805600196436E+03
              0.208545687956137E+03
             -0.297553478312092E+03
             -0.301318042115906E+03
             -0.138116691844178E+03
              0.320068203280411E+03
              0.162892194566513E+03
             -0.217978068708336E+03
             -0.379622321201492E+03
             -0.521554620436574E+03
              0.108813315290522E+02
              0.148490571767914E+03
             -0.201799989147465E+03
              0.740926651769473E+03
              0.698191252126162E+01
             -0.860684602778080E+03
              0.215849973243642E+03
              0.355216752224416E+03
             -0.129032501244383E+03
              0.136545118120517E+02
             -0.194639271155746E+03
              0.330487319208784E+03
              0.163152844936329E+03
             -0.434920000393723E+03
              0.516485446781761E+03
              0.351275116827203E+02
             -0.206256804323935E+03
             -0.254297269942176E+03
              0.103540068609535E+04
              0.462775349064050E+03
             -0.116140843395423E+03
              0.255375821250414E+03
             -0.504614753556387E+03
             -0.109447122660380E+03
             -0.448478803960678E+03
              0.173248732862539E+03
              0.321859133329382E+03
              0.354019444033649E+03
             -0.155180679839961E+03
              0.268543410035327E+02
              0.441129560643054E+03
              0.141102724591871E+03
              0.262971444866862E+03
              0.106955173225394E+03
             -0.592276933306173E+02
              0.111850526354692E+01
             -0.820223694520287E+02
              0.914222501899017E+02
              0.306871762066380E+02
             -0.400691988863004E+03
              0.613902956449026E+03
              0.236231224452409E+03
             -0.435045693454913E+03
             -0.319663582236279E+03
             -0.451274453352877E+03
             -0.195673637738741E+03
             -0.141896897214033E+03
             -0.357013879076402E+03
             -0.352410572546503E+03
              0.424273013103017E+03
              0.337711652309906E+03
             -0.466381058350062E+02
              0.506985603916047E+03
              0.731325504901179E+02
             -0.814689334178500E+03
              0.437430229918497E+03
              0.746537891882704E+02
              0.343529025158421E+03
              0.464458647927268E+02
              0.386710397643374E+02
              0.699867255124359E+02
              0.185608068693408E+03
             -0.339950263137336E+03
             -0.160394436164597E+03
             -0.321397725708005E+03
             -0.266034216592745E+03
              0.110846015934834E+03
             -0.295139143660305E+03
              0.142226293762439E+03
              0.195307154027400E+03
             -0.180917790532189E+03
             -0.115531165678932E+03
              0.758729928286562E+01
              0.506438987795793E+03
              0.766297243110430E+02
              0.486173721155011E+03
              0.174250471001047E+03
             -0.642756703735392E+03
             -0.213172491229813E+03
              0.219179309601510E+03
              0.505713108129602E+03
              0.835037291476299E+02
              0.207866720978049E+03
              0.465383903940251E+03
             -0.269501237635498E+03
             -0.413658672879572E+03
              0.573611822324691E+03
              0.333399978213574E+02
             -0.606283143505059E+03
              0.221481567819571E+03
              0.383774691212563E+03
             -0.981774253066396E+02
             -0.399664264535950E+03
              0.832957474634409E+02
              0.172237804196366E+02
             -0.194203837374250E+03
              0.743250581574966E+02
             -0.647218889451120E+02
              0.902037910302391E+03
              0.262579301892535E+03
             -0.382057421584713E+03
              0.112868570376159E+03
              0.549217507203446E+03
             -0.371245680803068E+03
             -0.966568381689822E+02
             -0.351108891911285E+03
              0.281315320312119E+03
              0.890070842780185E+02
              0.186003858950164E+03
              0.336877493191430E+02
              0.638021237978026E+03
             -0.362833123488675E+03
             -0.286585084761940E+03
             -0.276640208130272E+03
              0.243043204398558E+03
              0.634007545184141E+03
             -0.105963825922565E+03
              0.259447176691210E+03
             -0.368447451190985E+03
              0.707107667854036E+02
             -0.117960857616096E+03
              0.257681006194571E+02
             -0.142829808865582E+03
             -0.116477468402364E+03
             -0.114387468018437E+03
              0.942669099839923E+02
              0.184245850481347E+03
             -0.401741946821128E+03
              0.297504312473135E+03
             -0.478883187470989E+03
              0.361353601748334E+03
             -0.381895338906397E+03
              0.619027381574068E+03
              0.340063281608622E+03
              0.391425056639744E+03
              0.971768303089088E+02
              0.114260882427539E+03
             -0.855116822267830E+03
              0.138839567918880E+03
              0.314144939849375E+02
              0.815738813300886E+02
             -0.139602612970923E+03
              0.661104666146125E+03
             -0.153548557327219E+03
             -0.273297566633958E+03
             -0.639817604245685E+03
             -0.222031689624097E+03
             -0.306958871423189E+03
             -0.266823879880470E+03
             -0.602688053642587E+02
             -0.146147820374689E+03
             -0.185746022453547E+03
             -0.284702844944338E+03
              0.217904986149864E+03
              0.686919973060995E+03
              0.580358244221654E+03
             -0.102995549342239E+03
             -0.697682469996560E+03
             -0.297439865643739E+03
              0.142650282919768E+03
              0.142717961305350E+03
              0.228090555214624E+03
              0.160294243025401E+03
              0.283097591349811E+02
              0.681655471120371E+03
             -0.165707997499353E+03
              0.334895105492526E+03
              0.172203013481640E+03
             -0.232145642511618E+03
             -0.111274297131466E+03
              0.308837688881419E+03
             -0.164962968548517E+03
             -0.101324215913476E+03
             -0.751043877425664E+02
              0.397693301049334E+03
             -0.523059246327512E+03
             -0.419898649086058E+02
             -0.403666968577492E+03
             -0.857720427171490E+03
             -0.224597832956033E+01
             -0.126523492496889E+03
              0.333339486888282E+03
              0.370650764335502E+03
              0.506931679596703E+03
             -0.329668315004415E+03
              0.512484969081044E+03
              0.128125622351106E+03
             -0.190244363422544E+03
              0.684449225681448E+02
             -0.161888629694714E+03
             -0.957661239547306E+02
              0.295985709326778E+03
             -0.245137732705256E+03
              0.657555539405082E+03
             -0.175336332827632E+03
             -0.363427202630849E+03
              0.687643823878790E+03
             -0.372233665726586E+03
             -0.299753977089986E+02
              0.362041503003452E+02
              0.198503307006313E+03
             -0.290533288100108E+03
             -0.221384109671353E+03
              0.353184714401422E+03
             -0.531322650127420E+03
              0.438202591350966E+03
              0.647744979126483E+02
              0.313977871171383E+03
              0.454991008073050E+03
              0.116514476950879E+03
             -0.632218539040576E+03
             -0.273598583238174E+03
             -0.456371156434534E+03
             -0.271517150698986E+03
             -0.723825161444415E+02
              0.979379508448217E+02
             -0.212928760173239E+03
             -0.367764225122119E+01
             -0.634906939010050E+03
              0.354814098692484E+02
             -0.409417902685848E+03
              0.396877697379573E+03
             -0.232659209135306E+03
             -0.560368292353532E+02
              0.299547451504549E+03
              0.592122305016501E+02
              0.278418049148882E+03
             -0.530724583381249E+03
              0.882448834050228E+02
              0.362800315929915E+02
              0.228445254580170E+03
              0.366212611212543E+03
             -0.676670606085554E+02
             -0.416975222053505E+03
             -0.240994433139631E+03
             -0.170156579683664E+03
             -0.501741547279107E+02
              0.388814067908732E+03
              0.252401560109440E+03
             -0.255722771483825E+03
             -0.239901695251049E+03
              0.176133155235263E+03
              0.191852838122461E+03
             -0.518281736525535E+03
              0.120872681405551E+03
              0.371752380148604E+03
             -0.165292182215006E+02
              0.468139824559309E+03
              0.216280930004193E+03
              0.368434315139412E+03
              0.560045860522521E+03
              0.844730028239342E+02
             -0.763282698076316E+03
              0.105303679368008E+03
              0.825159178666670E+03
              0.599795125817933E+03
             -0.413568417281079E+03
              0.373196957322263E+02
              0.536774765556617E+03
              0.465273089151394E+03
              0.204507015682893E+03
             -0.123725609165126E+03
              0.205359432766411E+03
              0.425277051591603E+03
             -0.196568516284317E+03
             -0.126520997954176E+03
              0.288032623584244E+03
             -0.173414194082425E+02
              0.258485553265276E+03
             -0.800349793396999E+02
              0.539218836002233E+03
             -0.205773578342910E+03
              0.123743356160716E+03
             -0.228557747007113E+03
              0.266907392007806E+03
             -0.362247735650167E+02
              0.397654966995928E+03
              0.284201312183368E+02
              0.177981810941483E+03
             -0.252846461465962E+03
             -0.176867120678105E+03
             -0.901874035640171E+02
             -0.821309727022040E+02
              0.432893501064105E+03
              0.213015948848424E+03
              0.525412545494801E+03
              0.484864307487805E+03
              0.136013629174899E+03
              0.244652208842731E+02
              0.516799414802250E+03
              0.290439078937957E+03
              0.413936357280818E+00
              0.503311813132439E+03
             -0.413091313117639E+03
              0.144830278973714E+03
             -0.269113537079359E+03
             -0.730454576440829E+02
              0.695959758632976E+03
             -0.974742464054689E+02
             -0.289931124048321E+02
             -0.757620032651009E+02
              0.571727383822165E+03
             -0.122790435984843E+03
             -0.104898081242727E+02
              0.115350101482412E+04
             -0.341447745581518E+03
             -0.426118451377496E+03
             -0.426533829943202E+03
             -0.272485785685451E+03
              0.248369986603158E+03
             -0.111516899455953E+03
              0.632041508937268E+02
             -0.289267378407330E+02
              0.146125826533536E+03
              0.234768691532490E+03
              0.273606801862373E+03
              0.393765645086539E+03
              0.252266933723055E+03
              0.257171689222588E+03
             -0.475908883573573E+03
             -0.491489724421958E+03
             -0.110798611909789E+03
             -0.439322421146688E+03
              0.697521024076398E+03
              0.587616579764562E+03
              0.277133840508480E+03
              0.763954294467341E+03
             -0.381811311152444E+03
             -0.164422554090851E+03
             -0.236980815851263E+03
              0.660898549464846E+03
 
 BEEF-vdW xc energy contributions
            1 :    -5974.063938108819     
            2 :     5474.161967029975     
            3 :    -4621.846797263515     
            4 :     3644.295754251330     
            5 :    -2755.283765809410     
            6 :     2086.391072461385     
            7 :    -1665.697573781932     
            8 :     1437.532657551282     
            9 :    -1304.651817444497     
           10 :     1174.849097109601     
           11 :    -996.1628097552348     
           12 :     768.4126432134672     
           13 :    -528.9595680037528     
           14 :     323.9222898014250     
           15 :    -182.2896835738175     
           16 :     104.9564315976568     
           17 :    -69.80453825856421     
           18 :     46.22057680865782     
           19 :    -10.63575534620941     
           20 :    -43.65051099762786     
           21 :     106.0997388626747     
           22 :    -157.5374486530982     
           23 :     182.6581671842732     
           24 :    -179.2109091489292     
           25 :     158.9506696705394     
           26 :    -140.6544380917258     
           27 :     139.8403212413068     
           28 :    -160.8722845560042     
           29 :     195.2191152776832     
           30 :    -226.3772542562219     
           31 :    -513.9241111305391     
           32 :    -369.6912498185529     

     Writing all to output data dir ./PbI2.save/
 
     init_run     :     27.58s CPU     44.56s WALL (       1 calls)
     electrons    :    680.07s CPU    693.15s WALL (       1 calls)
     forces       :     11.10s CPU     11.50s WALL (       1 calls)
     stress       :    178.22s CPU    180.20s WALL (       1 calls)

     Called by init_run:
     wfcinit      :     21.35s CPU     37.81s WALL (       1 calls)
     potinit      :      1.38s CPU      1.63s WALL (       1 calls)
     hinit0       :      1.01s CPU      1.08s WALL (       1 calls)

     Called by electrons:
     c_bands      :    649.02s CPU    661.19s WALL (       2 calls)
     sum_band     :     20.23s CPU     20.72s WALL (       2 calls)
     v_of_rho     :      1.68s CPU      1.74s WALL (       2 calls)
     v_h          :      0.03s CPU      0.03s WALL (       2 calls)
     v_xc         :     29.28s CPU     29.65s WALL (      38 calls)
     newd         :      0.50s CPU      0.67s WALL (       2 calls)
     PAW_pot      :      0.56s CPU      0.57s WALL (       2 calls)
     mix_rho      :      0.00s CPU      0.00s WALL (       2 calls)
     vdW_kernel   :      0.15s CPU      0.15s WALL (       1 calls)

     Called by c_bands:
     init_us_2    :      0.20s CPU      0.22s WALL (       4 calls)
     init_us_2:cp :      0.20s CPU      0.22s WALL (       4 calls)
     cegterg      :    644.03s CPU    654.90s WALL (       2 calls)

     Called by sum_band:
     sum_band:wei :      0.00s CPU      0.00s WALL (       2 calls)
     sum_band:loo :     19.66s CPU     19.82s WALL (       2 calls)
     sum_band:buf :      0.00s CPU      0.00s WALL (       2 calls)
     sum_band:ini :      0.16s CPU      0.17s WALL (       2 calls)
     sum_band:cal :      4.15s CPU      4.18s WALL (       2 calls)
     sum_band:bec :      0.07s CPU      0.07s WALL (       2 calls)
     addusdens    :      0.50s CPU      0.71s WALL (       2 calls)
     addusd:skk   :      0.05s CPU      0.07s WALL (       4 calls)
     addusd:dgemm :      0.27s CPU      0.46s WALL (       4 calls)
     addusd:qvan2 :      0.17s CPU      0.17s WALL (       4 calls)

     Called by *egterg:
     cdiaghg      :    492.94s CPU    498.49s WALL (      21 calls)
     cegterg:over :     14.81s CPU     15.58s WALL (      21 calls)
     cegterg:upda :      6.75s CPU      6.90s WALL (      21 calls)
     cegterg:last :      4.09s CPU      4.13s WALL (       2 calls)
     h_psi        :    107.61s CPU    108.83s WALL (      23 calls)
     s_psi        :      8.61s CPU      8.90s WALL (      23 calls)
     g_psi        :      0.06s CPU      0.06s WALL (      21 calls)

     Called by h_psi:
     h_psi:calbec :     10.30s CPU     10.40s WALL (      23 calls)
     vloc_psi     :     88.51s CPU     89.24s WALL (      23 calls)
     vloc_psi:tg_ :      0.01s CPU      0.01s WALL (      23 calls)
     add_vuspsi   :      8.65s CPU      8.94s WALL (      23 calls)

     General routines
     calbec       :     24.85s CPU     25.05s WALL (      30 calls)
     fft          :     24.61s CPU     24.86s WALL (    2232 calls)
     ffts         :      0.04s CPU      0.04s WALL (       4 calls)
     fftw         :    102.28s CPU    103.10s WALL (   14920 calls)
     interpolate  :      0.06s CPU      0.06s WALL (       2 calls)
 
     Parallel routines
     fft_scatt_xy :      2.00s CPU      2.03s WALL (   17156 calls)
     fft_scatt_yz :    113.28s CPU    114.15s WALL (   17156 calls)
     fft_scatt_tg :      0.10s CPU      0.11s WALL (   14920 calls)

     PAW routines
     PAW_pot      :      0.56s CPU      0.57s WALL (       2 calls)
 
     PWSCF        :  15m43.47s CPU  16m28.01s WALL

 
   This run was terminated on:   8:11:45  18Feb2024            

=------------------------------------------------------------------------------=
   JOB DONE.
=------------------------------------------------------------------------------=
