
     Program PWSCF v.7.1 starts on 27Mar2024 at 22:25:31 

     This program is part of the open-source Quantum ESPRESSO suite
     for quantum simulation of materials; please cite
         "P. Giannozzi et al., J. Phys.:Condens. Matter 21 395502 (2009);
         "P. Giannozzi et al., J. Phys.:Condens. Matter 29 465901 (2017);
         "P. Giannozzi et al., J. Chem. Phys. 152 154105 (2020);
          URL http://www.quantum-espresso.org", 
     in publications or presentations arising from this work. More details at
     http://www.quantum-espresso.org/quote

     Parallel version (MPI & OpenMP), running on      27 processor cores
     Number of MPI processes:                27
     Threads/MPI process:                     1

     MPI processes distributed on     1 nodes
     1961409 MiB available memory on the printing compute node when the environment starts
 
     Reading input from espresso.pwi
Warning: card &CELL ignored
Warning: card    CELL_DYNAMICS    = 'BFGS' ignored
Warning: card / ignored

     Current dimensions of program PWSCF are:
     Max number of different atomic species (ntypx) = 10
     Max number of k-points (npk) =  40000
     Max angular momentum in pseudopotentials (lmaxx) =  4
     file Ga.pbe-dn-kjpaw_psl.1.0.0.UPF: wavefunction(s)  4S renormalized
     file N.pbe-n-kjpaw_psl.1.0.0.UPF: wavefunction(s)  2S renormalized

     **************************************************************************
     Initializing libbeef V0.1.2 with the BEEF-vdW functional.
     Citation: Wellendorff et al., PRB 85, 235149 (2012).
     **************************************************************************


     IMPORTANT: XC functional enforced from input :
     Exchange-correlation= BEEF-VDW
                           (   1   4  43  14   2   0   0)
     Any further DFT definition will be discarded
     Please, verify this is what you really want

     Found identity + (  0.0000  0.0000  0.5000) symmetry
     This is a supercell, fractional translations are disabled
 
     R & G space division:  proc/nbgrp/npool/nimage =      27
     Subspace diagonalization in iterative solution of the eigenvalue problem:
     a serial algorithm will be used

 
     Parallelization info
     --------------------
     sticks:   dense  smooth     PW     G-vecs:    dense   smooth      PW
     Min         134     107     28                10662     7629    1068
     Max         135     108     29                10667     7636    1077
     Sum        3643    2905    769               287969   206075   28939
 
     Using Slab Decomposition
 


     bravais-lattice index     =            4
     lattice parameter (alat)  =      12.2626  a.u.
     unit-cell volume          =    2602.7676 (a.u.)^3
     number of atoms/cell      =           32
     number of atomic types    =            2
     number of electrons       =       288.00
     number of Kohn-Sham states=          173
     kinetic-energy cutoff     =      70.0000  Ry
     charge density cutoff     =     350.0000  Ry
     scf convergence threshold =      1.0E-07
     mixing beta               =       0.7000
     number of iterations used =            8  plain     mixing
     Exchange-correlation= BEEF-VDW
                           (   1   4  43  14   2   0   0)

     celldm(1)=  12.262616  celldm(2)=   0.000000  celldm(3)=   1.629879
     celldm(4)=   0.000000  celldm(5)=   0.000000  celldm(6)=   0.000000

     crystal axes: (cart. coord. in units of alat)
               a(1) = (   1.000000   0.000000   0.000000 )  
               a(2) = (  -0.500000   0.866025   0.000000 )  
               a(3) = (   0.000000   0.000000   1.629879 )  

     reciprocal axes: (cart. coord. in units 2 pi/alat)
               b(1) = (  1.000000  0.577350 -0.000000 )  
               b(2) = (  0.000000  1.154701  0.000000 )  
               b(3) = (  0.000000 -0.000000  0.613542 )  


     PseudoPot. # 1 for Ga read from file:
     /trace/group/acmegroup/atimmins/packages/espresso/pseudo/psl_1.0.0/pslibrary.1.0.0/pbe/PSEUDOPOTENTIALS/Ga.pbe-dn-kjpaw_psl.1.0.0.UPF
     MD5 check sum: cd2a01e492f15b435d17032472d8505c
     Pseudo is Projector augmented-wave + core cor, Zval = 13.0
     Generated using 'atomic' code by A. Dal Corso  v.7.1
     Shape of augmentation charge: PSQ
     Using radial grid of 1205 points,  6 beta functions with: 
                l(1) =   0
                l(2) =   0
                l(3) =   1
                l(4) =   1
                l(5) =   2
                l(6) =   2
     Q(r) pseudized with 0 coefficients 


     PseudoPot. # 2 for N  read from file:
     /trace/group/acmegroup/atimmins/packages/espresso/pseudo/psl_1.0.0/pslibrary.1.0.0/pbe/PSEUDOPOTENTIALS/N.pbe-n-kjpaw_psl.1.0.0.UPF
     MD5 check sum: f77f775694dac7e2c3fe1c82443d1a16
     Pseudo is Projector augmented-wave + core cor, Zval =  5.0
     Generated using 'atomic' code by A. Dal Corso  v.7.1
     Shape of augmentation charge: PSQ
     Using radial grid of 1085 points,  4 beta functions with: 
                l(1) =   0
                l(2) =   0
                l(3) =   1
                l(4) =   1
     Q(r) pseudized with 0 coefficients 


     atomic species   valence    mass     pseudopotential
        Ga            13.00    69.72300     Ga( 1.00)
        N              5.00    14.00700     N ( 1.00)

      6 Sym. Ops. (no inversion) found


                                    s                        frac. trans.

      isym =  1     identity                                     

 cryst.   s( 1) = (     1          0          0      )
                  (     0          1          0      )
                  (     0          0          1      )

 cart.    s( 1) = (  1.0000000  0.0000000  0.0000000 )
                  (  0.0000000  1.0000000  0.0000000 )
                  (  0.0000000  0.0000000  1.0000000 )


      isym =  2     120 deg rotation - cryst. axis [0,0,1]       

 cryst.   s( 2) = (     0          1          0      )
                  (    -1         -1          0      )
                  (     0          0          1      )

 cart.    s( 2) = ( -0.5000000 -0.8660254  0.0000000 )
                  (  0.8660254 -0.5000000  0.0000000 )
                  (  0.0000000  0.0000000  1.0000000 )


      isym =  3     120 deg rotation - cryst. axis [0,0,-1]      

 cryst.   s( 3) = (    -1         -1          0      )
                  (     1          0          0      )
                  (     0          0          1      )

 cart.    s( 3) = ( -0.5000000  0.8660254  0.0000000 )
                  ( -0.8660254 -0.5000000  0.0000000 )
                  (  0.0000000  0.0000000  1.0000000 )


      isym =  4     inv. 180 deg rotation - cart. axis [1,0,0]   

 cryst.   s( 4) = (    -1          0          0      )
                  (     1          1          0      )
                  (     0          0          1      )

 cart.    s( 4) = ( -1.0000000  0.0000000  0.0000000 )
                  (  0.0000000  1.0000000  0.0000000 )
                  (  0.0000000  0.0000000  1.0000000 )


      isym =  5     inv. 180 deg rotation - cryst. axis [0,1,0]  

 cryst.   s( 5) = (     1          1          0      )
                  (     0         -1          0      )
                  (     0          0          1      )

 cart.    s( 5) = (  0.5000000  0.8660254  0.0000000 )
                  (  0.8660254 -0.5000000  0.0000000 )
                  (  0.0000000  0.0000000  1.0000000 )


      isym =  6     inv. 180 deg rotation - cryst. axis [1,1,0]  

 cryst.   s( 6) = (     0         -1          0      )
                  (    -1          0          0      )
                  (     0          0          1      )

 cart.    s( 6) = (  0.5000000 -0.8660254  0.0000000 )
                  ( -0.8660254 -0.5000000  0.0000000 )
                  (  0.0000000  0.0000000  1.0000000 )


     point group C_3v (3m)  
     there are  3 classes
     the character table:

       E     2C3   3s_v 
A_1    1.00  1.00  1.00
A_2    1.00  1.00 -1.00
E      2.00 -1.00  0.00

     the symmetry operations in each class and the name of the first element:

     E        1
          identity                                               
     2C3      2    3
          120 deg rotation - cryst. axis [0,0,1]                 
     3s_v     4    5    6
          inv. 180 deg rotation - cart. axis [1,0,0]             

   Cartesian axes

     site n.     atom                  positions (alat units)
         1           Ga  tau(   1) = (   0.2500002   0.1443375   0.4067871  )
         2           Ga  tau(   2) = (   0.2500002   0.1443375   1.2217266  )
         3           Ga  tau(   3) = (   0.0000002   0.5773502   0.4067871  )
         4           Ga  tau(   4) = (   0.0000002   0.5773502   1.2217266  )
         5           Ga  tau(   5) = (   0.7500002   0.1443375   0.4067871  )
         6           Ga  tau(   6) = (   0.7500002   0.1443375   1.2217266  )
         7           Ga  tau(   7) = (   0.5000002   0.5773502   0.4067871  )
         8           Ga  tau(   8) = (   0.5000002   0.5773502   1.2217266  )
         9           Ga  tau(   9) = (  -0.0000003   0.2886754   0.8142568  )
        10           Ga  tau(  10) = (  -0.0000003   0.2886754   1.6291964  )
        11           Ga  tau(  11) = (  -0.2500003   0.7216881   0.8142568  )
        12           Ga  tau(  12) = (  -0.2500003   0.7216881   1.6291964  )
        13           Ga  tau(  13) = (   0.4999997   0.2886754   0.8142568  )
        14           Ga  tau(  14) = (   0.4999997   0.2886754   1.6291964  )
        15           Ga  tau(  15) = (   0.2499997   0.7216881   0.8142568  )
        16           Ga  tau(  16) = (   0.2499997   0.7216881   1.6291964  )
        17           N   tau(  17) = (   0.2500002   0.1443375   0.7137548  )
        18           N   tau(  18) = (   0.2500002   0.1443375   1.5286943  )
        19           N   tau(  19) = (   0.0000002   0.5773502   0.7137548  )
        20           N   tau(  20) = (   0.0000002   0.5773502   1.5286943  )
        21           N   tau(  21) = (   0.7500002   0.1443375   0.7137548  )
        22           N   tau(  22) = (   0.7500002   0.1443375   1.5286943  )
        23           N   tau(  23) = (   0.5000002   0.5773502   0.7137548  )
        24           N   tau(  24) = (   0.5000002   0.5773502   1.5286943  )
        25           N   tau(  25) = (  -0.0000003   0.2886754   0.3062850  )
        26           N   tau(  26) = (  -0.0000003   0.2886754   1.1212245  )
        27           N   tau(  27) = (  -0.2500003   0.7216881   0.3062850  )
        28           N   tau(  28) = (  -0.2500003   0.7216881   1.1212245  )
        29           N   tau(  29) = (   0.4999997   0.2886754   0.3062850  )
        30           N   tau(  30) = (   0.4999997   0.2886754   1.1212245  )
        31           N   tau(  31) = (   0.2499997   0.7216881   0.3062850  )
        32           N   tau(  32) = (   0.2499997   0.7216881   1.1212245  )

   Crystallographic axes

     site n.     atom                  positions (cryst. coord.)
         1           Ga  tau(   1) = (  0.3333335  0.1666666  0.2495811  )
         2           Ga  tau(   2) = (  0.3333335  0.1666666  0.7495811  )
         3           Ga  tau(   3) = (  0.3333335  0.6666666  0.2495811  )
         4           Ga  tau(   4) = (  0.3333335  0.6666666  0.7495811  )
         5           Ga  tau(   5) = (  0.8333335  0.1666666  0.2495811  )
         6           Ga  tau(   6) = (  0.8333335  0.1666666  0.7495811  )
         7           Ga  tau(   7) = (  0.8333335  0.6666666  0.2495811  )
         8           Ga  tau(   8) = (  0.8333335  0.6666666  0.7495811  )
         9           Ga  tau(   9) = (  0.1666665  0.3333336  0.4995811  )
        10           Ga  tau(  10) = (  0.1666665  0.3333336  0.9995811  )
        11           Ga  tau(  11) = (  0.1666665  0.8333336  0.4995811  )
        12           Ga  tau(  12) = (  0.1666665  0.8333336  0.9995811  )
        13           Ga  tau(  13) = (  0.6666665  0.3333336  0.4995811  )
        14           Ga  tau(  14) = (  0.6666665  0.3333336  0.9995811  )
        15           Ga  tau(  15) = (  0.6666665  0.8333336  0.4995811  )
        16           Ga  tau(  16) = (  0.6666665  0.8333336  0.9995811  )
        17           N   tau(  17) = (  0.3333335  0.1666666  0.4379189  )
        18           N   tau(  18) = (  0.3333335  0.1666666  0.9379189  )
        19           N   tau(  19) = (  0.3333335  0.6666666  0.4379189  )
        20           N   tau(  20) = (  0.3333335  0.6666666  0.9379189  )
        21           N   tau(  21) = (  0.8333335  0.1666666  0.4379189  )
        22           N   tau(  22) = (  0.8333335  0.1666666  0.9379189  )
        23           N   tau(  23) = (  0.8333335  0.6666666  0.4379189  )
        24           N   tau(  24) = (  0.8333335  0.6666666  0.9379189  )
        25           N   tau(  25) = (  0.1666665  0.3333336  0.1879189  )
        26           N   tau(  26) = (  0.1666665  0.3333336  0.6879189  )
        27           N   tau(  27) = (  0.1666665  0.8333336  0.1879189  )
        28           N   tau(  28) = (  0.1666665  0.8333336  0.6879189  )
        29           N   tau(  29) = (  0.6666665  0.3333336  0.1879189  )
        30           N   tau(  30) = (  0.6666665  0.3333336  0.6879189  )
        31           N   tau(  31) = (  0.6666665  0.8333336  0.1879189  )
        32           N   tau(  32) = (  0.6666665  0.8333336  0.6879189  )

     number of k points=     8  Gaussian smearing, width (Ry)=  0.0100
                       cart. coord. in units 2pi/alat
        k(    1) = (   0.0000000   0.0000000   0.0000000), wk =   0.0625000
        k(    2) = (   0.0000000   0.0000000  -0.3067712), wk =   0.0625000
        k(    3) = (   0.0000000   0.2886751   0.0000000), wk =   0.3750000
        k(    4) = (   0.0000000   0.2886751  -0.3067712), wk =   0.3750000
        k(    5) = (   0.0000000  -0.5773503   0.0000000), wk =   0.1875000
        k(    6) = (   0.0000000  -0.5773503  -0.3067712), wk =   0.1875000
        k(    7) = (   0.2500000   0.4330127   0.0000000), wk =   0.3750000
        k(    8) = (   0.2500000   0.4330127  -0.3067712), wk =   0.3750000

                       cryst. coord.
        k(    1) = (   0.0000000   0.0000000   0.0000000), wk =   0.0625000
        k(    2) = (   0.0000000   0.0000000  -0.5000000), wk =   0.0625000
        k(    3) = (   0.0000000   0.2500000   0.0000000), wk =   0.3750000
        k(    4) = (   0.0000000   0.2500000  -0.5000000), wk =   0.3750000
        k(    5) = (   0.0000000  -0.5000000   0.0000000), wk =   0.1875000
        k(    6) = (   0.0000000  -0.5000000  -0.5000000), wk =   0.1875000
        k(    7) = (   0.2500000   0.2500000   0.0000000), wk =   0.3750000
        k(    8) = (   0.2500000   0.2500000  -0.5000000), wk =   0.3750000

     Dense  grid:   287969 G-vectors     FFT dimensions: (  75,  75, 120)

     Smooth grid:   206075 G-vectors     FFT dimensions: (  72,  72, 108)

     Dynamical RAM for                 wfc:       2.52 MB

     Dynamical RAM for     wfc (w. buffer):      22.64 MB

     Dynamical RAM for           str. fact:       0.33 MB

     Dynamical RAM for           local pot:       0.00 MB

     Dynamical RAM for          nlocal pot:       6.05 MB

     Dynamical RAM for                qrad:       3.00 MB

     Dynamical RAM for          rho,v,vnew:       1.13 MB

     Dynamical RAM for               rhoin:       0.38 MB

     Dynamical RAM for            rho*nmix:       2.60 MB

     Dynamical RAM for           G-vectors:       0.67 MB

     Dynamical RAM for          h,s,v(r/c):      21.92 MB

     Dynamical RAM for          <psi|beta>:       1.10 MB

     Dynamical RAM for                 psi:      10.06 MB

     Dynamical RAM for                hpsi:      10.06 MB

     Dynamical RAM for                spsi:      10.06 MB

     Dynamical RAM for      wfcinit/wfcrot:       5.72 MB

     Dynamical RAM for           addusdens:      32.88 MB

     Dynamical RAM for          addusforce:      37.91 MB

     Dynamical RAM for         addusstress:      32.72 MB

     Estimated static dynamical RAM per process >      35.76 MB

     Estimated max dynamical RAM per process >      91.57 MB

     Estimated total dynamical RAM >       2.41 GB

     Atomic positions and unit cell read from directory:
     ./GaN.save/
 

     Check: negative core charge=   -0.000003

     The initial density is read from file :
     ./GaN.save/charge-density



     %%%%%%%%%%%%%%%%%%%%%%%%%%%%%%%%%%%%%%%%%%%%%%%%%%%%%%%%%%%%%%%%%%%%%%%%
     %                                                                      %
     % You are using vdW-DF, which was implemented by the Thonhauser group. %
     % Please cite the following two papers that made this development      %
     % possible and the two reviews that describe the various versions:     %
     %                                                                      %
     %   T. Thonhauser et al., PRL 115, 136402 (2015).                      %
     %   T. Thonhauser et al., PRB 76, 125112 (2007).                       %
     %   K. Berland et al., Rep. Prog. Phys. 78, 066501 (2015).             %
     %   D.C. Langreth et al., J. Phys.: Condens. Matter 21, 084203 (2009). %
     %                                                                      %
     % If you are calculating stress with vdW-DF, please also cite:         %
     %                                                                      %
     %   R. Sabatini et al., J. Phys.: Condens. Matter 24, 424209 (2012).   %
     %                                                                      %
     %%%%%%%%%%%%%%%%%%%%%%%%%%%%%%%%%%%%%%%%%%%%%%%%%%%%%%%%%%%%%%%%%%%%%%%%

     %%%%%%%%%%%%%%%%%%%%%%%%%%%%%%%%%%%%%%%%%%%%%%%%%%%%%%%%%%%%%%%%%%%%%%%%
     %                                                                      %
     %  vdW-DF NEWS:                                                        %
     %                                                                      %
     %  * vdW-DF3 is now available. DOI: 10.1021/acs.jctc.0c00471           %
     %    use with input_dft = 'vdW-DF3-opt1' or 'vdW-DF3-opt2'             %
     %                                                                      %
     %  * Unscreened and range-separated vdW-DF hybrid functionals          %
     %    DOI: 10.1063/1.4986522 and 10.1088/1361-648X/ac2ad2               %
     %    use with input_dft = 'vdW-DF-cx0' (etc) and 'vdW-DF-ahcx'         %
     %                                                                      %
     %%%%%%%%%%%%%%%%%%%%%%%%%%%%%%%%%%%%%%%%%%%%%%%%%%%%%%%%%%%%%%%%%%%%%%%%


     Carrying out vdW-DF run using the following parameters:
     Nqs    =  20  Npoints =  1024  r_max =  100.000
     q_mesh =  0.00001000  0.04494208  0.09755937  0.15916263
               0.23128650  0.31572767  0.41458969  0.53033537
               0.66584808  0.82450364  1.01025438  1.22772762
               1.48234092  1.78043706  2.12944203  2.53805004
               3.01644009  3.57652955  4.23227104  5.00000000


     -----------------------------------------------
     Non-local corr. energy    =       8.72074162 Ry
     -----------------------------------------------

     Starting wfcs from file
     Checking if some PAW data can be deallocated... 
       PAW data deallocated on   16 nodes for type:  1
       PAW data deallocated on   11 nodes for type:  2

     total cpu time spent up to now is        6.3 secs

     Self-consistent Calculation

     iteration #  1     ecut=    70.00 Ry     beta= 0.70
     Davidson diagonalization with overlap

---- Real-time Memory Report at c_bands before calling an iterative solver
           250 MiB given to the printing process from OS
             0 MiB allocation reported by mallinfo(arena+hblkhd)
       1959493 MiB available memory on the node where the printing process lives
------------------
     ethr =  1.00E-05,  avg # of iterations =  1.0

     Threshold (ethr) on eigenvalues was too large:
     Diagonalizing with lowered threshold

     Davidson diagonalization with overlap

---- Real-time Memory Report at c_bands before calling an iterative solver
           298 MiB given to the printing process from OS
             0 MiB allocation reported by mallinfo(arena+hblkhd)
       1958338 MiB available memory on the node where the printing process lives
------------------
     c_bands:  1 eigenvalues not converged
     c_bands:  1 eigenvalues not converged
     c_bands:  2 eigenvalues not converged
     c_bands:  1 eigenvalues not converged
     c_bands:  2 eigenvalues not converged
     ethr =  2.78E-12,  avg # of iterations = 14.4


     -----------------------------------------------
     Non-local corr. energy    =       8.72082308 Ry
     -----------------------------------------------


     total cpu time spent up to now is       29.6 secs

     End of self-consistent calculation

          k = 0.0000 0.0000 0.0000 ( 25781 PWs)   bands (ev):

    -6.8457  -6.4938  -6.4938  -6.3825  -6.3796  -6.3795  -6.3795  -6.3131
    -6.3131  -6.3130  -6.3091  -6.3090  -6.3090  -6.3090  -6.3090  -6.3090
    -5.2603  -5.2471  -5.2471  -5.2311  -5.2311  -5.2310  -5.2310  -5.2047
    -5.2047  -5.2045  -5.2032  -5.2032  -5.2031  -5.2031  -5.2031  -5.2030
    -5.1998  -5.1998  -5.1904  -5.1903  -5.1903  -5.1129  -5.1128  -5.1128
    -5.1128  -5.1127  -5.1127  -5.1117  -5.1117  -5.1116  -5.0790  -5.0790
    -5.0790  -5.0560  -5.0560  -5.0453  -5.0450  -5.0450  -5.0390  -5.0390
    -5.0389  -5.0240  -5.0240  -5.0239  -5.0239  -5.0239  -5.0239  -5.0094
    -5.0094  -5.0093  -5.0093  -4.9817  -4.9814  -4.9814  -4.9768  -4.9768
    -4.9765  -4.9764  -4.9762  -4.9762  -4.9761  -4.9761  -4.9563  -4.9562
    -4.9562  -4.7682  -4.7682  -3.5884  -3.5884  -3.5884  -3.4923  -3.3286
    -3.3286  -3.3286  -3.3286  -3.3286  -3.3286  -2.9950  -2.9950  -2.9949
     2.0964   2.4659   2.4659   2.4659   2.4659   2.4660   2.4660   2.5752
     2.5752   2.5752   3.6401   3.6401   3.6402   4.8326   4.8327   4.8327
     5.0165   5.0165   6.2085   6.2086   6.2086   6.7596   6.7596   6.7596
     6.9533   6.9533   6.9533   6.9533   6.9534   6.9534   6.9826   6.9826
     6.9826   6.9826   6.9826   6.9827   7.8054   7.8055   7.8314   7.8314
     7.8314   8.2850   8.2851   8.2851   8.2851   8.7536   8.7939   8.7940
    10.3052  12.6650  12.6650  12.6961  13.1289  13.1289  13.1289  13.1289
    13.1289  13.1289  13.8580  13.8582  13.8582  14.0072  14.0073  14.0073
    14.9189  14.9189  14.9189  16.2858  16.2858  16.2858  16.2858  16.2858
    16.2858  16.9099  16.9099  16.9100  17.0676

     occupation numbers 
     1.0000   1.0000   1.0000   1.0000   1.0000   1.0000   1.0000   1.0000
     1.0000   1.0000   1.0000   1.0000   1.0000   1.0000   1.0000   1.0000
     1.0000   1.0000   1.0000   1.0000   1.0000   1.0000   1.0000   1.0000
     1.0000   1.0000   1.0000   1.0000   1.0000   1.0000   1.0000   1.0000
     1.0000   1.0000   1.0000   1.0000   1.0000   1.0000   1.0000   1.0000
     1.0000   1.0000   1.0000   1.0000   1.0000   1.0000   1.0000   1.0000
     1.0000   1.0000   1.0000   1.0000   1.0000   1.0000   1.0000   1.0000
     1.0000   1.0000   1.0000   1.0000   1.0000   1.0000   1.0000   1.0000
     1.0000   1.0000   1.0000   1.0000   1.0000   1.0000   1.0000   1.0000
     1.0000   1.0000   1.0000   1.0000   1.0000   1.0000   1.0000   1.0000
     1.0000   1.0000   1.0000   1.0000   1.0000   1.0000   1.0000   1.0000
     1.0000   1.0000   1.0000   1.0000   1.0000   1.0000   1.0000   1.0000
     1.0000   1.0000   1.0000   1.0000   1.0000   1.0000   1.0000   1.0000
     1.0000   1.0000   1.0000   1.0000   1.0000   1.0000   1.0000   1.0000
     1.0000   1.0000   1.0000   1.0000   1.0000   1.0000   1.0000   1.0000
     1.0000   1.0000   1.0000   1.0000   1.0000   1.0000   1.0000   1.0000
     1.0000   1.0000   1.0000   1.0000   1.0000   1.0000   1.0000   1.0000
     1.0000   1.0000   1.0000   1.0000   1.0000   1.0000   1.0000   1.0000
     0.0000   0.0000   0.0000   0.0000   0.0000   0.0000   0.0000   0.0000
     0.0000   0.0000   0.0000   0.0000   0.0000   0.0000   0.0000   0.0000
     0.0000   0.0000   0.0000   0.0000   0.0000   0.0000   0.0000   0.0000
     0.0000   0.0000   0.0000   0.0000   0.0000

          k = 0.0000 0.0000-0.3068 ( 25758 PWs)   bands (ev):

    -6.7177  -6.7176  -6.3962  -6.3962  -6.3509  -6.3508  -6.3508  -6.3508
    -6.3507  -6.3507  -6.3050  -6.3050  -6.3050  -6.3050  -6.3050  -6.3049
    -5.2443  -5.2443  -5.2442  -5.2442  -5.2135  -5.2135  -5.2134  -5.2134
    -5.2133  -5.2133  -5.2104  -5.2104  -5.2104  -5.2104  -5.1710  -5.1710
    -5.1676  -5.1675  -5.1675  -5.1675  -5.1675  -5.1675  -5.1434  -5.1434
    -5.1434  -5.1434  -5.1434  -5.1434  -5.0794  -5.0794  -5.0793  -5.0793
    -5.0793  -5.0793  -5.0624  -5.0624  -5.0622  -5.0622  -5.0622  -5.0622
    -5.0407  -5.0407  -5.0406  -5.0406  -5.0080  -5.0080  -5.0079  -5.0079
    -5.0079  -5.0079  -4.9850  -4.9850  -4.9849  -4.9849  -4.9808  -4.9807
    -4.9804  -4.9804  -4.9804  -4.9804  -4.9654  -4.9654  -4.9652  -4.9652
    -4.9652  -4.9652  -3.9913  -3.9912  -3.5218  -3.5218  -3.5217  -3.5217
    -3.5217  -3.5217  -3.0971  -3.0970  -3.0970  -3.0970  -3.0970  -3.0969
     2.3575   2.3575   2.3576   2.3576   2.3576   2.3577   3.0176   3.0176
     3.1214   3.1214   3.1215   3.1215   3.1215   3.1216   5.6683   5.6684
     5.6684   5.6684   5.6685   5.6685   6.4163   6.4164   6.4164   6.4164
     6.4165   6.4165   7.2115   7.2115   7.2115   7.2115   7.2115   7.2116
     7.2210   7.2211   7.5557   7.5558   7.5558   7.5558   7.5559   7.5559
     7.9429   7.9430   7.9430   7.9431   8.6416   8.6417   8.6417   8.6418
    11.5562  11.5563  12.7903  12.7904  13.0132  13.0132  13.0132  13.0133
    13.0133  13.0133  13.8558  13.8558  13.8559  13.8559  13.8559  13.8559
    16.0843  16.0843  16.0844  16.0844  16.0844  16.0844  16.2987  16.2987
    16.2987  16.2987  16.2987  16.2988  17.4089

     occupation numbers 
     1.0000   1.0000   1.0000   1.0000   1.0000   1.0000   1.0000   1.0000
     1.0000   1.0000   1.0000   1.0000   1.0000   1.0000   1.0000   1.0000
     1.0000   1.0000   1.0000   1.0000   1.0000   1.0000   1.0000   1.0000
     1.0000   1.0000   1.0000   1.0000   1.0000   1.0000   1.0000   1.0000
     1.0000   1.0000   1.0000   1.0000   1.0000   1.0000   1.0000   1.0000
     1.0000   1.0000   1.0000   1.0000   1.0000   1.0000   1.0000   1.0000
     1.0000   1.0000   1.0000   1.0000   1.0000   1.0000   1.0000   1.0000
     1.0000   1.0000   1.0000   1.0000   1.0000   1.0000   1.0000   1.0000
     1.0000   1.0000   1.0000   1.0000   1.0000   1.0000   1.0000   1.0000
     1.0000   1.0000   1.0000   1.0000   1.0000   1.0000   1.0000   1.0000
     1.0000   1.0000   1.0000   1.0000   1.0000   1.0000   1.0000   1.0000
     1.0000   1.0000   1.0000   1.0000   1.0000   1.0000   1.0000   1.0000
     1.0000   1.0000   1.0000   1.0000   1.0000   1.0000   1.0000   1.0000
     1.0000   1.0000   1.0000   1.0000   1.0000   1.0000   1.0000   1.0000
     1.0000   1.0000   1.0000   1.0000   1.0000   1.0000   1.0000   1.0000
     1.0000   1.0000   1.0000   1.0000   1.0000   1.0000   1.0000   1.0000
     1.0000   1.0000   1.0000   1.0000   1.0000   1.0000   1.0000   1.0000
     1.0000   1.0000   1.0000   1.0000   1.0000   1.0000   1.0000   1.0000
     0.0000   0.0000   0.0000   0.0000   0.0000   0.0000   0.0000   0.0000
     0.0000   0.0000   0.0000   0.0000   0.0000   0.0000   0.0000   0.0000
     0.0000   0.0000   0.0000   0.0000   0.0000   0.0000   0.0000   0.0000
     0.0000   0.0000   0.0000   0.0000   0.0000

          k = 0.0000 0.2887 0.0000 ( 25764 PWs)   bands (ev):

    -6.7377  -6.4442  -6.4442  -6.4062  -6.3697  -6.3697  -6.3641  -6.3177
    -6.3174  -6.3173  -6.3132  -6.3131  -6.3037  -6.3037  -6.3037  -6.3037
    -5.2455  -5.2301  -5.2172  -5.2171  -5.2164  -5.2164  -5.2094  -5.2093
    -5.2027  -5.1962  -5.1961  -5.1903  -5.1890  -5.1869  -5.1868  -5.1868
    -5.1867  -5.1758  -5.1752  -5.1751  -5.1648  -5.1233  -5.1232  -5.1232
    -5.1231  -5.1230  -5.1230  -5.1174  -5.0970  -5.0970  -5.0783  -5.0783
    -5.0757  -5.0652  -5.0648  -5.0563  -5.0540  -5.0539  -5.0528  -5.0489
    -5.0489  -5.0420  -5.0419  -5.0396  -5.0395  -5.0355  -5.0355  -5.0355
    -5.0354  -5.0097  -5.0096  -5.0036  -4.9954  -4.9951  -4.9934  -4.9889
    -4.9888  -4.9869  -4.9869  -4.9868  -4.9867  -4.9742  -4.9688  -4.9687
    -4.9611  -4.6234  -4.6233  -4.1469  -3.6800  -3.6800  -3.6490  -3.6489
    -3.3830  -3.3364  -3.3364  -3.3364  -3.3363  -2.8979  -2.8885  -2.8885
     2.2969   2.7154   2.7154   2.7155   2.7155   2.8145   2.8146   2.9137
     3.0760   3.0760   3.8058   3.8059   4.0556   4.6841   4.8152   4.8152
     4.9447   4.9447   5.6796   5.6796   6.2173   6.2173   6.2173   6.2174
     6.4047   6.7900   6.8690   6.8690   6.8737   6.8737   7.1255   7.1255
     7.1953   7.1953   7.1953   7.1953   7.3261   7.3513   7.3514   7.5175
     7.5790   7.5790   7.5835   7.9695   8.0618   8.0618   8.6052   8.6574
    11.4071  13.3034  13.3034  13.3799  13.3800  13.5345  13.5935  13.7527
    13.7527  13.7527  13.7527  14.1930  14.4576  14.4578  14.8025  14.8025
    14.8889  14.8889  15.2823  16.2863  16.2863  16.4726  16.4726  16.4727
    16.4727  16.5975  16.5975  16.8326  16.8327

     occupation numbers 
     1.0000   1.0000   1.0000   1.0000   1.0000   1.0000   1.0000   1.0000
     1.0000   1.0000   1.0000   1.0000   1.0000   1.0000   1.0000   1.0000
     1.0000   1.0000   1.0000   1.0000   1.0000   1.0000   1.0000   1.0000
     1.0000   1.0000   1.0000   1.0000   1.0000   1.0000   1.0000   1.0000
     1.0000   1.0000   1.0000   1.0000   1.0000   1.0000   1.0000   1.0000
     1.0000   1.0000   1.0000   1.0000   1.0000   1.0000   1.0000   1.0000
     1.0000   1.0000   1.0000   1.0000   1.0000   1.0000   1.0000   1.0000
     1.0000   1.0000   1.0000   1.0000   1.0000   1.0000   1.0000   1.0000
     1.0000   1.0000   1.0000   1.0000   1.0000   1.0000   1.0000   1.0000
     1.0000   1.0000   1.0000   1.0000   1.0000   1.0000   1.0000   1.0000
     1.0000   1.0000   1.0000   1.0000   1.0000   1.0000   1.0000   1.0000
     1.0000   1.0000   1.0000   1.0000   1.0000   1.0000   1.0000   1.0000
     1.0000   1.0000   1.0000   1.0000   1.0000   1.0000   1.0000   1.0000
     1.0000   1.0000   1.0000   1.0000   1.0000   1.0000   1.0000   1.0000
     1.0000   1.0000   1.0000   1.0000   1.0000   1.0000   1.0000   1.0000
     1.0000   1.0000   1.0000   1.0000   1.0000   1.0000   1.0000   1.0000
     1.0000   1.0000   1.0000   1.0000   1.0000   1.0000   1.0000   1.0000
     1.0000   1.0000   1.0000   1.0000   1.0000   1.0000   1.0000   1.0000
     0.0000   0.0000   0.0000   0.0000   0.0000   0.0000   0.0000   0.0000
     0.0000   0.0000   0.0000   0.0000   0.0000   0.0000   0.0000   0.0000
     0.0000   0.0000   0.0000   0.0000   0.0000   0.0000   0.0000   0.0000
     0.0000   0.0000   0.0000   0.0000   0.0000

          k = 0.0000 0.2887-0.3068 ( 25732 PWs)   bands (ev):

    -6.6275  -6.6274  -6.3717  -6.3716  -6.3697  -6.3696  -6.3421  -6.3420
    -6.3420  -6.3420  -6.3100  -6.3099  -6.3036  -6.3035  -6.3035  -6.3034
    -5.2350  -5.2350  -5.2256  -5.2255  -5.2092  -5.2092  -5.1995  -5.1994
    -5.1994  -5.1994  -5.1969  -5.1968  -5.1869  -5.1868  -5.1782  -5.1781
    -5.1780  -5.1780  -5.1704  -5.1704  -5.1442  -5.1441  -5.1349  -5.1348
    -5.1348  -5.1348  -5.1106  -5.1106  -5.0800  -5.0799  -5.0799  -5.0798
    -5.0758  -5.0758  -5.0756  -5.0756  -5.0674  -5.0673  -5.0673  -5.0673
    -5.0413  -5.0412  -5.0264  -5.0264  -5.0217  -5.0217  -5.0217  -5.0217
    -5.0216  -5.0216  -5.0003  -5.0002  -4.9948  -4.9948  -4.9914  -4.9913
    -4.9912  -4.9911  -4.9836  -4.9835  -4.9807  -4.9806  -4.9806  -4.9805
    -4.9713  -4.9713  -4.0237  -4.0236  -3.8609  -3.8608  -3.5912  -3.5911
    -3.5911  -3.5911  -3.1488  -3.1487  -3.0283  -3.0283  -3.0283  -3.0282
     2.5993   2.5994   2.5994   2.5994   2.7829   2.7829   3.1488   3.1489
     3.3419   3.3419   3.3420   3.3420   3.7798   3.7798   5.3768   5.3769
     5.4286   5.4287   5.4287   5.4287   6.1029   6.1029   6.1029   6.1030
     6.6061   6.6062   6.6784   6.6784   6.9557   6.9557   6.9557   6.9558
     7.0536   7.0537   7.3600   7.3601   7.3601   7.3601   7.5329   7.5330
     7.6722   7.6723   7.7056   7.7056   8.2515   8.2516   8.4769   8.4770
    12.1782  12.1783  13.0342  13.0343  13.5840  13.5841  13.5841  13.5841
    13.5969  13.5970  14.1760  14.1760  14.7290  14.7291  14.7291  14.7292
    15.8266  15.8266  15.8895  15.8895  15.8895  15.8896  16.4710  16.4710
    16.4710  16.4711  16.5621  16.5621  16.9151

     occupation numbers 
     1.0000   1.0000   1.0000   1.0000   1.0000   1.0000   1.0000   1.0000
     1.0000   1.0000   1.0000   1.0000   1.0000   1.0000   1.0000   1.0000
     1.0000   1.0000   1.0000   1.0000   1.0000   1.0000   1.0000   1.0000
     1.0000   1.0000   1.0000   1.0000   1.0000   1.0000   1.0000   1.0000
     1.0000   1.0000   1.0000   1.0000   1.0000   1.0000   1.0000   1.0000
     1.0000   1.0000   1.0000   1.0000   1.0000   1.0000   1.0000   1.0000
     1.0000   1.0000   1.0000   1.0000   1.0000   1.0000   1.0000   1.0000
     1.0000   1.0000   1.0000   1.0000   1.0000   1.0000   1.0000   1.0000
     1.0000   1.0000   1.0000   1.0000   1.0000   1.0000   1.0000   1.0000
     1.0000   1.0000   1.0000   1.0000   1.0000   1.0000   1.0000   1.0000
     1.0000   1.0000   1.0000   1.0000   1.0000   1.0000   1.0000   1.0000
     1.0000   1.0000   1.0000   1.0000   1.0000   1.0000   1.0000   1.0000
     1.0000   1.0000   1.0000   1.0000   1.0000   1.0000   1.0000   1.0000
     1.0000   1.0000   1.0000   1.0000   1.0000   1.0000   1.0000   1.0000
     1.0000   1.0000   1.0000   1.0000   1.0000   1.0000   1.0000   1.0000
     1.0000   1.0000   1.0000   1.0000   1.0000   1.0000   1.0000   1.0000
     1.0000   1.0000   1.0000   1.0000   1.0000   1.0000   1.0000   1.0000
     1.0000   1.0000   1.0000   1.0000   1.0000   1.0000   1.0000   1.0000
     0.0000   0.0000   0.0000   0.0000   0.0000   0.0000   0.0000   0.0000
     0.0000   0.0000   0.0000   0.0000   0.0000   0.0000   0.0000   0.0000
     0.0000   0.0000   0.0000   0.0000   0.0000   0.0000   0.0000   0.0000
     0.0000   0.0000   0.0000   0.0000   0.0000

          k = 0.0000-0.5774 0.0000 ( 25772 PWs)   bands (ev):

    -6.5281  -6.5280  -6.3598  -6.3598  -6.3598  -6.3597  -6.3584  -6.3584
    -6.3337  -6.3337  -6.3144  -6.3143  -6.2983  -6.2983  -6.2983  -6.2983
    -5.2315  -5.2315  -5.2151  -5.2151  -5.2006  -5.2006  -5.1926  -5.1926
    -5.1924  -5.1924  -5.1642  -5.1642  -5.1641  -5.1641  -5.1608  -5.1607
    -5.1607  -5.1606  -5.1441  -5.1438  -5.1362  -5.1359  -5.1335  -5.1334
    -5.1334  -5.1333  -5.1186  -5.1186  -5.0940  -5.0939  -5.0874  -5.0874
    -5.0834  -5.0833  -5.0719  -5.0718  -5.0631  -5.0630  -5.0629  -5.0628
    -5.0596  -5.0596  -5.0595  -5.0595  -5.0511  -5.0511  -5.0420  -5.0420
    -5.0403  -5.0403  -5.0057  -5.0056  -5.0056  -5.0055  -5.0050  -5.0047
    -4.9915  -4.9914  -4.9914  -4.9913  -4.9842  -4.9841  -4.9686  -4.9686
    -4.8207  -4.8205  -4.2218  -4.2217  -4.2217  -4.2217  -3.7486  -3.7486
    -3.3439  -3.3438  -3.3438  -3.3438  -3.1099  -3.1099  -2.8053  -2.8052
     2.8104   2.8104   3.0334   3.0334   3.0334   3.0334   3.2068   3.2068
     3.8535   3.8535   4.2953   4.2953   4.2953   4.2953   5.0014   5.0015
     5.0075   5.0075   5.0186   5.0186   5.6339   5.6339   5.6339   5.6339
     5.9221   5.9221   6.8253   6.8253   6.8332   6.8332   6.8333   6.8333
     6.9189   6.9189   7.0050   7.0050   7.2239   7.2239   7.2239   7.2239
     7.5687   7.5687   7.5688   7.5688   8.1217   8.1217   8.3115   8.3115
    12.7335  12.7335  13.7939  13.7939  13.7939  13.7939  14.4234  14.4234
    14.4733  14.4733  14.4733  14.4733  14.7774  14.7774  14.9565  14.9566
    16.0543  16.0543  16.1622  16.1623  16.1703  16.1703  16.1703  16.1704
    16.5226  16.5226  16.5226  16.5226  16.5425

     occupation numbers 
     1.0000   1.0000   1.0000   1.0000   1.0000   1.0000   1.0000   1.0000
     1.0000   1.0000   1.0000   1.0000   1.0000   1.0000   1.0000   1.0000
     1.0000   1.0000   1.0000   1.0000   1.0000   1.0000   1.0000   1.0000
     1.0000   1.0000   1.0000   1.0000   1.0000   1.0000   1.0000   1.0000
     1.0000   1.0000   1.0000   1.0000   1.0000   1.0000   1.0000   1.0000
     1.0000   1.0000   1.0000   1.0000   1.0000   1.0000   1.0000   1.0000
     1.0000   1.0000   1.0000   1.0000   1.0000   1.0000   1.0000   1.0000
     1.0000   1.0000   1.0000   1.0000   1.0000   1.0000   1.0000   1.0000
     1.0000   1.0000   1.0000   1.0000   1.0000   1.0000   1.0000   1.0000
     1.0000   1.0000   1.0000   1.0000   1.0000   1.0000   1.0000   1.0000
     1.0000   1.0000   1.0000   1.0000   1.0000   1.0000   1.0000   1.0000
     1.0000   1.0000   1.0000   1.0000   1.0000   1.0000   1.0000   1.0000
     1.0000   1.0000   1.0000   1.0000   1.0000   1.0000   1.0000   1.0000
     1.0000   1.0000   1.0000   1.0000   1.0000   1.0000   1.0000   1.0000
     1.0000   1.0000   1.0000   1.0000   1.0000   1.0000   1.0000   1.0000
     1.0000   1.0000   1.0000   1.0000   1.0000   1.0000   1.0000   1.0000
     1.0000   1.0000   1.0000   1.0000   1.0000   1.0000   1.0000   1.0000
     1.0000   1.0000   1.0000   1.0000   1.0000   1.0000   1.0000   1.0000
     0.0000   0.0000   0.0000   0.0000   0.0000   0.0000   0.0000   0.0000
     0.0000   0.0000   0.0000   0.0000   0.0000   0.0000   0.0000   0.0000
     0.0000   0.0000   0.0000   0.0000   0.0000   0.0000   0.0000   0.0000
     0.0000   0.0000   0.0000   0.0000   0.0000

          k = 0.0000-0.5774-0.3068 ( 25740 PWs)   bands (ev):

    -6.4608  -6.4608  -6.4607  -6.4607  -6.3322  -6.3321  -6.3321  -6.3321
    -6.3309  -6.3309  -6.3308  -6.3308  -6.3030  -6.3029  -6.3029  -6.3029
    -5.2128  -5.2128  -5.2127  -5.2127  -5.2042  -5.2042  -5.2042  -5.2041
    -5.1893  -5.1893  -5.1892  -5.1892  -5.1631  -5.1630  -5.1628  -5.1628
    -5.1589  -5.1589  -5.1588  -5.1587  -5.1310  -5.1310  -5.1310  -5.1309
    -5.1206  -5.1206  -5.1205  -5.1205  -5.0965  -5.0964  -5.0963  -5.0963
    -5.0734  -5.0734  -5.0733  -5.0733  -5.0581  -5.0581  -5.0580  -5.0580
    -5.0486  -5.0485  -5.0485  -5.0484  -5.0475  -5.0475  -5.0475  -5.0475
    -5.0315  -5.0315  -5.0315  -5.0314  -5.0012  -5.0012  -5.0011  -5.0011
    -4.9921  -4.9921  -4.9920  -4.9920  -4.9796  -4.9795  -4.9795  -4.9795
    -4.6822  -4.6822  -4.6821  -4.6821  -3.6438  -3.6437  -3.6437  -3.6437
    -3.5150  -3.5150  -3.5150  -3.5150  -2.9764  -2.9764  -2.9764  -2.9763
     2.9581   2.9581   2.9582   2.9582   3.3231   3.3232   3.3232   3.3232
     3.5487   3.5487   3.5487   3.5488   5.0650   5.0650   5.0651   5.0651
     5.1579   5.1579   5.1579   5.1579   5.7090   5.7090   5.7090   5.7090
     5.8960   5.8960   5.8961   5.8961   6.4460   6.4460   6.4461   6.4461
     7.1015   7.1015   7.1016   7.1016   7.4141   7.4141   7.4142   7.4142
     7.9204   7.9204   7.9204   7.9204   8.0818   8.0818   8.0819   8.0819
    12.9078  12.9078  12.9079  12.9079  14.4880  14.4880  14.4881  14.4881
    14.5231  14.5231  14.5231  14.5232  14.9134  14.9134  14.9135  14.9135
    15.9545  15.9545  15.9545  15.9545  16.3460  16.3460  16.3461  16.3461
    16.5455  16.5455  16.5455  16.5455  16.7766

     occupation numbers 
     1.0000   1.0000   1.0000   1.0000   1.0000   1.0000   1.0000   1.0000
     1.0000   1.0000   1.0000   1.0000   1.0000   1.0000   1.0000   1.0000
     1.0000   1.0000   1.0000   1.0000   1.0000   1.0000   1.0000   1.0000
     1.0000   1.0000   1.0000   1.0000   1.0000   1.0000   1.0000   1.0000
     1.0000   1.0000   1.0000   1.0000   1.0000   1.0000   1.0000   1.0000
     1.0000   1.0000   1.0000   1.0000   1.0000   1.0000   1.0000   1.0000
     1.0000   1.0000   1.0000   1.0000   1.0000   1.0000   1.0000   1.0000
     1.0000   1.0000   1.0000   1.0000   1.0000   1.0000   1.0000   1.0000
     1.0000   1.0000   1.0000   1.0000   1.0000   1.0000   1.0000   1.0000
     1.0000   1.0000   1.0000   1.0000   1.0000   1.0000   1.0000   1.0000
     1.0000   1.0000   1.0000   1.0000   1.0000   1.0000   1.0000   1.0000
     1.0000   1.0000   1.0000   1.0000   1.0000   1.0000   1.0000   1.0000
     1.0000   1.0000   1.0000   1.0000   1.0000   1.0000   1.0000   1.0000
     1.0000   1.0000   1.0000   1.0000   1.0000   1.0000   1.0000   1.0000
     1.0000   1.0000   1.0000   1.0000   1.0000   1.0000   1.0000   1.0000
     1.0000   1.0000   1.0000   1.0000   1.0000   1.0000   1.0000   1.0000
     1.0000   1.0000   1.0000   1.0000   1.0000   1.0000   1.0000   1.0000
     1.0000   1.0000   1.0000   1.0000   1.0000   1.0000   1.0000   1.0000
     0.0000   0.0000   0.0000   0.0000   0.0000   0.0000   0.0000   0.0000
     0.0000   0.0000   0.0000   0.0000   0.0000   0.0000   0.0000   0.0000
     0.0000   0.0000   0.0000   0.0000   0.0000   0.0000   0.0000   0.0000
     0.0000   0.0000   0.0000   0.0000   0.0000

          k = 0.2500 0.4330 0.0000 ( 25702 PWs)   bands (ev):

    -6.5800  -6.4281  -6.4280  -6.3790  -6.3790  -6.3406  -6.3355  -6.3232
    -6.3231  -6.3231  -6.3231  -6.3211  -6.3210  -6.3144  -6.2908  -6.2908
    -5.2416  -5.2173  -5.2114  -5.2082  -5.2082  -5.1952  -5.1951  -5.1857
    -5.1856  -5.1800  -5.1800  -5.1799  -5.1799  -5.1765  -5.1765  -5.1607
    -5.1583  -5.1583  -5.1435  -5.1418  -5.1417  -5.1416  -5.1415  -5.1351
    -5.1349  -5.1190  -5.1185  -5.1184  -5.0943  -5.0941  -5.0858  -5.0858
    -5.0774  -5.0767  -5.0727  -5.0654  -5.0653  -5.0639  -5.0639  -5.0639
    -5.0639  -5.0631  -5.0564  -5.0503  -5.0434  -5.0434  -5.0373  -5.0372
    -5.0190  -5.0190  -5.0170  -5.0163  -5.0070  -5.0070  -5.0061  -5.0061
    -4.9967  -4.9947  -4.9947  -4.9946  -4.9946  -4.9866  -4.9756  -4.9755
    -4.9249  -4.4049  -4.4049  -4.3514  -4.3514  -3.8400  -3.8400  -3.8400
    -3.8400  -3.2486  -3.1886  -3.0934  -3.0933  -2.9306  -2.9217  -2.9217
     2.6607   2.7836   2.7836   3.0968   3.0968   3.1768   3.6338   3.6338
     3.6338   3.6338   3.7063   4.2675   4.4453   4.4453   4.5938   4.5938
     4.9704   4.9704   5.1562   5.1563   5.6282   5.6959   6.1272   6.1731
     6.1731   6.3553   6.4811   6.6392   6.6392   6.6392   6.6392   7.0096
     7.0096   7.0695   7.0695   7.0695   7.0695   7.1041   7.3453   7.3453
     7.5426   7.5426   7.6819   7.6819   7.7003   7.7003   8.2508   8.3039
    12.4913  13.6980  13.6980  13.9582  13.9582  14.0601  14.0601  14.0601
    14.0601  14.3716  14.5621  14.6310  14.6311  15.1138  15.1138  15.5690
    15.5690  15.5781  16.1242  16.1738  16.1738  16.2855  16.2855  16.2855
    16.2855  16.4469  16.4469  16.6594  16.7028

     occupation numbers 
     1.0000   1.0000   1.0000   1.0000   1.0000   1.0000   1.0000   1.0000
     1.0000   1.0000   1.0000   1.0000   1.0000   1.0000   1.0000   1.0000
     1.0000   1.0000   1.0000   1.0000   1.0000   1.0000   1.0000   1.0000
     1.0000   1.0000   1.0000   1.0000   1.0000   1.0000   1.0000   1.0000
     1.0000   1.0000   1.0000   1.0000   1.0000   1.0000   1.0000   1.0000
     1.0000   1.0000   1.0000   1.0000   1.0000   1.0000   1.0000   1.0000
     1.0000   1.0000   1.0000   1.0000   1.0000   1.0000   1.0000   1.0000
     1.0000   1.0000   1.0000   1.0000   1.0000   1.0000   1.0000   1.0000
     1.0000   1.0000   1.0000   1.0000   1.0000   1.0000   1.0000   1.0000
     1.0000   1.0000   1.0000   1.0000   1.0000   1.0000   1.0000   1.0000
     1.0000   1.0000   1.0000   1.0000   1.0000   1.0000   1.0000   1.0000
     1.0000   1.0000   1.0000   1.0000   1.0000   1.0000   1.0000   1.0000
     1.0000   1.0000   1.0000   1.0000   1.0000   1.0000   1.0000   1.0000
     1.0000   1.0000   1.0000   1.0000   1.0000   1.0000   1.0000   1.0000
     1.0000   1.0000   1.0000   1.0000   1.0000   1.0000   1.0000   1.0000
     1.0000   1.0000   1.0000   1.0000   1.0000   1.0000   1.0000   1.0000
     1.0000   1.0000   1.0000   1.0000   1.0000   1.0000   1.0000   1.0000
     1.0000   1.0000   1.0000   1.0000   1.0000   1.0000   1.0000   1.0000
     0.0000   0.0000   0.0000   0.0000   0.0000   0.0000   0.0000   0.0000
     0.0000   0.0000   0.0000   0.0000   0.0000   0.0000   0.0000   0.0000
     0.0000   0.0000   0.0000   0.0000   0.0000   0.0000   0.0000   0.0000
     0.0000   0.0000   0.0000   0.0000   0.0000

          k = 0.2500 0.4330-0.3068 ( 25730 PWs)   bands (ev):

    -6.5008  -6.5007  -6.3847  -6.3846  -6.3846  -6.3846  -6.3401  -6.3400
    -6.3153  -6.3152  -6.3136  -6.3136  -6.3135  -6.3135  -6.3009  -6.3009
    -5.2139  -5.2139  -5.2114  -5.2114  -5.2017  -5.2016  -5.1937  -5.1937
    -5.1936  -5.1936  -5.1866  -5.1865  -5.1865  -5.1865  -5.1706  -5.1706
    -5.1556  -5.1556  -5.1446  -5.1445  -5.1421  -5.1421  -5.1420  -5.1420
    -5.1212  -5.1212  -5.1103  -5.1102  -5.1101  -5.1101  -5.0799  -5.0799
    -5.0766  -5.0766  -5.0677  -5.0677  -5.0677  -5.0676  -5.0526  -5.0526
    -5.0526  -5.0525  -5.0508  -5.0507  -5.0490  -5.0490  -5.0237  -5.0237
    -5.0197  -5.0197  -5.0145  -5.0145  -5.0071  -5.0070  -5.0054  -5.0053
    -5.0053  -5.0053  -4.9916  -4.9916  -4.9871  -4.9871  -4.9871  -4.9870
    -4.8036  -4.8035  -4.2680  -4.2679  -4.2679  -4.2679  -3.6202  -3.6201
    -3.2401  -3.2400  -3.2400  -3.2400  -3.2055  -3.2054  -2.9772  -2.9771
     2.8894   2.8894   3.1742   3.1742   3.1742   3.1742   3.2462   3.2462
     3.3214   3.3215   4.3350   4.3350   4.3351   4.3351   4.4729   4.4730
     5.4399   5.4399   5.4399   5.4399   5.6963   5.6963   6.0121   6.0122
     6.0452   6.0452   6.2958   6.2958   6.2959   6.2959   6.4141   6.4142
     7.0063   7.0063   7.1058   7.1059   7.3808   7.3808   7.3808   7.3809
     7.7897   7.7897   7.7898   7.7898   8.0215   8.0216   8.0649   8.0649
    12.8930  12.8930  13.5128  13.5129  13.5129  13.5129  14.5660  14.5660
    14.5824  14.5825  15.0332  15.0332  15.0332  15.0332  15.6112  15.6112
    15.7003  15.7003  15.7003  15.7003  15.7351  15.7351  16.2760  16.2761
    16.6165  16.6165  16.6421  16.6421  16.6421

     occupation numbers 
     1.0000   1.0000   1.0000   1.0000   1.0000   1.0000   1.0000   1.0000
     1.0000   1.0000   1.0000   1.0000   1.0000   1.0000   1.0000   1.0000
     1.0000   1.0000   1.0000   1.0000   1.0000   1.0000   1.0000   1.0000
     1.0000   1.0000   1.0000   1.0000   1.0000   1.0000   1.0000   1.0000
     1.0000   1.0000   1.0000   1.0000   1.0000   1.0000   1.0000   1.0000
     1.0000   1.0000   1.0000   1.0000   1.0000   1.0000   1.0000   1.0000
     1.0000   1.0000   1.0000   1.0000   1.0000   1.0000   1.0000   1.0000
     1.0000   1.0000   1.0000   1.0000   1.0000   1.0000   1.0000   1.0000
     1.0000   1.0000   1.0000   1.0000   1.0000   1.0000   1.0000   1.0000
     1.0000   1.0000   1.0000   1.0000   1.0000   1.0000   1.0000   1.0000
     1.0000   1.0000   1.0000   1.0000   1.0000   1.0000   1.0000   1.0000
     1.0000   1.0000   1.0000   1.0000   1.0000   1.0000   1.0000   1.0000
     1.0000   1.0000   1.0000   1.0000   1.0000   1.0000   1.0000   1.0000
     1.0000   1.0000   1.0000   1.0000   1.0000   1.0000   1.0000   1.0000
     1.0000   1.0000   1.0000   1.0000   1.0000   1.0000   1.0000   1.0000
     1.0000   1.0000   1.0000   1.0000   1.0000   1.0000   1.0000   1.0000
     1.0000   1.0000   1.0000   1.0000   1.0000   1.0000   1.0000   1.0000
     1.0000   1.0000   1.0000   1.0000   1.0000   1.0000   1.0000   1.0000
     0.0000   0.0000   0.0000   0.0000   0.0000   0.0000   0.0000   0.0000
     0.0000   0.0000   0.0000   0.0000   0.0000   0.0000   0.0000   0.0000
     0.0000   0.0000   0.0000   0.0000   0.0000   0.0000   0.0000   0.0000
     0.0000   0.0000   0.0000   0.0000   0.0000

     the Fermi energy is     9.4966 ev

!    total energy              =   -4996.64437916 Ry
     total all-electron energy =    -64060.059728 Ry
     estimated scf accuracy    <       0.00000005 Ry
     smearing contrib. (-TS)   =      -0.00000000 Ry
     internal energy E=F+TS    =   -4996.64437916 Ry

     The total energy is F=E-TS. E is the sum of the following terms:
     one-electron contribution =   -1500.87439060 Ry
     hartree contribution      =    1053.43763786 Ry
     xc contribution           =    -728.22163377 Ry
     ewald contribution        =   -1832.82308826 Ry
     one-center paw contrib.   =   -1988.16290439 Ry
      -> PAW hartree energy AE =     289.39322356 Ry
      -> PAW hartree energy PS =    -286.58246972 Ry
      -> PAW xc energy AE      =    -313.90751881 Ry
      -> PAW xc energy PS      =      79.48484425 Ry
      -> total E_H with PAW    =    1056.24839170 Ry
      -> total E_XC with PAW   =    -962.64430833 Ry

     convergence has been achieved in   1 iterations


     -----------------------------------------------
     Non-local corr. energy    =       8.72082308 Ry
     -----------------------------------------------


     Forces acting on atoms (cartesian axes, Ry/au):

     atom    1 type  1   force =    -0.00004764   -0.00002751    0.00020760
     atom    2 type  1   force =    -0.00004502   -0.00002599    0.00011368
     atom    3 type  1   force =     0.00000000    0.00000000    0.00018346
     atom    4 type  1   force =     0.00000000    0.00000000    0.00007652
     atom    5 type  1   force =     0.00004764   -0.00002751    0.00020760
     atom    6 type  1   force =     0.00004502   -0.00002599    0.00011368
     atom    7 type  1   force =     0.00000000    0.00005501    0.00020760
     atom    8 type  1   force =     0.00000000    0.00005198    0.00011368
     atom    9 type  1   force =     0.00000000   -0.00004740    0.00013993
     atom   10 type  1   force =     0.00000000   -0.00005700    0.00019110
     atom   11 type  1   force =    -0.00004105    0.00002370    0.00013993
     atom   12 type  1   force =    -0.00004936    0.00002850    0.00019110
     atom   13 type  1   force =     0.00000000    0.00000000    0.00011133
     atom   14 type  1   force =     0.00000000    0.00000000    0.00015819
     atom   15 type  1   force =     0.00004105    0.00002370    0.00013993
     atom   16 type  1   force =     0.00004936    0.00002850    0.00019110
     atom   17 type  2   force =     0.00000465    0.00000269   -0.00015289
     atom   18 type  2   force =     0.00000462    0.00000267   -0.00015515
     atom   19 type  2   force =     0.00000000    0.00000000   -0.00015872
     atom   20 type  2   force =     0.00000000    0.00000000   -0.00016081
     atom   21 type  2   force =    -0.00000465    0.00000269   -0.00015289
     atom   22 type  2   force =    -0.00000462    0.00000267   -0.00015515
     atom   23 type  2   force =     0.00000000   -0.00000537   -0.00015289
     atom   24 type  2   force =     0.00000000   -0.00000534   -0.00015515
     atom   25 type  2   force =     0.00000000    0.00000544   -0.00015721
     atom   26 type  2   force =    -0.00000000    0.00000529   -0.00015067
     atom   27 type  2   force =     0.00000471   -0.00000272   -0.00015721
     atom   28 type  2   force =     0.00000458   -0.00000264   -0.00015067
     atom   29 type  2   force =    -0.00000000   -0.00000000   -0.00016244
     atom   30 type  2   force =     0.00000000    0.00000000   -0.00015668
     atom   31 type  2   force =    -0.00000471   -0.00000272   -0.00015721
     atom   32 type  2   force =    -0.00000458   -0.00000264   -0.00015067
     The non-local contrib.  to forces
     atom    1 type  1   force =    -0.00007655   -0.00004420    0.00098299
     atom    2 type  1   force =    -0.00007446   -0.00004299    0.00091853
     atom    3 type  1   force =     0.00000000    0.00000000    0.00097465
     atom    4 type  1   force =     0.00000000    0.00000000    0.00090380
     atom    5 type  1   force =     0.00007655   -0.00004420    0.00098299
     atom    6 type  1   force =     0.00007446   -0.00004299    0.00091853
     atom    7 type  1   force =     0.00000000    0.00008840    0.00098299
     atom    8 type  1   force =     0.00000000    0.00008598    0.00091853
     atom    9 type  1   force =     0.00000000   -0.00008445    0.00094312
     atom   10 type  1   force =     0.00000000   -0.00008818    0.00096698
     atom   11 type  1   force =    -0.00007314    0.00004223    0.00094312
     atom   12 type  1   force =    -0.00007636    0.00004409    0.00096698
     atom   13 type  1   force =     0.00000000    0.00000000    0.00093233
     atom   14 type  1   force =     0.00000000    0.00000000    0.00095463
     atom   15 type  1   force =     0.00007314    0.00004223    0.00094312
     atom   16 type  1   force =     0.00007636    0.00004409    0.00096698
     atom   17 type  2   force =     0.00000462    0.00000267    0.01356630
     atom   18 type  2   force =     0.00000339    0.00000196    0.01356191
     atom   19 type  2   force =     0.00000000    0.00000000    0.01356385
     atom   20 type  2   force =     0.00000000    0.00000000    0.01355985
     atom   21 type  2   force =    -0.00000462    0.00000267    0.01356630
     atom   22 type  2   force =    -0.00000339    0.00000196    0.01356191
     atom   23 type  2   force =     0.00000000   -0.00000533    0.01356630
     atom   24 type  2   force =     0.00000000   -0.00000391    0.01356191
     atom   25 type  2   force =     0.00000000    0.00000449    0.01355000
     atom   26 type  2   force =     0.00000000    0.00000458    0.01358217
     atom   27 type  2   force =     0.00000389   -0.00000224    0.01355000
     atom   28 type  2   force =     0.00000397   -0.00000229    0.01358217
     atom   29 type  2   force =     0.00000000    0.00000000    0.01355041
     atom   30 type  2   force =     0.00000000    0.00000000    0.01357789
     atom   31 type  2   force =    -0.00000389   -0.00000224    0.01355000
     atom   32 type  2   force =    -0.00000397   -0.00000229    0.01358217
     The ionic contribution  to forces
     atom    1 type  1   force =    -0.00003333    0.00002030    0.15864894
     atom    2 type  1   force =    -0.00003333    0.00002030    0.15865063
     atom    3 type  1   force =    -0.00003332    0.00002121    0.15864905
     atom    4 type  1   force =    -0.00003332    0.00002121    0.15865075
     atom    5 type  1   force =    -0.00003255    0.00002077    0.15864883
     atom    6 type  1   force =    -0.00003255    0.00002077    0.15865052
     atom    7 type  1   force =    -0.00003253    0.00002168    0.15864894
     atom    8 type  1   force =    -0.00003253    0.00002168    0.15865063
     atom    9 type  1   force =     0.00003253   -0.00002168    0.15864968
     atom   10 type  1   force =     0.00003253   -0.00002168    0.15865158
     atom   11 type  1   force =     0.00003255   -0.00002077    0.15864957
     atom   12 type  1   force =     0.00003255   -0.00002077    0.15865147
     atom   13 type  1   force =     0.00003332   -0.00002121    0.15864979
     atom   14 type  1   force =     0.00003332   -0.00002121    0.15865169
     atom   15 type  1   force =     0.00003333   -0.00002030    0.15864968
     atom   16 type  1   force =     0.00003333   -0.00002030    0.15865158
     atom   17 type  2   force =    -0.00002983    0.00001855   -0.15865035
     atom   18 type  2   force =    -0.00002983    0.00001855   -0.15864968
     atom   19 type  2   force =    -0.00002980    0.00001898   -0.15865046
     atom   20 type  2   force =    -0.00002980    0.00001898   -0.15864979
     atom   21 type  2   force =    -0.00002947    0.00001879   -0.15865024
     atom   22 type  2   force =    -0.00002947    0.00001879   -0.15864956
     atom   23 type  2   force =    -0.00002944    0.00001922   -0.15865034
     atom   24 type  2   force =    -0.00002944    0.00001922   -0.15864967
     atom   25 type  2   force =     0.00002944   -0.00001922   -0.15865085
     atom   26 type  2   force =     0.00002944   -0.00001922   -0.15864997
     atom   27 type  2   force =     0.00002947   -0.00001879   -0.15865074
     atom   28 type  2   force =     0.00002947   -0.00001879   -0.15864986
     atom   29 type  2   force =     0.00002980   -0.00001898   -0.15865096
     atom   30 type  2   force =     0.00002980   -0.00001898   -0.15865008
     atom   31 type  2   force =     0.00002983   -0.00001855   -0.15865085
     atom   32 type  2   force =     0.00002983   -0.00001855   -0.15864997
     The local contribution  to forces
     atom    1 type  1   force =    -0.00042027    0.00026267   -0.15984511
     atom    2 type  1   force =    -0.00042471    0.00026011   -0.15971491
     atom    3 type  1   force =    -0.00049884    0.00022348   -0.15985358
     atom    4 type  1   force =    -0.00049884    0.00022348   -0.15970329
     atom    5 type  1   force =    -0.00056666    0.00026267   -0.15984511
     atom    6 type  1   force =    -0.00056222    0.00026011   -0.15971491
     atom    7 type  1   force =    -0.00049345    0.00013587   -0.15984511
     atom    8 type  1   force =    -0.00049345    0.00014099   -0.15971491
     atom    9 type  1   force =     0.00067497   -0.00045362   -0.15975266
     atom   10 type  1   force =     0.00067497   -0.00043797   -0.15982791
     atom   11 type  1   force =     0.00073624   -0.00055981   -0.15975266
     atom   12 type  1   force =     0.00074979   -0.00056763   -0.15982791
     atom   13 type  1   force =     0.00068033   -0.00052749   -0.15975338
     atom   14 type  1   force =     0.00068033   -0.00052749   -0.15982176
     atom   15 type  1   force =     0.00061369   -0.00055981   -0.15975266
     atom   16 type  1   force =     0.00060014   -0.00056763   -0.15982791
     atom   17 type  2   force =    -0.00003069    0.00002354    0.14489617
     atom   18 type  2   force =    -0.00003195    0.00002282    0.14487329
     atom   19 type  2   force =    -0.00004073    0.00001825    0.14489194
     atom   20 type  2   force =    -0.00004073    0.00001825    0.14487163
     atom   21 type  2   force =    -0.00004990    0.00002354    0.14489617
     atom   22 type  2   force =    -0.00004864    0.00002282    0.14487329
     atom   23 type  2   force =    -0.00004029    0.00000690    0.14489617
     atom   24 type  2   force =    -0.00004029    0.00000836    0.14487329
     atom   25 type  2   force =     0.00005511   -0.00003059    0.14486109
     atom   26 type  2   force =     0.00005511   -0.00003295    0.14491463
     atom   27 type  2   force =     0.00006571   -0.00004894    0.14486109
     atom   28 type  2   force =     0.00006366   -0.00004775    0.14491463
     atom   29 type  2   force =     0.00005555   -0.00004307    0.14485992
     atom   30 type  2   force =     0.00005555   -0.00004307    0.14491149
     atom   31 type  2   force =     0.00004452   -0.00004894    0.14486109
     atom   32 type  2   force =     0.00004657   -0.00004775    0.14491463
     The core correction contribution to forces
     atom    1 type  1   force =    -0.00005549    0.00000538    0.00007330
     atom    2 type  1   force =    -0.00005549    0.00000538    0.00007380
     atom    3 type  1   force =    -0.00003691    0.00001654    0.00005782
     atom    4 type  1   force =    -0.00003691    0.00001654    0.00005818
     atom    5 type  1   force =    -0.00001757    0.00000537    0.00007330
     atom    6 type  1   force =    -0.00001757    0.00000537    0.00007380
     atom    7 type  1   force =    -0.00003654    0.00003820    0.00007330
     atom    8 type  1   force =    -0.00003654    0.00003820    0.00007380
     atom    9 type  1   force =     0.00004998   -0.00006061    0.00007338
     atom   10 type  1   force =     0.00004998   -0.00006076    0.00007396
     atom   11 type  1   force =     0.00003108   -0.00002792    0.00007338
     atom   12 type  1   force =     0.00003095   -0.00002784    0.00007396
     atom   13 type  1   force =     0.00005034   -0.00003903    0.00005785
     atom   14 type  1   force =     0.00005034   -0.00003903    0.00005832
     atom   15 type  1   force =     0.00006885   -0.00002794    0.00007338
     atom   16 type  1   force =     0.00006898   -0.00002787    0.00007396
     atom   17 type  2   force =    -0.00000077   -0.00000155   -0.00022585
     atom   18 type  2   force =    -0.00000074   -0.00000154   -0.00022579
     atom   19 type  2   force =     0.00000110   -0.00000049   -0.00022528
     atom   20 type  2   force =     0.00000110   -0.00000049   -0.00022523
     atom   21 type  2   force =     0.00000294   -0.00000155   -0.00022585
     atom   22 type  2   force =     0.00000291   -0.00000154   -0.00022579
     atom   23 type  2   force =     0.00000108    0.00000165   -0.00022585
     atom   24 type  2   force =     0.00000108    0.00000163   -0.00022579
     atom   25 type  2   force =    -0.00000148   -0.00000097   -0.00022559
     atom   26 type  2   force =    -0.00000148   -0.00000097   -0.00022613
     atom   27 type  2   force =    -0.00000332    0.00000221   -0.00022559
     atom   28 type  2   force =    -0.00000333    0.00000222   -0.00022613
     atom   29 type  2   force =    -0.00000150    0.00000116   -0.00022507
     atom   30 type  2   force =    -0.00000150    0.00000116   -0.00022553
     atom   31 type  2   force =     0.00000035    0.00000221   -0.00022559
     atom   32 type  2   force =     0.00000036    0.00000221   -0.00022613
     The Hubbard contrib.    to forces
     atom    1 type  1   force =     0.00000000    0.00000000    0.00000000
     atom    2 type  1   force =     0.00000000    0.00000000    0.00000000
     atom    3 type  1   force =     0.00000000    0.00000000    0.00000000
     atom    4 type  1   force =     0.00000000    0.00000000    0.00000000
     atom    5 type  1   force =     0.00000000    0.00000000    0.00000000
     atom    6 type  1   force =     0.00000000    0.00000000    0.00000000
     atom    7 type  1   force =     0.00000000    0.00000000    0.00000000
     atom    8 type  1   force =     0.00000000    0.00000000    0.00000000
     atom    9 type  1   force =     0.00000000    0.00000000    0.00000000
     atom   10 type  1   force =     0.00000000    0.00000000    0.00000000
     atom   11 type  1   force =     0.00000000    0.00000000    0.00000000
     atom   12 type  1   force =     0.00000000    0.00000000    0.00000000
     atom   13 type  1   force =     0.00000000    0.00000000    0.00000000
     atom   14 type  1   force =     0.00000000    0.00000000    0.00000000
     atom   15 type  1   force =     0.00000000    0.00000000    0.00000000
     atom   16 type  1   force =     0.00000000    0.00000000    0.00000000
     atom   17 type  2   force =     0.00000000    0.00000000    0.00000000
     atom   18 type  2   force =     0.00000000    0.00000000    0.00000000
     atom   19 type  2   force =     0.00000000    0.00000000    0.00000000
     atom   20 type  2   force =     0.00000000    0.00000000    0.00000000
     atom   21 type  2   force =     0.00000000    0.00000000    0.00000000
     atom   22 type  2   force =     0.00000000    0.00000000    0.00000000
     atom   23 type  2   force =     0.00000000    0.00000000    0.00000000
     atom   24 type  2   force =     0.00000000    0.00000000    0.00000000
     atom   25 type  2   force =     0.00000000    0.00000000    0.00000000
     atom   26 type  2   force =     0.00000000    0.00000000    0.00000000
     atom   27 type  2   force =     0.00000000    0.00000000    0.00000000
     atom   28 type  2   force =     0.00000000    0.00000000    0.00000000
     atom   29 type  2   force =     0.00000000    0.00000000    0.00000000
     atom   30 type  2   force =     0.00000000    0.00000000    0.00000000
     atom   31 type  2   force =     0.00000000    0.00000000    0.00000000
     atom   32 type  2   force =     0.00000000    0.00000000    0.00000000
     The SCF correction term to forces
     atom    1 type  1   force =    -0.00002481   -0.00001433    0.00007708
     atom    2 type  1   force =    -0.00001984   -0.00001146   -0.00008476
     atom    3 type  1   force =     0.00000000   -0.00000000    0.00008510
     atom    4 type  1   force =     0.00000000   -0.00000000   -0.00010332
     atom    5 type  1   force =     0.00002481   -0.00001433    0.00007708
     atom    6 type  1   force =     0.00001984   -0.00001146   -0.00008476
     atom    7 type  1   force =     0.00000000    0.00002865    0.00007708
     atom    8 type  1   force =     0.00000000    0.00002291   -0.00008476
     atom    9 type  1   force =    -0.00000000   -0.00001131   -0.00004398
     atom   10 type  1   force =    -0.00000000   -0.00003268    0.00005611
     atom   11 type  1   force =    -0.00000981    0.00000566   -0.00004398
     atom   12 type  1   force =    -0.00002831    0.00001634    0.00005611
     atom   13 type  1   force =    -0.00000000    0.00000000   -0.00004569
     atom   14 type  1   force =    -0.00000000    0.00000000    0.00004488
     atom   15 type  1   force =     0.00000980    0.00000566   -0.00004398
     atom   16 type  1   force =     0.00002830    0.00001634    0.00005611
     atom   17 type  2   force =    -0.00000747   -0.00000431   -0.00000962
     atom   18 type  2   force =    -0.00000503   -0.00000290    0.00001465
     atom   19 type  2   force =    -0.00000000    0.00000000   -0.00000919
     atom   20 type  2   force =     0.00000000   -0.00000000    0.00001231
     atom   21 type  2   force =     0.00000747   -0.00000431   -0.00000962
     atom   22 type  2   force =     0.00000503   -0.00000291    0.00001465
     atom   23 type  2   force =    -0.00000000    0.00000863   -0.00000962
     atom   24 type  2   force =    -0.00000000    0.00000581    0.00001465
     atom   25 type  2   force =     0.00000000   -0.00000887    0.00003768
     atom   26 type  2   force =     0.00000000   -0.00000675   -0.00004183
     atom   27 type  2   force =    -0.00000768    0.00000443    0.00003768
     atom   28 type  2   force =    -0.00000584    0.00000337   -0.00004183
     atom   29 type  2   force =     0.00000000   -0.00000000    0.00003283
     atom   30 type  2   force =     0.00000000   -0.00000000   -0.00004088
     atom   31 type  2   force =     0.00000768    0.00000443    0.00003768
     atom   32 type  2   force =     0.00000584    0.00000337   -0.00004183

     Total force =     0.000913     Total SCF correction =     0.000314
     SCF correction compared to forces is large: reduce conv_thr to get better values


     Computing stress (Cartesian axis) and pressure



     -----------------------------------------------
     Non-local corr. energy    =       8.72082308 Ry
     -----------------------------------------------

          total   stress  (Ry/bohr**3)                   (kbar)     P=        0.93
   0.00000314  -0.00000000   0.00000000            0.46       -0.00        0.00
   0.00000000   0.00000314   0.00000000            0.00        0.46        0.00
   0.00000000  -0.00000000   0.00001266            0.00       -0.00        1.86

     kinetic stress (kbar)  18449.67     -0.00      0.00
                               -0.00  18449.67      0.00
                                0.00     -0.00  18444.61

     local   stress (kbar)   5447.27     -0.07     -0.00
                               -0.07   5447.17      0.00
                               -0.00      0.00   3811.57

     nonloc. stress (kbar)     60.45      0.00      0.00
                                0.00     60.45     -0.00
                                0.00     -0.00     72.28

     hartree stress (kbar)  19596.26      0.00      0.00
                                0.00  19596.26      0.00
                                0.00      0.00  20346.43

     exc-cor stress (kbar)   5218.03      0.00      0.00
                                0.00   5218.03     -0.00
                                0.00     -0.00   5218.25

     corecor stress (kbar) -14110.26     -0.00     -0.00
                               -0.00 -14110.26      0.00
                               -0.00      0.00 -14109.69

     ewald   stress (kbar) -34823.05      0.10      0.00
                                0.10 -34822.93     -0.00
                                0.00     -0.00 -33942.83

     hubbard stress (kbar)      0.00      0.00      0.00
                                0.00      0.00      0.00
                                0.00      0.00      0.00

     DFT-D   stress (kbar)      0.00      0.00      0.00
                                0.00      0.00      0.00
                                0.00      0.00      0.00

     XDM     stress (kbar)      0.00      0.00      0.00
                                0.00      0.00      0.00
                                0.00      0.00      0.00

     dft-nl  stress (kbar)    162.09     -0.00     -0.00
                               -0.00    162.09      0.00
                               -0.00      0.00    161.25

     TS-vdW  stress (kbar)      0.00      0.00      0.00
                                0.00      0.00      0.00
                                0.00      0.00      0.00

     MDB     stress (kbar)      0.00      0.00      0.00
                                0.00      0.00      0.00
                                0.00      0.00      0.00

     3D-RISM stress (kbar)      0.00      0.00      0.00
                                0.00      0.00      0.00
                                0.00      0.00      0.00



     -----------------------------------------------
     Non-local corr. energy    =       8.72082308 Ry
     -----------------------------------------------



     -----------------------------------------------
     Non-local corr. energy    =       8.72082308 Ry
     -----------------------------------------------



     -----------------------------------------------
     Non-local corr. energy    =       8.72082308 Ry
     -----------------------------------------------



     -----------------------------------------------
     Non-local corr. energy    =       8.72082308 Ry
     -----------------------------------------------



     -----------------------------------------------
     Non-local corr. energy    =       8.72082308 Ry
     -----------------------------------------------



     -----------------------------------------------
     Non-local corr. energy    =       8.72082308 Ry
     -----------------------------------------------



     -----------------------------------------------
     Non-local corr. energy    =       8.72082308 Ry
     -----------------------------------------------



     -----------------------------------------------
     Non-local corr. energy    =       8.72082308 Ry
     -----------------------------------------------



     -----------------------------------------------
     Non-local corr. energy    =       8.72082308 Ry
     -----------------------------------------------



     -----------------------------------------------
     Non-local corr. energy    =       8.72082308 Ry
     -----------------------------------------------



     -----------------------------------------------
     Non-local corr. energy    =       8.72082308 Ry
     -----------------------------------------------



     -----------------------------------------------
     Non-local corr. energy    =       8.72082308 Ry
     -----------------------------------------------



     -----------------------------------------------
     Non-local corr. energy    =       8.72082308 Ry
     -----------------------------------------------



     -----------------------------------------------
     Non-local corr. energy    =       8.72082308 Ry
     -----------------------------------------------



     -----------------------------------------------
     Non-local corr. energy    =       8.72082308 Ry
     -----------------------------------------------



     -----------------------------------------------
     Non-local corr. energy    =       8.72082308 Ry
     -----------------------------------------------



     -----------------------------------------------
     Non-local corr. energy    =       8.72082308 Ry
     -----------------------------------------------



     -----------------------------------------------
     Non-local corr. energy    =       8.72082308 Ry
     -----------------------------------------------



     -----------------------------------------------
     Non-local corr. energy    =       8.72082308 Ry
     -----------------------------------------------



     -----------------------------------------------
     Non-local corr. energy    =       8.72082308 Ry
     -----------------------------------------------



     -----------------------------------------------
     Non-local corr. energy    =       8.72082308 Ry
     -----------------------------------------------



     -----------------------------------------------
     Non-local corr. energy    =       8.72082308 Ry
     -----------------------------------------------



     -----------------------------------------------
     Non-local corr. energy    =       8.72082308 Ry
     -----------------------------------------------



     -----------------------------------------------
     Non-local corr. energy    =       8.72082308 Ry
     -----------------------------------------------



     -----------------------------------------------
     Non-local corr. energy    =       8.72082308 Ry
     -----------------------------------------------



     -----------------------------------------------
     Non-local corr. energy    =       8.72082308 Ry
     -----------------------------------------------



     -----------------------------------------------
     Non-local corr. energy    =       8.72082308 Ry
     -----------------------------------------------



     -----------------------------------------------
     Non-local corr. energy    =       8.72082308 Ry
     -----------------------------------------------



     -----------------------------------------------
     Non-local corr. energy    =       8.72082308 Ry
     -----------------------------------------------



     -----------------------------------------------
     Non-local corr. energy    =       8.72082308 Ry
     -----------------------------------------------



     -----------------------------------------------
     Non-local corr. energy    =       8.72082308 Ry
     -----------------------------------------------



     -----------------------------------------------
     Non-local corr. energy    =       8.72082308 Ry
     -----------------------------------------------



     -----------------------------------------------
     Non-local corr. energy    =       8.72082308 Ry
     -----------------------------------------------



     -----------------------------------------------
     Non-local corr. energy    =       8.72082308 Ry
     -----------------------------------------------

 BEEFens 2000 ensemble energies
             -0.705666559369885E+01
             -0.635348353473635E+02
             -0.273266853870242E+02
              0.223579684692871E+02
             -0.456803505416834E+02
             -0.587503388577919E+02
              0.301881055085516E+02
             -0.318048956408435E+01
              0.503253176957349E+02
             -0.217399391545862E+01
              0.246870508868418E+02
              0.102458964533947E+01
              0.101395711929618E+01
             -0.215572414108055E+01
              0.329374270046562E+02
             -0.239820222202139E+02
             -0.494287142300520E+02
             -0.161520433893681E+02
              0.120694898661558E+02
             -0.108320084327124E+01
              0.721453835989076E+02
              0.614019348413294E+02
             -0.351488711926258E+02
              0.127276424690960E+02
             -0.770652716900461E+02
              0.617931600978366E+02
              0.201805022074773E+02
              0.600746928715680E+02
              0.394738916631501E+02
             -0.192132465312855E+02
              0.145427045927971E+02
             -0.283877366787681E+02
              0.794357009182605E+01
              0.386217762809049E+02
              0.409554921034427E+02
             -0.147939575716584E+02
              0.909782576084535E+02
             -0.345303521752875E+02
             -0.248577989384375E+02
              0.364617083201438E+02
              0.163089797548827E+02
              0.272914541325962E+02
             -0.520159614905725E+02
             -0.145911326860471E+01
              0.510603087704932E+02
              0.663242338237509E+02
             -0.660278183026351E+02
              0.470305443026052E+01
              0.248952528171243E+02
              0.121218269897795E+02
              0.276099176364140E+02
              0.584825758204768E+02
             -0.353526783968938E+02
             -0.387557455113571E+02
             -0.503906328244427E+02
             -0.779768687514064E+01
             -0.459640416121115E+02
              0.450115880727225E+01
             -0.850788197457882E+01
             -0.358220599609508E+02
              0.581371411970535E+02
              0.567907682380164E+02
             -0.149539581530926E+02
             -0.406729438934118E+02
             -0.265229644473119E+02
              0.127809337278788E+01
              0.431999335518241E+02
             -0.723989515693276E+01
             -0.424874522902577E+02
              0.361413358135373E+02
             -0.723567982658893E+02
              0.608159768946136E+02
             -0.707072556948214E+02
             -0.320558750771816E+02
             -0.943171527043535E+01
             -0.661532481589390E+01
              0.135242363763783E+01
              0.518253213862194E+02
              0.286009958674190E+02
             -0.540168254676644E+02
             -0.671956207130819E+02
             -0.343778540133886E+02
             -0.258742709295720E+02
              0.477074299745607E+01
             -0.887107148132537E+01
             -0.235664040605384E+02
              0.355230045716291E+02
             -0.232530910138307E+02
              0.102008109676662E+03
             -0.459117190645827E+02
              0.929062148684160E+01
              0.141102758177782E+02
              0.163277958244585E+02
              0.386002821272868E+02
              0.260924270346945E+02
              0.249377376487190E+02
             -0.400598689904920E+02
              0.244949058439033E+02
              0.545253538229218E+01
              0.177729064274018E+00
              0.467797075301798E+02
             -0.575612685777777E+02
              0.931083658480444E+02
             -0.243071723776510E+02
             -0.103252507897500E+03
              0.449992947462746E+01
              0.846907378858572E+01
             -0.274818252715375E+02
             -0.524215156035298E+02
             -0.275121518309945E+02
             -0.215818156713605E+02
              0.155267426682758E+01
             -0.413405333958649E+02
              0.162112979472448E+01
              0.434529195140829E+01
              0.781368716950490E+01
              0.909928266153119E+02
              0.102774598435885E+02
             -0.515264115957521E+02
             -0.377604160399651E+02
             -0.104144625651909E+02
             -0.358822078140095E+02
              0.572243813450552E+02
             -0.424543698711606E+02
             -0.285699248452278E+01
             -0.831591832480837E+01
              0.796950134107999E+01
              0.338256136768869E+02
             -0.390340609251649E+02
             -0.784144145229506E+02
             -0.165524928534505E+02
             -0.154325781170716E+02
             -0.620974747885998E+01
              0.378595253838581E+02
             -0.678024321923376E+02
             -0.751832981258821E+02
             -0.103794388690727E+02
             -0.161140926751653E+02
             -0.151459632406448E+01
              0.205638297512938E+02
              0.459396220613311E+02
              0.212291903361054E+02
             -0.214048746895120E+02
             -0.251603017259224E+02
             -0.689093455027635E+02
[...]
              0.274515995619554E+02
              0.809537935259332E+00
              0.855602709126637E+02
              0.118841206457572E+02
             -0.124710122995078E+02
              0.485081757828306E+01
             -0.114591456713455E+02
              0.672026354999226E+02
             -0.414276701121835E+00
              0.128527649137621E+02
              0.466582509750836E+02
              0.125131695177245E+02
             -0.354520138739477E+02
             -0.574698660727689E+02
              0.323540877990092E+01
             -0.653805213960001E+02
              0.219220489885986E+02
             -0.113528189381630E+02
             -0.251864418954681E+02
              0.255234973703708E+02
              0.883479085753453E+01
              0.245505326174692E+02
              0.106777095891425E+01
              0.364476537720482E+02
             -0.618853996165457E+02
             -0.440588042587507E+01
             -0.543225369062916E+02
              0.121089993892875E+02
              0.297970016181264E+02
             -0.301684366344134E+01
             -0.198500798503901E+02
              0.445534504640023E+02
             -0.206202749654622E+02
              0.152455945002175E+02
             -0.131059763673780E+02
              0.352662142810865E+02
              0.371239652644313E+02
             -0.160683892036285E+02
              0.318290152948762E+02
              0.119495894787627E+02
             -0.321201074502897E+02
             -0.209887338212946E+02
              0.516087971142695E+02
              0.253176801743959E+02
             -0.218822544878147E+01
             -0.547305155196148E+01
              0.794769512074595E+02
              0.468663615391187E+02
              0.166705308117171E+02
             -0.500465551347645E+02
              0.802013092020655E+02
             -0.374431650895026E+02
             -0.462430487485596E+02
             -0.696901478478141E+02
              0.310692957620898E+02
             -0.626425993602715E+02
              0.283272713076366E+02
              0.457725370213959E+02
              0.325991580219659E+02
              0.828761379519042E+01
              0.215940957544426E+02
             -0.516191147235011E+02
             -0.184907230413365E+02
             -0.140381411094312E+02
              0.264884625991271E+02
              0.524986189577445E+02
              0.542530655681045E+02
              0.418295354894065E+02
             -0.958780187676382E+01
              0.133437189129511E+02
              0.749014873054136E+00
             -0.172068345165690E+02
              0.221250531267317E+02
              0.240857168957857E+02
             -0.305097332830837E+02
             -0.362718461501449E+02
             -0.143132173494043E+02
              0.376655995329725E+02
              0.180486498944365E+02
             -0.258475176856568E+02
             -0.396030991002738E+02
             -0.576655684487649E+02
              0.119424361442870E+01
              0.154796037118630E+02
             -0.217804316736736E+02
              0.806503841245417E+02
              0.390429230723021E+01
             -0.913875416379708E+02
              0.202301410699278E+02
              0.400624752140166E+02
             -0.183576402586246E+02
              0.221534596831927E+01
             -0.254372215229834E+02
              0.373748088485974E+02
              0.172911735513917E+02
             -0.478294911466609E+02
              0.569597072378014E+02
              0.161558225138019E+01
             -0.244335751646954E+02
             -0.290051911135475E+02
              0.113418978424921E+03
              0.505254693454256E+02
             -0.140879296604628E+02
              0.278217633386346E+02
             -0.496014183137972E+02
             -0.887260255593333E+01
             -0.502977128569822E+02
              0.201494300089213E+02
              0.342557512357154E+02
              0.406662920878307E+02
             -0.161990860144562E+02
              0.478022309823950E+01
              0.464374349784165E+02
              0.171844139631280E+02
              0.291046630235454E+02
              0.123882250361252E+02
             -0.835477941600033E+01
              0.125170319090596E+01
             -0.766591505770032E+01
              0.118221099458164E+02
              0.261033642793274E+01
             -0.423134631777573E+02
              0.643991654153471E+02
              0.257552106065547E+02
             -0.462752929033786E+02
             -0.343386922912534E+02
             -0.497546290735686E+02
             -0.235533388161678E+02
             -0.173318512647885E+02
             -0.384814320990214E+02
             -0.376687439151107E+02
              0.474763700362454E+02
              0.374505620054111E+02
             -0.466457911396600E+01
              0.546191798548143E+02
              0.103354175405228E+02
             -0.881519558058310E+02
              0.497289574840982E+02
              0.114843459484258E+02
              0.383434017108159E+02
              0.855697226137420E+01
              0.640443434220026E+01
              0.759324555819080E+01
              0.199620631548215E+02
             -0.365590362570161E+02
             -0.182490940686682E+02
             -0.335724458878842E+02
             -0.278837395134191E+02
              0.126991755591769E+02
             -0.319161658110299E+02
              0.149278090131628E+02
              0.197521744484552E+02
             -0.210097149607234E+02
             -0.110827693649682E+02
             -0.973833648107842E+00
              0.545648343524325E+02
              0.867753940422037E+01
              0.540920120499263E+02
              0.192546252199164E+02
             -0.698920202448786E+02
             -0.237887720209403E+02
              0.238872523837211E+02
              0.537706484581931E+02
              0.103353478893292E+02
              0.210113598574218E+02
              0.506958689790016E+02
             -0.294909065784682E+02
             -0.478774168421038E+02
              0.622044553560507E+02
              0.103951824727750E+01
             -0.659564100969533E+02
              0.221113077625592E+02
              0.436518735197798E+02
             -0.100939334335485E+02
             -0.412919862318868E+02
              0.735170027188721E+01
              0.269470656071894E+01
             -0.225937143285649E+02
              0.819808517396939E+01
             -0.704498771120623E+01
              0.972026474453700E+02
              0.268096328820358E+02
             -0.445958847277025E+02
              0.134938500126561E+02
              0.624144924596066E+02
             -0.400012747626033E+02
             -0.106564929964418E+02
             -0.353996568033667E+02
              0.282667280817343E+02
              0.120058089336899E+02
              0.187707745878265E+02
              0.144543352236130E+01
              0.700920715189297E+02
             -0.391937868946858E+02
             -0.297541268988536E+02
             -0.328378956185493E+02
              0.282235538118153E+02
              0.674298395013369E+02
             -0.853841686214477E+01
              0.278538293084396E+02
             -0.377010077190741E+02
              0.379369180973819E+01
             -0.111702163364009E+02
             -0.373861882792579E+01
             -0.160488678212418E+02
             -0.147688514473841E+02
             -0.108984328698856E+02
              0.116448626250498E+02
              0.196472944353982E+02
             -0.452361137725912E+02
              0.328731805253002E+02
             -0.531381047116911E+02
              0.396846680368647E+02
             -0.460654005999795E+02
              0.696960610904890E+02
              0.371602198100469E+02
              0.414744171785695E+02
              0.949758721894585E+01
              0.106643016498393E+02
             -0.935355346352550E+02
              0.160419378288460E+02
              0.425137476768163E+01
              0.735388021550432E+01
             -0.139532313453118E+02
              0.727951229817433E+02
             -0.221177384238124E+02
             -0.287549897785559E+02
             -0.721665071930385E+02
             -0.240177493886713E+02
             -0.327826158981957E+02
             -0.290621814275385E+02
             -0.796229266930021E+01
             -0.152192749692408E+02
             -0.201591489369947E+02
             -0.303152120961698E+02
              0.225962445190014E+02
              0.746781557638206E+02
              0.636762960630352E+02
             -0.126536406492011E+02
             -0.781404993775548E+02
             -0.328590287183251E+02
              0.150594849064966E+02
              0.166890821126542E+02
              0.241632346531247E+02
              0.187996698587086E+02
              0.612273246775533E+01
              0.723197669614733E+02
             -0.179410007774707E+02
              0.366904889820889E+02
              0.168480360906846E+02
             -0.236782072777960E+02
             -0.148875930347203E+02
              0.334300562696502E+02
             -0.193657956602543E+02
             -0.137394284889540E+02
             -0.891618797473117E+01
              0.417736009374802E+02
             -0.559855581971562E+02
             -0.615657930677969E+01
             -0.458372151219089E+02
             -0.991065361580953E+02
              0.360934236926312E+00
             -0.122729875331787E+02
              0.340400473968717E+02
              0.404698848764218E+02
              0.555105838498158E+02
             -0.365171741501569E+02
              0.593930443364168E+02
              0.155315613328250E+02
             -0.177253376321583E+02
              0.107227759032775E+02
             -0.188566548282597E+02
             -0.131914164035036E+02
              0.302492005417823E+02
             -0.294817132930415E+02
              0.717313557976323E+02
             -0.183441566929318E+02
             -0.383627934041359E+02
              0.730095929878692E+02
             -0.410194825005232E+02
             -0.606746173371755E+01
              0.745298789559126E+01
              0.226483507096693E+02
             -0.334437284523816E+02
             -0.250493774032040E+02
              0.380791349154883E+02
             -0.617415765579193E+02
              0.453527264921654E+02
              0.592948578418383E+01
              0.354279831392119E+02
              0.491116352218110E+02
              0.123752389691668E+02
             -0.646492058219909E+02
             -0.285459903819656E+02
             -0.477823266646751E+02
             -0.299627976296656E+02
             -0.984763731064379E+01
              0.117500843713137E+02
             -0.224274707102322E+02
              0.157002784192252E+01
             -0.726651894029302E+02
              0.180790826019961E+01
             -0.459303657242375E+02
              0.451228858950863E+02
             -0.242670270900974E+02
             -0.476766473838204E+01
              0.324735536515926E+02
              0.349089838104957E+01
              0.323216328181642E+02
             -0.579331940523244E+02
              0.127041503999878E+02
              0.399397972037637E+01
              0.232948552076094E+02
              0.418135594911342E+02
             -0.731854617884474E+01
             -0.458576863392465E+02
             -0.262482744631854E+02
             -0.181324410154085E+02
             -0.882144126806065E+01
              0.432558488097668E+02
              0.266266841555418E+02
             -0.278296939525778E+02
             -0.253694663975695E+02
              0.209566422806317E+02
              0.205196500382373E+02
             -0.568710721928529E+02
              0.159245272248279E+02
              0.417318684098199E+02
             -0.204835616864995E+01
              0.488950291417968E+02
              0.247982140593228E+02
              0.390817436306254E+02
              0.593562844028464E+02
              0.974385791800839E+01
             -0.829796822347487E+02
              0.852622907604588E+01
              0.920444404495356E+02
              0.662297356287100E+02
             -0.444018049145269E+02
              0.442752189403099E+01
              0.576348065606882E+02
              0.523868894503464E+02
              0.249223580971318E+02
             -0.132038054739034E+02
              0.238764348115639E+02
              0.501481091060808E+02
             -0.224231393529176E+02
             -0.160462893173630E+02
              0.313077571707637E+02
             -0.224798767317833E+01
              0.293834990339250E+02
             -0.735532498999593E+01
              0.605913530095802E+02
             -0.230964652122344E+02
              0.138301118376019E+02
             -0.282275089908791E+02
              0.286195513464125E+02
             -0.378462968130236E+01
              0.452177283126522E+02
              0.316363456864482E+01
              0.178638756474373E+02
             -0.300073142036701E+02
             -0.184629765858854E+02
             -0.870972577468669E+01
             -0.750795782333380E+01
              0.474809589227693E+02
              0.196835746879019E+02
              0.609459850051460E+02
              0.507233679080323E+02
              0.113512442772915E+02
              0.439563054773615E+00
              0.595535035979302E+02
              0.313466101247925E+02
              0.841349423264944E+00
              0.529093719622199E+02
             -0.474711225113147E+02
              0.155728149927178E+02
             -0.298550607849694E+02
             -0.119458014676130E+02
              0.761955506250076E+02
             -0.116685974920677E+02
             -0.565148339507573E+00
             -0.100316053839635E+02
              0.633289353229049E+02
             -0.147703295696051E+02
             -0.175744622542481E+01
              0.127846685373041E+03
             -0.413020506147736E+02
             -0.441273989387403E+02
             -0.462906847111943E+02
             -0.271505044963121E+02
              0.270179369306649E+02
             -0.115463377069959E+02
              0.747550551536648E+01
             -0.234426017127464E+01
              0.161801499803229E+02
              0.263748331811482E+02
              0.303959553851192E+02
              0.447051514922902E+02
              0.246980092755929E+02
              0.313804769512701E+02
             -0.507154853114484E+02
             -0.485538469199337E+02
             -0.122819759993819E+02
             -0.475894365145955E+02
              0.761881976939709E+02
              0.652966436300943E+02
              0.312028303434255E+02
              0.844975570261327E+02
             -0.439758328367956E+02
             -0.179194921232369E+02
             -0.249327436854789E+02
              0.698921978275777E+02
 
 BEEF-vdW xc energy contributions
            1 :    -640.5313748601113     
            2 :     576.9379607657274     
            3 :    -470.3941023014995     
            4 :     352.0839231896626     
            5 :    -249.4493633211896     
            6 :     175.7529260675435     
            7 :    -128.5943427053479     
            8 :     96.68662900883419     
            9 :    -69.43342638574200     
           10 :     43.07945020136958     
           11 :    -20.48390647158885     
           12 :     6.240210860448315     
           13 :    -1.631124834588036     
           14 :     3.155423155150743     
           15 :    -5.116940136767880     
           16 :     3.681144408306750     
           17 :    0.9189719667286909     
           18 :    -5.493275909144813     
           19 :     7.065499605579816     
           20 :    -5.412818711607770     
           21 :     3.074008038409374     
           22 :    -3.097379339162671     
           23 :     6.535554057466584     
           24 :    -11.69663182088834     
           25 :     15.59653043944604     
           26 :    -16.29059503791245     
           27 :     14.19157638219394     
           28 :    -11.44545602210644     
           29 :     10.04466707017707     
           30 :    -10.28949445710793     
           31 :    -54.88111390341805     
           32 :    -37.60791050425996     

     Writing all to output data dir ./GaN.save/
 
     init_run     :      2.80s CPU      5.72s WALL (       1 calls)
     electrons    :     22.76s CPU     23.37s WALL (       1 calls)
     forces       :      1.39s CPU      1.41s WALL (       1 calls)
     stress       :      7.18s CPU      7.24s WALL (       1 calls)

     Called by init_run:
     wfcinit      :      0.97s CPU      3.81s WALL (       1 calls)
     potinit      :      1.45s CPU      1.49s WALL (       1 calls)
     hinit0       :      0.21s CPU      0.23s WALL (       1 calls)

     Called by electrons:
     c_bands      :     20.62s CPU     21.10s WALL (       2 calls)
     sum_band     :      1.45s CPU      1.50s WALL (       2 calls)
     v_of_rho     :      1.19s CPU      1.22s WALL (       2 calls)
     v_h          :      0.00s CPU      0.00s WALL (       2 calls)
     v_xc         :      6.67s CPU      6.77s WALL (      38 calls)
     newd         :      0.11s CPU      0.14s WALL (       2 calls)
     PAW_pot      :      0.81s CPU      0.82s WALL (       2 calls)
     mix_rho      :      0.00s CPU      0.00s WALL (       2 calls)
     vdW_kernel   :      0.86s CPU      0.87s WALL (       1 calls)

     Called by c_bands:
     init_us_2    :      0.22s CPU      0.22s WALL (      48 calls)
     init_us_2:cp :      0.22s CPU      0.22s WALL (      48 calls)
     cegterg      :     20.29s CPU     20.49s WALL (      16 calls)

     Called by sum_band:
     sum_band:wei :      0.00s CPU      0.00s WALL (       2 calls)
     sum_band:loo :      1.26s CPU      1.29s WALL (       2 calls)
     sum_band:buf :      0.04s CPU      0.06s WALL (      16 calls)
     sum_band:ini :      0.09s CPU      0.09s WALL (      16 calls)
     sum_band:cal :      0.28s CPU      0.28s WALL (      16 calls)
     sum_band:bec :      0.01s CPU      0.01s WALL (      16 calls)
     addusdens    :      0.17s CPU      0.18s WALL (       2 calls)
     addusd:skk   :      0.01s CPU      0.01s WALL (       4 calls)
     addusd:dgemm :      0.11s CPU      0.13s WALL (       4 calls)
     addusd:qvan2 :      0.04s CPU      0.05s WALL (       4 calls)

     Called by *egterg:
     cdiaghg      :      6.98s CPU      7.02s WALL (     123 calls)
     cegterg:over :      1.80s CPU      1.82s WALL (     123 calls)
     cegterg:upda :      1.20s CPU      1.22s WALL (     123 calls)
     cegterg:last :      0.80s CPU      0.81s WALL (      24 calls)
     h_psi        :      7.79s CPU      7.89s WALL (     139 calls)
     s_psi        :      1.00s CPU      1.00s WALL (     139 calls)
     g_psi        :      0.01s CPU      0.01s WALL (     123 calls)

     Called by h_psi:
     h_psi:calbec :      1.27s CPU      1.28s WALL (     139 calls)
     vloc_psi     :      5.32s CPU      5.39s WALL (     139 calls)
     add_vuspsi   :      1.09s CPU      1.10s WALL (     139 calls)

     General routines
     calbec       :      2.45s CPU      2.47s WALL (     195 calls)
     fft          :      3.23s CPU      3.27s WALL (    2232 calls)
     ffts         :      0.01s CPU      0.01s WALL (       4 calls)
     fftw         :      5.79s CPU      5.86s WALL (   21002 calls)
     interpolate  :      0.01s CPU      0.01s WALL (       2 calls)
 
     Parallel routines

     PAW routines
     PAW_pot      :      0.81s CPU      0.82s WALL (       2 calls)
     PAW_symme    :      0.00s CPU      0.00s WALL (       3 calls)
 
     PWSCF        :     40.49s CPU     45.52s WALL

 
   This run was terminated on:  22:26:17  27Mar2024            

=------------------------------------------------------------------------------=
   JOB DONE.
=------------------------------------------------------------------------------=
