
     Program PWSCF v.7.1 starts on  8May2024 at  1:43:42 

     This program is part of the open-source Quantum ESPRESSO suite
     for quantum simulation of materials; please cite
         "P. Giannozzi et al., J. Phys.:Condens. Matter 21 395502 (2009);
         "P. Giannozzi et al., J. Phys.:Condens. Matter 29 465901 (2017);
         "P. Giannozzi et al., J. Chem. Phys. 152 154105 (2020);
          URL http://www.quantum-espresso.org", 
     in publications or presentations arising from this work. More details at
     http://www.quantum-espresso.org/quote

     Parallel version (MPI & OpenMP), running on     128 processor cores
     Number of MPI processes:               128
     Threads/MPI process:                     1

     MPI processes distributed on     1 nodes
     1665412 MiB available memory on the printing compute node when the environment starts
 
     Reading input from espresso.pwi
Warning: card &CELL ignored
Warning: card    CELL_DYNAMICS    = 'BFGS' ignored
Warning: card / ignored

     Current dimensions of program PWSCF are:
     Max number of different atomic species (ntypx) = 10
     Max number of k-points (npk) =  40000
     Max angular momentum in pseudopotentials (lmaxx) =  4
     file Ga.pbe-dn-kjpaw_psl.1.0.0.UPF: wavefunction(s)  4S renormalized
     file N.pbe-n-kjpaw_psl.1.0.0.UPF: wavefunction(s)  2S renormalized

     **************************************************************************
     Initializing libbeef V0.1.2 with the BEEF-vdW functional.
     Citation: Wellendorff et al., PRB 85, 235149 (2012).
     **************************************************************************


     IMPORTANT: XC functional enforced from input :
     Exchange-correlation= BEEF-VDW
                           (   1   4  43  14   2   0   0)
     Any further DFT definition will be discarded
     Please, verify this is what you really want

 
     K-points division:     npool     =       2
     R & G space division:  proc/nbgrp/npool/nimage =      64
     Subspace diagonalization in iterative solution of the eigenvalue problem:
     a serial algorithm will be used

 
     Parallelization info
     --------------------
     sticks:   dense  smooth     PW     G-vecs:    dense   smooth      PW
     Min         354     283     73                42160    30167    3987
     Max         356     285     74                42163    30170    3996
     Sum       22693   18145   4705              2698283  1930731  255309
 
     Using Slab Decomposition
 


     bravais-lattice index     =            4
     lattice parameter (alat)  =      30.6565  a.u.
     unit-cell volume          =   24400.9461 (a.u.)^3
     number of atoms/cell      =          299
     number of atomic types    =            2
     number of electrons       =      2696.00
     number of Kohn-Sham states=         1618
     kinetic-energy cutoff     =      70.0000  Ry
     charge density cutoff     =     350.0000  Ry
     scf convergence threshold =      1.0E-07
     mixing beta               =       0.7000
     number of iterations used =            8  plain     mixing
     Exchange-correlation= BEEF-VDW
                           (   1   4  43  14   2   0   0)

     celldm(1)=  30.656540  celldm(2)=   0.000000  celldm(3)=   0.977927
     celldm(4)=   0.000000  celldm(5)=   0.000000  celldm(6)=   0.000000

     crystal axes: (cart. coord. in units of alat)
               a(1) = (   1.000000   0.000000   0.000000 )  
               a(2) = (  -0.500000   0.866025   0.000000 )  
               a(3) = (   0.000000   0.000000   0.977927 )  

     reciprocal axes: (cart. coord. in units 2 pi/alat)
               b(1) = (  1.000000  0.577350 -0.000000 )  
               b(2) = (  0.000000  1.154701  0.000000 )  
               b(3) = (  0.000000 -0.000000  1.022571 )  


     PseudoPot. # 1 for Ga read from file:
     //group///packages/espresso/pseudo/psl_1.0.0/pslibrary.1.0.0/pbe/PSEUDOPOTENTIALS/Ga.pbe-dn-kjpaw_psl.1.0.0.UPF
     MD5 check sum: cd2a01e492f15b435d17032472d8505c
     Pseudo is Projector augmented-wave + core cor, Zval = 13.0
     Generated using 'atomic' code by A. Dal Corso  v.7.1
     Shape of augmentation charge: PSQ
     Using radial grid of 1205 points,  6 beta functions with: 
                l(1) =   0
                l(2) =   0
                l(3) =   1
                l(4) =   1
                l(5) =   2
                l(6) =   2
     Q(r) pseudized with 0 coefficients 


     PseudoPot. # 2 for N  read from file:
     //group///packages/espresso/pseudo/psl_1.0.0/pslibrary.1.0.0/pbe/PSEUDOPOTENTIALS/N.pbe-n-kjpaw_psl.1.0.0.UPF
     MD5 check sum: f77f775694dac7e2c3fe1c82443d1a16
     Pseudo is Projector augmented-wave + core cor, Zval =  5.0
     Generated using 'atomic' code by A. Dal Corso  v.7.1
     Shape of augmentation charge: PSQ
     Using radial grid of 1085 points,  4 beta functions with: 
                l(1) =   0
                l(2) =   0
                l(3) =   1
                l(4) =   1
     Q(r) pseudized with 0 coefficients 


     atomic species   valence    mass     pseudopotential
        Ga            13.00    69.72300     Ga( 1.00)
        N              5.00    14.00700     N ( 1.00)

      2 Sym. Ops. (no inversion) found


                                    s                        frac. trans.

      isym =  1     identity                                     

 cryst.   s( 1) = (     1          0          0      )
                  (     0          1          0      )
                  (     0          0          1      )

 cart.    s( 1) = (  1.0000000  0.0000000  0.0000000 )
                  (  0.0000000  1.0000000  0.0000000 )
                  (  0.0000000  0.0000000  1.0000000 )


      isym =  2     inv. 180 deg rotation - cryst. axis [0,1,0]  

 cryst.   s( 2) = (     1          1          0      )
                  (     0         -1          0      )
                  (     0          0          1      )

 cart.    s( 2) = (  0.5000000  0.8660254  0.0000000 )
                  (  0.8660254 -0.5000000  0.0000000 )
                  (  0.0000000  0.0000000  1.0000000 )


     point group C_s (m)    
     there are  2 classes
     the character table:

       E     s    
A'     1.00  1.00
A''    1.00 -1.00

     the symmetry operations in each class and the name of the first element:

     E        1
          identity                                               
     s        2
          inv. 180 deg rotation - cryst. axis [0,1,0]            

   Cartesian axes

     site n.     atom                  positions (alat units)
         1           Ga  tau(   1) = (   0.1000001   0.0577350   0.1627148  )
         2           Ga  tau(   2) = (   0.1000001   0.0577350   0.4886906  )
         3           Ga  tau(   3) = (   0.1000001   0.0577350   0.8146665  )
         4           Ga  tau(   4) = (   0.0000001   0.2309401   0.1627148  )
         5           Ga  tau(   5) = (   0.0000001   0.2309401   0.4886906  )
         6           Ga  tau(   6) = (   0.0000001   0.2309401   0.8146665  )
         7           Ga  tau(   7) = (  -0.0999999   0.4041451   0.1627148  )
         8           Ga  tau(   8) = (  -0.0999999   0.4041451   0.4886906  )
         9           Ga  tau(   9) = (  -0.0999999   0.4041451   0.8146665  )
        10           Ga  tau(  10) = (  -0.1999999   0.5773502   0.1627148  )
        11           Ga  tau(  11) = (  -0.1999999   0.5773502   0.4886906  )
        12           Ga  tau(  12) = (  -0.1999999   0.5773502   0.8146665  )
        13           Ga  tau(  13) = (  -0.2999999   0.7505553   0.1627148  )
        14           Ga  tau(  14) = (  -0.2999999   0.7505553   0.4886906  )
        15           Ga  tau(  15) = (  -0.2999999   0.7505553   0.8146665  )
        16           Ga  tau(  16) = (   0.3000001   0.0577350   0.1627148  )
        17           Ga  tau(  17) = (   0.3000001   0.0577350   0.4886906  )
        18           Ga  tau(  18) = (   0.3000001   0.0577350   0.8146665  )
        19           Ga  tau(  19) = (   0.2000001   0.2309401   0.1627148  )
        20           Ga  tau(  20) = (   0.2000001   0.2309401   0.4886906  )
        21           Ga  tau(  21) = (   0.2000001   0.2309401   0.8146665  )
        22           Ga  tau(  22) = (   0.1000001   0.4041451   0.1627148  )
        23           Ga  tau(  23) = (   0.1000001   0.4041451   0.4886906  )
        24           Ga  tau(  24) = (   0.1000001   0.4041451   0.8146665  )
        25           Ga  tau(  25) = (   0.0000001   0.5773502   0.1627148  )
        26           Ga  tau(  26) = (   0.0000001   0.5773502   0.4886906  )
        27           Ga  tau(  27) = (   0.0000001   0.5773502   0.8146665  )
        28           Ga  tau(  28) = (  -0.0999999   0.7505553   0.1627148  )
        29           Ga  tau(  29) = (  -0.0999999   0.7505553   0.4886906  )
        30           Ga  tau(  30) = (  -0.0999999   0.7505553   0.8146665  )
        31           Ga  tau(  31) = (   0.5000001   0.0577350   0.1627148  )
        32           Ga  tau(  32) = (   0.5000001   0.0577350   0.4886906  )
        33           Ga  tau(  33) = (   0.5000001   0.0577350   0.8146665  )
        34           Ga  tau(  34) = (   0.4000001   0.2309401   0.1627148  )
        35           Ga  tau(  35) = (   0.4000001   0.2309401   0.4886906  )
        36           Ga  tau(  36) = (   0.4000001   0.2309401   0.8146665  )
        37           Ga  tau(  37) = (   0.3000001   0.4041451   0.1627148  )
        38           Ga  tau(  38) = (   0.3000001   0.4041451   0.4886906  )
        39           Ga  tau(  39) = (   0.3000001   0.4041451   0.8146665  )
        40           Ga  tau(  40) = (   0.2000001   0.5773502   0.1627148  )
        41           Ga  tau(  41) = (   0.2000001   0.5773502   0.4886906  )
        42           Ga  tau(  42) = (   0.2000001   0.5773502   0.8146665  )
        43           Ga  tau(  43) = (   0.1000001   0.7505553   0.1627148  )
        44           Ga  tau(  44) = (   0.1000001   0.7505553   0.4886906  )
        45           Ga  tau(  45) = (   0.1000001   0.7505553   0.8146665  )
        46           Ga  tau(  46) = (   0.7000001   0.0577350   0.1627148  )
        47           Ga  tau(  47) = (   0.7000001   0.0577350   0.4886906  )
        48           Ga  tau(  48) = (   0.7000001   0.0577350   0.8146665  )
        49           Ga  tau(  49) = (   0.6000001   0.2309401   0.1627148  )
        50           Ga  tau(  50) = (   0.6000001   0.2309401   0.4886906  )
        51           Ga  tau(  51) = (   0.6000001   0.2309401   0.8146665  )
        52           Ga  tau(  52) = (   0.5000001   0.4041451   0.1627148  )
        53           Ga  tau(  53) = (   0.5000001   0.4041451   0.4886906  )
        54           Ga  tau(  54) = (   0.5000001   0.4041451   0.8146665  )
        55           Ga  tau(  55) = (   0.4000001   0.5773502   0.1627148  )
        56           Ga  tau(  56) = (   0.4000001   0.5773502   0.4886906  )
        57           Ga  tau(  57) = (   0.4000001   0.5773502   0.8146665  )
        58           Ga  tau(  58) = (   0.3000001   0.7505553   0.1627148  )
        59           Ga  tau(  59) = (   0.3000001   0.7505553   0.4886906  )
        60           Ga  tau(  60) = (   0.3000001   0.7505553   0.8146665  )
        61           Ga  tau(  61) = (   0.9000001   0.0577350   0.1627148  )
        62           Ga  tau(  62) = (   0.9000001   0.0577350   0.4886906  )
        63           Ga  tau(  63) = (   0.9000001   0.0577350   0.8146665  )
        64           Ga  tau(  64) = (   0.8000001   0.2309401   0.1627148  )
        65           Ga  tau(  65) = (   0.8000001   0.2309401   0.4886906  )
        66           Ga  tau(  66) = (   0.8000001   0.2309401   0.8146665  )
        67           Ga  tau(  67) = (   0.7000001   0.4041451   0.1627148  )
        68           Ga  tau(  68) = (   0.7000001   0.4041451   0.4886906  )
        69           Ga  tau(  69) = (   0.7000001   0.4041451   0.8146665  )
        70           Ga  tau(  70) = (   0.6000001   0.5773502   0.1627148  )
        71           Ga  tau(  71) = (   0.6000001   0.5773502   0.4886906  )
        72           Ga  tau(  72) = (   0.6000001   0.5773502   0.8146665  )
        73           Ga  tau(  73) = (   0.5000001   0.7505553   0.1627148  )
        74           Ga  tau(  74) = (   0.5000001   0.7505553   0.4886906  )
        75           Ga  tau(  75) = (   0.5000001   0.7505553   0.8146665  )
        76           Ga  tau(  76) = (  -0.0000001   0.1154701   0.3257027  )
        77           Ga  tau(  77) = (  -0.0000001   0.1154701   0.6516786  )
        78           Ga  tau(  78) = (  -0.0000001   0.1154701   0.9776544  )
        79           Ga  tau(  79) = (  -0.1000001   0.2886752   0.3257027  )
        80           Ga  tau(  80) = (  -0.1000001   0.2886752   0.6516786  )
        81           Ga  tau(  81) = (  -0.1000001   0.2886752   0.9776544  )
        82           Ga  tau(  82) = (  -0.2000001   0.4618803   0.3257027  )
        83           Ga  tau(  83) = (  -0.2000001   0.4618803   0.6516786  )
        84           Ga  tau(  84) = (  -0.2000001   0.4618803   0.9776544  )
        85           Ga  tau(  85) = (  -0.3000001   0.6350854   0.3257027  )
        86           Ga  tau(  86) = (  -0.3000001   0.6350854   0.6516786  )
        87           Ga  tau(  87) = (  -0.3000001   0.6350854   0.9776544  )
        88           Ga  tau(  88) = (  -0.4000001   0.8082905   0.3257027  )
        89           Ga  tau(  89) = (  -0.4000001   0.8082905   0.6516786  )
        90           Ga  tau(  90) = (  -0.4000001   0.8082905   0.9776544  )
        91           Ga  tau(  91) = (   0.1999999   0.1154701   0.3257027  )
        92           Ga  tau(  92) = (   0.1999999   0.1154701   0.6516786  )
        93           Ga  tau(  93) = (   0.1999999   0.1154701   0.9776544  )
        94           Ga  tau(  94) = (   0.0999999   0.2886752   0.3257027  )
        95           Ga  tau(  95) = (   0.0999999   0.2886752   0.6516786  )
        96           Ga  tau(  96) = (   0.0999999   0.2886752   0.9776544  )
        97           Ga  tau(  97) = (  -0.0000001   0.4618803   0.3257027  )
        98           Ga  tau(  98) = (  -0.0000001   0.4618803   0.6516786  )
        99           Ga  tau(  99) = (  -0.0000001   0.4618803   0.9776544  )
       100           Ga  tau( 100) = (  -0.1000001   0.6350854   0.3257027  )
       101           Ga  tau( 101) = (  -0.1000001   0.6350854   0.6516786  )
       102           Ga  tau( 102) = (  -0.1000001   0.6350854   0.9776544  )
       103           Ga  tau( 103) = (  -0.2000001   0.8082905   0.3257027  )
       104           Ga  tau( 104) = (  -0.2000001   0.8082905   0.6516786  )
       105           Ga  tau( 105) = (  -0.2000001   0.8082905   0.9776544  )
       106           Ga  tau( 106) = (   0.3999999   0.1154701   0.3257027  )
       107           Ga  tau( 107) = (   0.3999999   0.1154701   0.6516786  )
       108           Ga  tau( 108) = (   0.3999999   0.1154701   0.9776544  )
       109           Ga  tau( 109) = (   0.2999999   0.2886752   0.3257027  )
       110           Ga  tau( 110) = (   0.2999999   0.2886752   0.6516786  )
       111           Ga  tau( 111) = (   0.2999999   0.2886752   0.9776544  )
       112           Ga  tau( 112) = (   0.1999999   0.4618803   0.3257027  )
       113           Ga  tau( 113) = (   0.1999999   0.4618803   0.6516786  )
       114           Ga  tau( 114) = (   0.1999999   0.4618803   0.9776544  )
       115           Ga  tau( 115) = (   0.0999999   0.6350854   0.3257027  )
       116           Ga  tau( 116) = (   0.0999999   0.6350854   0.6516786  )
       117           Ga  tau( 117) = (   0.0999999   0.6350854   0.9776544  )
       118           Ga  tau( 118) = (  -0.0000001   0.8082905   0.3257027  )
       119           Ga  tau( 119) = (  -0.0000001   0.8082905   0.6516786  )
       120           Ga  tau( 120) = (  -0.0000001   0.8082905   0.9776544  )
       121           Ga  tau( 121) = (   0.5999999   0.1154701   0.3257027  )
       122           Ga  tau( 122) = (   0.5999999   0.1154701   0.6516786  )
       123           Ga  tau( 123) = (   0.5999999   0.1154701   0.9776544  )
       124           Ga  tau( 124) = (   0.4999999   0.2886752   0.3257027  )
       125           Ga  tau( 125) = (   0.4999999   0.2886752   0.6516786  )
       126           Ga  tau( 126) = (   0.4999999   0.2886752   0.9776544  )
       127           Ga  tau( 127) = (   0.3999999   0.4618803   0.3257027  )
       128           Ga  tau( 128) = (   0.3999999   0.4618803   0.6516786  )
       129           Ga  tau( 129) = (   0.3999999   0.4618803   0.9776544  )
       130           Ga  tau( 130) = (   0.2999999   0.6350854   0.3257027  )
       131           Ga  tau( 131) = (   0.2999999   0.6350854   0.6516786  )
       132           Ga  tau( 132) = (   0.2999999   0.6350854   0.9776544  )
       133           Ga  tau( 133) = (   0.1999999   0.8082905   0.3257027  )
       134           Ga  tau( 134) = (   0.1999999   0.8082905   0.6516786  )
       135           Ga  tau( 135) = (   0.1999999   0.8082905   0.9776544  )
       136           Ga  tau( 136) = (   0.7999999   0.1154701   0.3257027  )
       137           Ga  tau( 137) = (   0.7999999   0.1154701   0.6516786  )
       138           Ga  tau( 138) = (   0.7999999   0.1154701   0.9776544  )
       139           Ga  tau( 139) = (   0.6999999   0.2886752   0.3257027  )
       140           Ga  tau( 140) = (   0.6999999   0.2886752   0.6516786  )
       141           Ga  tau( 141) = (   0.6999999   0.2886752   0.9776544  )
       142           Ga  tau( 142) = (   0.5999999   0.4618803   0.3257027  )
       143           Ga  tau( 143) = (   0.5999999   0.4618803   0.6516786  )
       144           Ga  tau( 144) = (   0.5999999   0.4618803   0.9776544  )
       145           Ga  tau( 145) = (   0.4999999   0.6350854   0.3257027  )
       146           Ga  tau( 146) = (   0.4999999   0.6350854   0.6516786  )
       147           Ga  tau( 147) = (   0.4999999   0.6350854   0.9776544  )
       148           Ga  tau( 148) = (   0.3999999   0.8082905   0.3257027  )
       149           Ga  tau( 149) = (   0.3999999   0.8082905   0.6516786  )
       150           Ga  tau( 150) = (   0.3999999   0.8082905   0.9776544  )
       151           N   tau( 151) = (   0.1000001   0.0577350   0.6114777  )
       152           N   tau( 152) = (   0.1000001   0.0577350   0.9374535  )
       153           N   tau( 153) = (   0.0000001   0.2309401   0.2855019  )
       154           N   tau( 154) = (   0.0000001   0.2309401   0.6114777  )
       155           N   tau( 155) = (   0.0000001   0.2309401   0.9374535  )
       156           N   tau( 156) = (  -0.0999999   0.4041451   0.2855019  )
       157           N   tau( 157) = (  -0.0999999   0.4041451   0.6114777  )
       158           N   tau( 158) = (  -0.0999999   0.4041451   0.9374535  )
       159           N   tau( 159) = (  -0.1999999   0.5773502   0.2855019  )
       160           N   tau( 160) = (  -0.1999999   0.5773502   0.6114777  )
       161           N   tau( 161) = (  -0.1999999   0.5773502   0.9374535  )
       162           N   tau( 162) = (  -0.2999999   0.7505553   0.2855019  )
       163           N   tau( 163) = (  -0.2999999   0.7505553   0.6114777  )
       164           N   tau( 164) = (  -0.2999999   0.7505553   0.9374535  )
       165           N   tau( 165) = (   0.3000001   0.0577350   0.2855019  )
       166           N   tau( 166) = (   0.3000001   0.0577350   0.6114777  )
       167           N   tau( 167) = (   0.3000001   0.0577350   0.9374535  )
       168           N   tau( 168) = (   0.2000001   0.2309401   0.2855019  )
       169           N   tau( 169) = (   0.2000001   0.2309401   0.6114777  )
       170           N   tau( 170) = (   0.2000001   0.2309401   0.9374535  )
       171           N   tau( 171) = (   0.1000001   0.4041451   0.2855019  )
       172           N   tau( 172) = (   0.1000001   0.4041451   0.6114777  )
       173           N   tau( 173) = (   0.1000001   0.4041451   0.9374535  )
       174           N   tau( 174) = (   0.0000001   0.5773502   0.2855019  )
       175           N   tau( 175) = (   0.0000001   0.5773502   0.6114777  )
       176           N   tau( 176) = (   0.0000001   0.5773502   0.9374535  )
       177           N   tau( 177) = (  -0.0999999   0.7505553   0.2855019  )
       178           N   tau( 178) = (  -0.0999999   0.7505553   0.6114777  )
       179           N   tau( 179) = (  -0.0999999   0.7505553   0.9374535  )
       180           N   tau( 180) = (   0.5000001   0.0577350   0.2855019  )
       181           N   tau( 181) = (   0.5000001   0.0577350   0.6114777  )
       182           N   tau( 182) = (   0.5000001   0.0577350   0.9374535  )
       183           N   tau( 183) = (   0.4000001   0.2309401   0.2855019  )
       184           N   tau( 184) = (   0.4000001   0.2309401   0.6114777  )
       185           N   tau( 185) = (   0.4000001   0.2309401   0.9374535  )
       186           N   tau( 186) = (   0.3000001   0.4041451   0.2855019  )
       187           N   tau( 187) = (   0.3000001   0.4041451   0.6114777  )
       188           N   tau( 188) = (   0.3000001   0.4041451   0.9374535  )
       189           N   tau( 189) = (   0.2000001   0.5773502   0.2855019  )
       190           N   tau( 190) = (   0.2000001   0.5773502   0.6114777  )
       191           N   tau( 191) = (   0.2000001   0.5773502   0.9374535  )
       192           N   tau( 192) = (   0.1000001   0.7505553   0.2855019  )
       193           N   tau( 193) = (   0.1000001   0.7505553   0.6114777  )
       194           N   tau( 194) = (   0.1000001   0.7505553   0.9374535  )
       195           N   tau( 195) = (   0.7000001   0.0577350   0.2855019  )
       196           N   tau( 196) = (   0.7000001   0.0577350   0.6114777  )
       197           N   tau( 197) = (   0.7000001   0.0577350   0.9374535  )
       198           N   tau( 198) = (   0.6000001   0.2309401   0.2855019  )
       199           N   tau( 199) = (   0.6000001   0.2309401   0.6114777  )
       200           N   tau( 200) = (   0.6000001   0.2309401   0.9374535  )
       201           N   tau( 201) = (   0.5000001   0.4041451   0.2855019  )
       202           N   tau( 202) = (   0.5000001   0.4041451   0.6114777  )
       203           N   tau( 203) = (   0.5000001   0.4041451   0.9374535  )
       204           N   tau( 204) = (   0.4000001   0.5773502   0.2855019  )
       205           N   tau( 205) = (   0.4000001   0.5773502   0.6114777  )
       206           N   tau( 206) = (   0.4000001   0.5773502   0.9374535  )
       207           N   tau( 207) = (   0.3000001   0.7505553   0.2855019  )
       208           N   tau( 208) = (   0.3000001   0.7505553   0.6114777  )
       209           N   tau( 209) = (   0.3000001   0.7505553   0.9374535  )
       210           N   tau( 210) = (   0.9000001   0.0577350   0.2855019  )
       211           N   tau( 211) = (   0.9000001   0.0577350   0.6114777  )
       212           N   tau( 212) = (   0.9000001   0.0577350   0.9374535  )
       213           N   tau( 213) = (   0.8000001   0.2309401   0.2855019  )
       214           N   tau( 214) = (   0.8000001   0.2309401   0.6114777  )
       215           N   tau( 215) = (   0.8000001   0.2309401   0.9374535  )
       216           N   tau( 216) = (   0.7000001   0.4041451   0.2855019  )
       217           N   tau( 217) = (   0.7000001   0.4041451   0.6114777  )
       218           N   tau( 218) = (   0.7000001   0.4041451   0.9374535  )
       219           N   tau( 219) = (   0.6000001   0.5773502   0.2855019  )
       220           N   tau( 220) = (   0.6000001   0.5773502   0.6114777  )
       221           N   tau( 221) = (   0.6000001   0.5773502   0.9374535  )
       222           N   tau( 222) = (   0.5000001   0.7505553   0.2855019  )
       223           N   tau( 223) = (   0.5000001   0.7505553   0.6114777  )
       224           N   tau( 224) = (   0.5000001   0.7505553   0.9374535  )
       225           N   tau( 225) = (  -0.0000001   0.1154701   0.1225140  )
       226           N   tau( 226) = (  -0.0000001   0.1154701   0.4484898  )
       227           N   tau( 227) = (  -0.0000001   0.1154701   0.7744656  )
       228           N   tau( 228) = (  -0.1000001   0.2886752   0.1225140  )
       229           N   tau( 229) = (  -0.1000001   0.2886752   0.4484898  )
       230           N   tau( 230) = (  -0.1000001   0.2886752   0.7744656  )
       231           N   tau( 231) = (  -0.2000001   0.4618803   0.1225140  )
       232           N   tau( 232) = (  -0.2000001   0.4618803   0.4484898  )
       233           N   tau( 233) = (  -0.2000001   0.4618803   0.7744656  )
       234           N   tau( 234) = (  -0.3000001   0.6350854   0.1225140  )
       235           N   tau( 235) = (  -0.3000001   0.6350854   0.4484898  )
       236           N   tau( 236) = (  -0.3000001   0.6350854   0.7744656  )
       237           N   tau( 237) = (  -0.4000001   0.8082905   0.1225140  )
       238           N   tau( 238) = (  -0.4000001   0.8082905   0.4484898  )
       239           N   tau( 239) = (  -0.4000001   0.8082905   0.7744656  )
       240           N   tau( 240) = (   0.1999999   0.1154701   0.1225140  )
       241           N   tau( 241) = (   0.1999999   0.1154701   0.4484898  )
       242           N   tau( 242) = (   0.1999999   0.1154701   0.7744656  )
       243           N   tau( 243) = (   0.0999999   0.2886752   0.1225140  )
       244           N   tau( 244) = (   0.0999999   0.2886752   0.4484898  )
       245           N   tau( 245) = (   0.0999999   0.2886752   0.7744656  )
       246           N   tau( 246) = (  -0.0000001   0.4618803   0.1225140  )
       247           N   tau( 247) = (  -0.0000001   0.4618803   0.4484898  )
       248           N   tau( 248) = (  -0.0000001   0.4618803   0.7744656  )
       249           N   tau( 249) = (  -0.1000001   0.6350854   0.1225140  )
       250           N   tau( 250) = (  -0.1000001   0.6350854   0.4484898  )
       251           N   tau( 251) = (  -0.1000001   0.6350854   0.7744656  )
       252           N   tau( 252) = (  -0.2000001   0.8082905   0.1225140  )
       253           N   tau( 253) = (  -0.2000001   0.8082905   0.4484898  )
       254           N   tau( 254) = (  -0.2000001   0.8082905   0.7744656  )
       255           N   tau( 255) = (   0.3999999   0.1154701   0.1225140  )
       256           N   tau( 256) = (   0.3999999   0.1154701   0.4484898  )
       257           N   tau( 257) = (   0.3999999   0.1154701   0.7744656  )
       258           N   tau( 258) = (   0.2999999   0.2886752   0.1225140  )
       259           N   tau( 259) = (   0.2999999   0.2886752   0.4484898  )
       260           N   tau( 260) = (   0.2999999   0.2886752   0.7744656  )
       261           N   tau( 261) = (   0.1999999   0.4618803   0.1225140  )
       262           N   tau( 262) = (   0.1999999   0.4618803   0.4484898  )
       263           N   tau( 263) = (   0.1999999   0.4618803   0.7744656  )
       264           N   tau( 264) = (   0.0999999   0.6350854   0.1225140  )
       265           N   tau( 265) = (   0.0999999   0.6350854   0.4484898  )
       266           N   tau( 266) = (   0.0999999   0.6350854   0.7744656  )
       267           N   tau( 267) = (  -0.0000001   0.8082905   0.1225140  )
       268           N   tau( 268) = (  -0.0000001   0.8082905   0.4484898  )
       269           N   tau( 269) = (  -0.0000001   0.8082905   0.7744656  )
       270           N   tau( 270) = (   0.5999999   0.1154701   0.1225140  )
       271           N   tau( 271) = (   0.5999999   0.1154701   0.4484898  )
       272           N   tau( 272) = (   0.5999999   0.1154701   0.7744656  )
       273           N   tau( 273) = (   0.4999999   0.2886752   0.1225140  )
       274           N   tau( 274) = (   0.4999999   0.2886752   0.4484898  )
       275           N   tau( 275) = (   0.4999999   0.2886752   0.7744656  )
       276           N   tau( 276) = (   0.3999999   0.4618803   0.1225140  )
       277           N   tau( 277) = (   0.3999999   0.4618803   0.4484898  )
       278           N   tau( 278) = (   0.3999999   0.4618803   0.7744656  )
       279           N   tau( 279) = (   0.2999999   0.6350854   0.1225140  )
       280           N   tau( 280) = (   0.2999999   0.6350854   0.4484898  )
       281           N   tau( 281) = (   0.2999999   0.6350854   0.7744656  )
       282           N   tau( 282) = (   0.1999999   0.8082905   0.1225140  )
       283           N   tau( 283) = (   0.1999999   0.8082905   0.4484898  )
       284           N   tau( 284) = (   0.1999999   0.8082905   0.7744656  )
       285           N   tau( 285) = (   0.7999999   0.1154701   0.1225140  )
       286           N   tau( 286) = (   0.7999999   0.1154701   0.4484898  )
       287           N   tau( 287) = (   0.7999999   0.1154701   0.7744656  )
       288           N   tau( 288) = (   0.6999999   0.2886752   0.1225140  )
       289           N   tau( 289) = (   0.6999999   0.2886752   0.4484898  )
       290           N   tau( 290) = (   0.6999999   0.2886752   0.7744656  )
       291           N   tau( 291) = (   0.5999999   0.4618803   0.1225140  )
       292           N   tau( 292) = (   0.5999999   0.4618803   0.4484898  )
       293           N   tau( 293) = (   0.5999999   0.4618803   0.7744656  )
       294           N   tau( 294) = (   0.4999999   0.6350854   0.1225140  )
       295           N   tau( 295) = (   0.4999999   0.6350854   0.4484898  )
       296           N   tau( 296) = (   0.4999999   0.6350854   0.7744656  )
       297           N   tau( 297) = (   0.3999999   0.8082905   0.1225140  )
       298           N   tau( 298) = (   0.3999999   0.8082905   0.4484898  )
       299           N   tau( 299) = (   0.3999999   0.8082905   0.7744656  )

   Crystallographic axes

     site n.     atom                  positions (cryst. coord.)
         1           Ga  tau(   1) = (  0.1333334  0.0666666  0.1663874  )
         2           Ga  tau(   2) = (  0.1333334  0.0666666  0.4997208  )
         3           Ga  tau(   3) = (  0.1333334  0.0666666  0.8330541  )
         4           Ga  tau(   4) = (  0.1333334  0.2666666  0.1663874  )
         5           Ga  tau(   5) = (  0.1333334  0.2666666  0.4997208  )
         6           Ga  tau(   6) = (  0.1333334  0.2666666  0.8330541  )
         7           Ga  tau(   7) = (  0.1333334  0.4666666  0.1663874  )
         8           Ga  tau(   8) = (  0.1333334  0.4666666  0.4997208  )
         9           Ga  tau(   9) = (  0.1333334  0.4666666  0.8330541  )
        10           Ga  tau(  10) = (  0.1333334  0.6666666  0.1663874  )
        11           Ga  tau(  11) = (  0.1333334  0.6666666  0.4997208  )
        12           Ga  tau(  12) = (  0.1333334  0.6666666  0.8330541  )
        13           Ga  tau(  13) = (  0.1333334  0.8666666  0.1663874  )
        14           Ga  tau(  14) = (  0.1333334  0.8666666  0.4997208  )
        15           Ga  tau(  15) = (  0.1333334  0.8666666  0.8330541  )
        16           Ga  tau(  16) = (  0.3333334  0.0666666  0.1663874  )
        17           Ga  tau(  17) = (  0.3333334  0.0666666  0.4997208  )
        18           Ga  tau(  18) = (  0.3333334  0.0666666  0.8330541  )
        19           Ga  tau(  19) = (  0.3333334  0.2666666  0.1663874  )
        20           Ga  tau(  20) = (  0.3333334  0.2666666  0.4997208  )
        21           Ga  tau(  21) = (  0.3333334  0.2666666  0.8330541  )
        22           Ga  tau(  22) = (  0.3333334  0.4666666  0.1663874  )
        23           Ga  tau(  23) = (  0.3333334  0.4666666  0.4997208  )
        24           Ga  tau(  24) = (  0.3333334  0.4666666  0.8330541  )
        25           Ga  tau(  25) = (  0.3333334  0.6666666  0.1663874  )
        26           Ga  tau(  26) = (  0.3333334  0.6666666  0.4997208  )
        27           Ga  tau(  27) = (  0.3333334  0.6666666  0.8330541  )
        28           Ga  tau(  28) = (  0.3333334  0.8666666  0.1663874  )
        29           Ga  tau(  29) = (  0.3333334  0.8666666  0.4997208  )
        30           Ga  tau(  30) = (  0.3333334  0.8666666  0.8330541  )
        31           Ga  tau(  31) = (  0.5333334  0.0666666  0.1663874  )
        32           Ga  tau(  32) = (  0.5333334  0.0666666  0.4997208  )
        33           Ga  tau(  33) = (  0.5333334  0.0666666  0.8330541  )
        34           Ga  tau(  34) = (  0.5333334  0.2666666  0.1663874  )
        35           Ga  tau(  35) = (  0.5333334  0.2666666  0.4997208  )
        36           Ga  tau(  36) = (  0.5333334  0.2666666  0.8330541  )
        37           Ga  tau(  37) = (  0.5333334  0.4666666  0.1663874  )
        38           Ga  tau(  38) = (  0.5333334  0.4666666  0.4997208  )
        39           Ga  tau(  39) = (  0.5333334  0.4666666  0.8330541  )
        40           Ga  tau(  40) = (  0.5333334  0.6666666  0.1663874  )
        41           Ga  tau(  41) = (  0.5333334  0.6666666  0.4997208  )
        42           Ga  tau(  42) = (  0.5333334  0.6666666  0.8330541  )
        43           Ga  tau(  43) = (  0.5333334  0.8666666  0.1663874  )
        44           Ga  tau(  44) = (  0.5333334  0.8666666  0.4997208  )
        45           Ga  tau(  45) = (  0.5333334  0.8666666  0.8330541  )
        46           Ga  tau(  46) = (  0.7333334  0.0666666  0.1663874  )
        47           Ga  tau(  47) = (  0.7333334  0.0666666  0.4997208  )
        48           Ga  tau(  48) = (  0.7333334  0.0666666  0.8330541  )
        49           Ga  tau(  49) = (  0.7333334  0.2666666  0.1663874  )
        50           Ga  tau(  50) = (  0.7333334  0.2666666  0.4997208  )
        51           Ga  tau(  51) = (  0.7333334  0.2666666  0.8330541  )
        52           Ga  tau(  52) = (  0.7333334  0.4666666  0.1663874  )
        53           Ga  tau(  53) = (  0.7333334  0.4666666  0.4997208  )
        54           Ga  tau(  54) = (  0.7333334  0.4666666  0.8330541  )
        55           Ga  tau(  55) = (  0.7333334  0.6666666  0.1663874  )
        56           Ga  tau(  56) = (  0.7333334  0.6666666  0.4997208  )
        57           Ga  tau(  57) = (  0.7333334  0.6666666  0.8330541  )
        58           Ga  tau(  58) = (  0.7333334  0.8666666  0.1663874  )
        59           Ga  tau(  59) = (  0.7333334  0.8666666  0.4997208  )
        60           Ga  tau(  60) = (  0.7333334  0.8666666  0.8330541  )
        61           Ga  tau(  61) = (  0.9333334  0.0666666  0.1663874  )
        62           Ga  tau(  62) = (  0.9333334  0.0666666  0.4997208  )
        63           Ga  tau(  63) = (  0.9333334  0.0666666  0.8330541  )
        64           Ga  tau(  64) = (  0.9333334  0.2666666  0.1663874  )
        65           Ga  tau(  65) = (  0.9333334  0.2666666  0.4997208  )
        66           Ga  tau(  66) = (  0.9333334  0.2666666  0.8330541  )
        67           Ga  tau(  67) = (  0.9333334  0.4666666  0.1663874  )
        68           Ga  tau(  68) = (  0.9333334  0.4666666  0.4997208  )
        69           Ga  tau(  69) = (  0.9333334  0.4666666  0.8330541  )
        70           Ga  tau(  70) = (  0.9333334  0.6666666  0.1663874  )
        71           Ga  tau(  71) = (  0.9333334  0.6666666  0.4997208  )
        72           Ga  tau(  72) = (  0.9333334  0.6666666  0.8330541  )
        73           Ga  tau(  73) = (  0.9333334  0.8666666  0.1663874  )
        74           Ga  tau(  74) = (  0.9333334  0.8666666  0.4997208  )
        75           Ga  tau(  75) = (  0.9333334  0.8666666  0.8330541  )
        76           Ga  tau(  76) = (  0.0666666  0.1333334  0.3330541  )
        77           Ga  tau(  77) = (  0.0666666  0.1333334  0.6663874  )
        78           Ga  tau(  78) = (  0.0666666  0.1333334  0.9997208  )
        79           Ga  tau(  79) = (  0.0666666  0.3333334  0.3330541  )
        80           Ga  tau(  80) = (  0.0666666  0.3333334  0.6663874  )
        81           Ga  tau(  81) = (  0.0666666  0.3333334  0.9997208  )
        82           Ga  tau(  82) = (  0.0666666  0.5333334  0.3330541  )
        83           Ga  tau(  83) = (  0.0666666  0.5333334  0.6663874  )
        84           Ga  tau(  84) = (  0.0666666  0.5333334  0.9997208  )
        85           Ga  tau(  85) = (  0.0666666  0.7333334  0.3330541  )
        86           Ga  tau(  86) = (  0.0666666  0.7333334  0.6663874  )
        87           Ga  tau(  87) = (  0.0666666  0.7333334  0.9997208  )
        88           Ga  tau(  88) = (  0.0666666  0.9333334  0.3330541  )
        89           Ga  tau(  89) = (  0.0666666  0.9333334  0.6663874  )
        90           Ga  tau(  90) = (  0.0666666  0.9333334  0.9997208  )
        91           Ga  tau(  91) = (  0.2666666  0.1333334  0.3330541  )
        92           Ga  tau(  92) = (  0.2666666  0.1333334  0.6663874  )
        93           Ga  tau(  93) = (  0.2666666  0.1333334  0.9997208  )
        94           Ga  tau(  94) = (  0.2666666  0.3333334  0.3330541  )
        95           Ga  tau(  95) = (  0.2666666  0.3333334  0.6663874  )
        96           Ga  tau(  96) = (  0.2666666  0.3333334  0.9997208  )
        97           Ga  tau(  97) = (  0.2666666  0.5333334  0.3330541  )
        98           Ga  tau(  98) = (  0.2666666  0.5333334  0.6663874  )
        99           Ga  tau(  99) = (  0.2666666  0.5333334  0.9997208  )
       100           Ga  tau( 100) = (  0.2666666  0.7333334  0.3330541  )
       101           Ga  tau( 101) = (  0.2666666  0.7333334  0.6663874  )
       102           Ga  tau( 102) = (  0.2666666  0.7333334  0.9997208  )
       103           Ga  tau( 103) = (  0.2666666  0.9333334  0.3330541  )
       104           Ga  tau( 104) = (  0.2666666  0.9333334  0.6663874  )
       105           Ga  tau( 105) = (  0.2666666  0.9333334  0.9997208  )
       106           Ga  tau( 106) = (  0.4666666  0.1333334  0.3330541  )
       107           Ga  tau( 107) = (  0.4666666  0.1333334  0.6663874  )
       108           Ga  tau( 108) = (  0.4666666  0.1333334  0.9997208  )
       109           Ga  tau( 109) = (  0.4666666  0.3333334  0.3330541  )
       110           Ga  tau( 110) = (  0.4666666  0.3333334  0.6663874  )
       111           Ga  tau( 111) = (  0.4666666  0.3333334  0.9997208  )
       112           Ga  tau( 112) = (  0.4666666  0.5333334  0.3330541  )
       113           Ga  tau( 113) = (  0.4666666  0.5333334  0.6663874  )
       114           Ga  tau( 114) = (  0.4666666  0.5333334  0.9997208  )
       115           Ga  tau( 115) = (  0.4666666  0.7333334  0.3330541  )
       116           Ga  tau( 116) = (  0.4666666  0.7333334  0.6663874  )
       117           Ga  tau( 117) = (  0.4666666  0.7333334  0.9997208  )
       118           Ga  tau( 118) = (  0.4666666  0.9333334  0.3330541  )
       119           Ga  tau( 119) = (  0.4666666  0.9333334  0.6663874  )
       120           Ga  tau( 120) = (  0.4666666  0.9333334  0.9997208  )
       121           Ga  tau( 121) = (  0.6666666  0.1333334  0.3330541  )
       122           Ga  tau( 122) = (  0.6666666  0.1333334  0.6663874  )
       123           Ga  tau( 123) = (  0.6666666  0.1333334  0.9997208  )
       124           Ga  tau( 124) = (  0.6666666  0.3333334  0.3330541  )
       125           Ga  tau( 125) = (  0.6666666  0.3333334  0.6663874  )
       126           Ga  tau( 126) = (  0.6666666  0.3333334  0.9997208  )
       127           Ga  tau( 127) = (  0.6666666  0.5333334  0.3330541  )
       128           Ga  tau( 128) = (  0.6666666  0.5333334  0.6663874  )
       129           Ga  tau( 129) = (  0.6666666  0.5333334  0.9997208  )
       130           Ga  tau( 130) = (  0.6666666  0.7333334  0.3330541  )
       131           Ga  tau( 131) = (  0.6666666  0.7333334  0.6663874  )
       132           Ga  tau( 132) = (  0.6666666  0.7333334  0.9997208  )
       133           Ga  tau( 133) = (  0.6666666  0.9333334  0.3330541  )
       134           Ga  tau( 134) = (  0.6666666  0.9333334  0.6663874  )
       135           Ga  tau( 135) = (  0.6666666  0.9333334  0.9997208  )
       136           Ga  tau( 136) = (  0.8666666  0.1333334  0.3330541  )
       137           Ga  tau( 137) = (  0.8666666  0.1333334  0.6663874  )
       138           Ga  tau( 138) = (  0.8666666  0.1333334  0.9997208  )
       139           Ga  tau( 139) = (  0.8666666  0.3333334  0.3330541  )
       140           Ga  tau( 140) = (  0.8666666  0.3333334  0.6663874  )
       141           Ga  tau( 141) = (  0.8666666  0.3333334  0.9997208  )
       142           Ga  tau( 142) = (  0.8666666  0.5333334  0.3330541  )
       143           Ga  tau( 143) = (  0.8666666  0.5333334  0.6663874  )
       144           Ga  tau( 144) = (  0.8666666  0.5333334  0.9997208  )
       145           Ga  tau( 145) = (  0.8666666  0.7333334  0.3330541  )
       146           Ga  tau( 146) = (  0.8666666  0.7333334  0.6663874  )
       147           Ga  tau( 147) = (  0.8666666  0.7333334  0.9997208  )
       148           Ga  tau( 148) = (  0.8666666  0.9333334  0.3330541  )
       149           Ga  tau( 149) = (  0.8666666  0.9333334  0.6663874  )
       150           Ga  tau( 150) = (  0.8666666  0.9333334  0.9997208  )
       151           N   tau( 151) = (  0.1333334  0.0666666  0.6252792  )
       152           N   tau( 152) = (  0.1333334  0.0666666  0.9586126  )
       153           N   tau( 153) = (  0.1333334  0.2666666  0.2919459  )
       154           N   tau( 154) = (  0.1333334  0.2666666  0.6252792  )
       155           N   tau( 155) = (  0.1333334  0.2666666  0.9586126  )
       156           N   tau( 156) = (  0.1333334  0.4666666  0.2919459  )
       157           N   tau( 157) = (  0.1333334  0.4666666  0.6252792  )
       158           N   tau( 158) = (  0.1333334  0.4666666  0.9586126  )
       159           N   tau( 159) = (  0.1333334  0.6666666  0.2919459  )
       160           N   tau( 160) = (  0.1333334  0.6666666  0.6252792  )
       161           N   tau( 161) = (  0.1333334  0.6666666  0.9586126  )
       162           N   tau( 162) = (  0.1333334  0.8666666  0.2919459  )
       163           N   tau( 163) = (  0.1333334  0.8666666  0.6252792  )
       164           N   tau( 164) = (  0.1333334  0.8666666  0.9586126  )
       165           N   tau( 165) = (  0.3333334  0.0666666  0.2919459  )
       166           N   tau( 166) = (  0.3333334  0.0666666  0.6252792  )
       167           N   tau( 167) = (  0.3333334  0.0666666  0.9586126  )
       168           N   tau( 168) = (  0.3333334  0.2666666  0.2919459  )
       169           N   tau( 169) = (  0.3333334  0.2666666  0.6252792  )
       170           N   tau( 170) = (  0.3333334  0.2666666  0.9586126  )
       171           N   tau( 171) = (  0.3333334  0.4666666  0.2919459  )
       172           N   tau( 172) = (  0.3333334  0.4666666  0.6252792  )
       173           N   tau( 173) = (  0.3333334  0.4666666  0.9586126  )
       174           N   tau( 174) = (  0.3333334  0.6666666  0.2919459  )
       175           N   tau( 175) = (  0.3333334  0.6666666  0.6252792  )
       176           N   tau( 176) = (  0.3333334  0.6666666  0.9586126  )
       177           N   tau( 177) = (  0.3333334  0.8666666  0.2919459  )
       178           N   tau( 178) = (  0.3333334  0.8666666  0.6252792  )
       179           N   tau( 179) = (  0.3333334  0.8666666  0.9586126  )
       180           N   tau( 180) = (  0.5333334  0.0666666  0.2919459  )
       181           N   tau( 181) = (  0.5333334  0.0666666  0.6252792  )
       182           N   tau( 182) = (  0.5333334  0.0666666  0.9586126  )
       183           N   tau( 183) = (  0.5333334  0.2666666  0.2919459  )
       184           N   tau( 184) = (  0.5333334  0.2666666  0.6252792  )
       185           N   tau( 185) = (  0.5333334  0.2666666  0.9586126  )
       186           N   tau( 186) = (  0.5333334  0.4666666  0.2919459  )
       187           N   tau( 187) = (  0.5333334  0.4666666  0.6252792  )
       188           N   tau( 188) = (  0.5333334  0.4666666  0.9586126  )
       189           N   tau( 189) = (  0.5333334  0.6666666  0.2919459  )
       190           N   tau( 190) = (  0.5333334  0.6666666  0.6252792  )
       191           N   tau( 191) = (  0.5333334  0.6666666  0.9586126  )
       192           N   tau( 192) = (  0.5333334  0.8666666  0.2919459  )
       193           N   tau( 193) = (  0.5333334  0.8666666  0.6252792  )
       194           N   tau( 194) = (  0.5333334  0.8666666  0.9586126  )
       195           N   tau( 195) = (  0.7333334  0.0666666  0.2919459  )
       196           N   tau( 196) = (  0.7333334  0.0666666  0.6252792  )
       197           N   tau( 197) = (  0.7333334  0.0666666  0.9586126  )
       198           N   tau( 198) = (  0.7333334  0.2666666  0.2919459  )
       199           N   tau( 199) = (  0.7333334  0.2666666  0.6252792  )
       200           N   tau( 200) = (  0.7333334  0.2666666  0.9586126  )
       201           N   tau( 201) = (  0.7333334  0.4666666  0.2919459  )
       202           N   tau( 202) = (  0.7333334  0.4666666  0.6252792  )
       203           N   tau( 203) = (  0.7333334  0.4666666  0.9586126  )
       204           N   tau( 204) = (  0.7333334  0.6666666  0.2919459  )
       205           N   tau( 205) = (  0.7333334  0.6666666  0.6252792  )
       206           N   tau( 206) = (  0.7333334  0.6666666  0.9586126  )
       207           N   tau( 207) = (  0.7333334  0.8666666  0.2919459  )
       208           N   tau( 208) = (  0.7333334  0.8666666  0.6252792  )
       209           N   tau( 209) = (  0.7333334  0.8666666  0.9586126  )
       210           N   tau( 210) = (  0.9333334  0.0666666  0.2919459  )
       211           N   tau( 211) = (  0.9333334  0.0666666  0.6252792  )
       212           N   tau( 212) = (  0.9333334  0.0666666  0.9586126  )
       213           N   tau( 213) = (  0.9333334  0.2666666  0.2919459  )
       214           N   tau( 214) = (  0.9333334  0.2666666  0.6252792  )
       215           N   tau( 215) = (  0.9333334  0.2666666  0.9586126  )
       216           N   tau( 216) = (  0.9333334  0.4666666  0.2919459  )
       217           N   tau( 217) = (  0.9333334  0.4666666  0.6252792  )
       218           N   tau( 218) = (  0.9333334  0.4666666  0.9586126  )
       219           N   tau( 219) = (  0.9333334  0.6666666  0.2919459  )
       220           N   tau( 220) = (  0.9333334  0.6666666  0.6252792  )
       221           N   tau( 221) = (  0.9333334  0.6666666  0.9586126  )
       222           N   tau( 222) = (  0.9333334  0.8666666  0.2919459  )
       223           N   tau( 223) = (  0.9333334  0.8666666  0.6252792  )
       224           N   tau( 224) = (  0.9333334  0.8666666  0.9586126  )
       225           N   tau( 225) = (  0.0666666  0.1333334  0.1252792  )
       226           N   tau( 226) = (  0.0666666  0.1333334  0.4586126  )
       227           N   tau( 227) = (  0.0666666  0.1333334  0.7919459  )
       228           N   tau( 228) = (  0.0666666  0.3333334  0.1252792  )
       229           N   tau( 229) = (  0.0666666  0.3333334  0.4586126  )
       230           N   tau( 230) = (  0.0666666  0.3333334  0.7919459  )
       231           N   tau( 231) = (  0.0666666  0.5333334  0.1252792  )
       232           N   tau( 232) = (  0.0666666  0.5333334  0.4586126  )
       233           N   tau( 233) = (  0.0666666  0.5333334  0.7919459  )
       234           N   tau( 234) = (  0.0666666  0.7333334  0.1252792  )
       235           N   tau( 235) = (  0.0666666  0.7333334  0.4586126  )
       236           N   tau( 236) = (  0.0666666  0.7333334  0.7919459  )
       237           N   tau( 237) = (  0.0666666  0.9333334  0.1252792  )
       238           N   tau( 238) = (  0.0666666  0.9333334  0.4586126  )
       239           N   tau( 239) = (  0.0666666  0.9333334  0.7919459  )
       240           N   tau( 240) = (  0.2666666  0.1333334  0.1252792  )
       241           N   tau( 241) = (  0.2666666  0.1333334  0.4586126  )
       242           N   tau( 242) = (  0.2666666  0.1333334  0.7919459  )
       243           N   tau( 243) = (  0.2666666  0.3333334  0.1252792  )
       244           N   tau( 244) = (  0.2666666  0.3333334  0.4586126  )
       245           N   tau( 245) = (  0.2666666  0.3333334  0.7919459  )
       246           N   tau( 246) = (  0.2666666  0.5333334  0.1252792  )
       247           N   tau( 247) = (  0.2666666  0.5333334  0.4586126  )
       248           N   tau( 248) = (  0.2666666  0.5333334  0.7919459  )
       249           N   tau( 249) = (  0.2666666  0.7333334  0.1252792  )
       250           N   tau( 250) = (  0.2666666  0.7333334  0.4586126  )
       251           N   tau( 251) = (  0.2666666  0.7333334  0.7919459  )
       252           N   tau( 252) = (  0.2666666  0.9333334  0.1252792  )
       253           N   tau( 253) = (  0.2666666  0.9333334  0.4586126  )
       254           N   tau( 254) = (  0.2666666  0.9333334  0.7919459  )
       255           N   tau( 255) = (  0.4666666  0.1333334  0.1252792  )
       256           N   tau( 256) = (  0.4666666  0.1333334  0.4586126  )
       257           N   tau( 257) = (  0.4666666  0.1333334  0.7919459  )
       258           N   tau( 258) = (  0.4666666  0.3333334  0.1252792  )
       259           N   tau( 259) = (  0.4666666  0.3333334  0.4586126  )
       260           N   tau( 260) = (  0.4666666  0.3333334  0.7919459  )
       261           N   tau( 261) = (  0.4666666  0.5333334  0.1252792  )
       262           N   tau( 262) = (  0.4666666  0.5333334  0.4586126  )
       263           N   tau( 263) = (  0.4666666  0.5333334  0.7919459  )
       264           N   tau( 264) = (  0.4666666  0.7333334  0.1252792  )
       265           N   tau( 265) = (  0.4666666  0.7333334  0.4586126  )
       266           N   tau( 266) = (  0.4666666  0.7333334  0.7919459  )
       267           N   tau( 267) = (  0.4666666  0.9333334  0.1252792  )
       268           N   tau( 268) = (  0.4666666  0.9333334  0.4586126  )
       269           N   tau( 269) = (  0.4666666  0.9333334  0.7919459  )
       270           N   tau( 270) = (  0.6666666  0.1333334  0.1252792  )
       271           N   tau( 271) = (  0.6666666  0.1333334  0.4586126  )
       272           N   tau( 272) = (  0.6666666  0.1333334  0.7919459  )
       273           N   tau( 273) = (  0.6666666  0.3333334  0.1252792  )
       274           N   tau( 274) = (  0.6666666  0.3333334  0.4586126  )
       275           N   tau( 275) = (  0.6666666  0.3333334  0.7919459  )
       276           N   tau( 276) = (  0.6666666  0.5333334  0.1252792  )
       277           N   tau( 277) = (  0.6666666  0.5333334  0.4586126  )
       278           N   tau( 278) = (  0.6666666  0.5333334  0.7919459  )
       279           N   tau( 279) = (  0.6666666  0.7333334  0.1252792  )
       280           N   tau( 280) = (  0.6666666  0.7333334  0.4586126  )
       281           N   tau( 281) = (  0.6666666  0.7333334  0.7919459  )
       282           N   tau( 282) = (  0.6666666  0.9333334  0.1252792  )
       283           N   tau( 283) = (  0.6666666  0.9333334  0.4586126  )
       284           N   tau( 284) = (  0.6666666  0.9333334  0.7919459  )
       285           N   tau( 285) = (  0.8666666  0.1333334  0.1252792  )
       286           N   tau( 286) = (  0.8666666  0.1333334  0.4586126  )
       287           N   tau( 287) = (  0.8666666  0.1333334  0.7919459  )
       288           N   tau( 288) = (  0.8666666  0.3333334  0.1252792  )
       289           N   tau( 289) = (  0.8666666  0.3333334  0.4586126  )
       290           N   tau( 290) = (  0.8666666  0.3333334  0.7919459  )
       291           N   tau( 291) = (  0.8666666  0.5333334  0.1252792  )
       292           N   tau( 292) = (  0.8666666  0.5333334  0.4586126  )
       293           N   tau( 293) = (  0.8666666  0.5333334  0.7919459  )
       294           N   tau( 294) = (  0.8666666  0.7333334  0.1252792  )
       295           N   tau( 295) = (  0.8666666  0.7333334  0.4586126  )
       296           N   tau( 296) = (  0.8666666  0.7333334  0.7919459  )
       297           N   tau( 297) = (  0.8666666  0.9333334  0.1252792  )
       298           N   tau( 298) = (  0.8666666  0.9333334  0.4586126  )
       299           N   tau( 299) = (  0.8666666  0.9333334  0.7919459  )

     number of k points=     6  Gaussian smearing, width (Ry)=  0.0100
                       cart. coord. in units 2pi/alat
        k(    1) = (   0.0000000   0.0000000   0.0000000), wk =   0.2500000
        k(    2) = (   0.0000000   0.0000000  -0.5112854), wk =   0.2500000
        k(    3) = (   0.0000000  -0.5773503   0.0000000), wk =   0.5000000
        k(    4) = (   0.0000000  -0.5773503  -0.5112854), wk =   0.5000000
        k(    5) = (  -0.5000000  -0.2886751   0.0000000), wk =   0.2500000
        k(    6) = (  -0.5000000  -0.2886751  -0.5112854), wk =   0.2500000

                       cryst. coord.
        k(    1) = (   0.0000000   0.0000000   0.0000000), wk =   0.2500000
        k(    2) = (   0.0000000   0.0000000  -0.5000000), wk =   0.2500000
        k(    3) = (   0.0000000  -0.5000000   0.0000000), wk =   0.5000000
        k(    4) = (   0.0000000  -0.5000000  -0.5000000), wk =   0.5000000
        k(    5) = (  -0.5000000  -0.0000000   0.0000000), wk =   0.2500000
        k(    6) = (  -0.5000000  -0.0000000  -0.5000000), wk =   0.2500000

     Dense  grid:  2698283 G-vectors     FFT dimensions: ( 192, 192, 180)

     Smooth grid:  1930731 G-vectors     FFT dimensions: ( 180, 180, 160)

     Dynamical RAM for                 wfc:      93.08 MB

     Dynamical RAM for     wfc (w. buffer):     372.31 MB

     Dynamical RAM for           str. fact:       1.29 MB

     Dynamical RAM for           local pot:       0.00 MB

     Dynamical RAM for          nlocal pot:     223.89 MB

     Dynamical RAM for                qrad:       3.00 MB

     Dynamical RAM for          rho,v,vnew:       4.46 MB

     Dynamical RAM for               rhoin:       1.49 MB

     Dynamical RAM for            rho*nmix:      10.29 MB

     Dynamical RAM for           G-vectors:       2.64 MB

     Dynamical RAM for          h,s,v(r/c):    1917.42 MB

     Dynamical RAM for          <psi|beta>:      96.09 MB

     Dynamical RAM for                 psi:     372.31 MB

     Dynamical RAM for                hpsi:     372.31 MB

     Dynamical RAM for                spsi:     372.31 MB

     Dynamical RAM for      wfcinit/wfcrot:     246.08 MB

     Dynamical RAM for           addusdens:     108.40 MB

     Dynamical RAM for          addusforce:     204.85 MB

     Dynamical RAM for         addusstress:      64.82 MB

     Estimated static dynamical RAM per process >     615.22 MB

     Estimated max dynamical RAM per process >       3.67 GB

     Estimated total dynamical RAM >     468.85 GB

     Atomic positions and unit cell read from directory:
     ./GaN.save/
     Atomic positions from file used, from input discarded
 

     Check: negative core charge=   -0.000003

     The initial density is read from file :
     ./GaN.save/charge-density



     %%%%%%%%%%%%%%%%%%%%%%%%%%%%%%%%%%%%%%%%%%%%%%%%%%%%%%%%%%%%%%%%%%%%%%%%
     %                                                                      %
     % You are using vdW-DF, which was implemented by the Thonhauser group. %
     % Please cite the following two papers that made this development      %
     % possible and the two reviews that describe the various versions:     %
     %                                                                      %
     %   T. Thonhauser et al., PRL 115, 136402 (2015).                      %
     %   T. Thonhauser et al., PRB 76, 125112 (2007).                       %
     %   K. Berland et al., Rep. Prog. Phys. 78, 066501 (2015).             %
     %   D.C. Langreth et al., J. Phys.: Condens. Matter 21, 084203 (2009). %
     %                                                                      %
     % If you are calculating stress with vdW-DF, please also cite:         %
     %                                                                      %
     %   R. Sabatini et al., J. Phys.: Condens. Matter 24, 424209 (2012).   %
     %                                                                      %
     %%%%%%%%%%%%%%%%%%%%%%%%%%%%%%%%%%%%%%%%%%%%%%%%%%%%%%%%%%%%%%%%%%%%%%%%

     %%%%%%%%%%%%%%%%%%%%%%%%%%%%%%%%%%%%%%%%%%%%%%%%%%%%%%%%%%%%%%%%%%%%%%%%
     %                                                                      %
     %  vdW-DF NEWS:                                                        %
     %                                                                      %
     %  * vdW-DF3 is now available. DOI: 10.1021/acs.jctc.0c00471           %
     %    use with input_dft = 'vdW-DF3-opt1' or 'vdW-DF3-opt2'             %
     %                                                                      %
     %  * Unscreened and range-separated vdW-DF hybrid functionals          %
     %    DOI: 10.1063/1.4986522 and 10.1088/1361-648X/ac2ad2               %
     %    use with input_dft = 'vdW-DF-cx0' (etc) and 'vdW-DF-ahcx'         %
     %                                                                      %
     %%%%%%%%%%%%%%%%%%%%%%%%%%%%%%%%%%%%%%%%%%%%%%%%%%%%%%%%%%%%%%%%%%%%%%%%


     Carrying out vdW-DF run using the following parameters:
     Nqs    =  20  Npoints =  1024  r_max =  100.000
     q_mesh =  0.00001000  0.04494208  0.09755937  0.15916263
               0.23128650  0.31572767  0.41458969  0.53033537
               0.66584808  0.82450364  1.01025438  1.22772762
               1.48234092  1.78043706  2.12944203  2.53805004
               3.01644009  3.57652955  4.23227104  5.00000000


     -----------------------------------------------
     Non-local corr. energy    =      81.66605777 Ry
     -----------------------------------------------

     Starting wfcs from file
     Checking if some PAW data can be deallocated... 
       PAW data deallocated on   74 nodes for type:  1
       PAW data deallocated on   53 nodes for type:  2

     total cpu time spent up to now is       52.4 secs

     Self-consistent Calculation

     iteration #  1     ecut=    70.00 Ry     beta= 0.70
     Davidson diagonalization with overlap

---- Real-time Memory Report at c_bands before calling an iterative solver
           604 MiB given to the printing process from OS
             0 MiB allocation reported by mallinfo(arena+hblkhd)
       1568778 MiB available memory on the node where the printing process lives
------------------
     ethr =  1.00E-05,  avg # of iterations =  1.0

     Threshold (ethr) on eigenvalues was too large:
     Diagonalizing with lowered threshold

     Davidson diagonalization with overlap

---- Real-time Memory Report at c_bands before calling an iterative solver
          2385 MiB given to the printing process from OS
             0 MiB allocation reported by mallinfo(arena+hblkhd)
       1541934 MiB available memory on the node where the printing process lives
------------------
     c_bands:  1 eigenvalues not converged
     c_bands:  1 eigenvalues not converged
     ethr =  6.04E-12,  avg # of iterations = 19.7


     -----------------------------------------------
     Non-local corr. energy    =      81.66605577 Ry
     -----------------------------------------------


     total cpu time spent up to now is     4104.3 secs

     total energy              =  -46813.58784556 Ry
     estimated scf accuracy    <       0.00000020 Ry

     iteration #  2     ecut=    70.00 Ry     beta= 0.70
     Davidson diagonalization with overlap

---- Real-time Memory Report at c_bands before calling an iterative solver
          2823 MiB given to the printing process from OS
             0 MiB allocation reported by mallinfo(arena+hblkhd)
       1520264 MiB available memory on the node where the printing process lives
------------------
     c_bands:  1 eigenvalues not converged
     ethr =  7.53E-12,  avg # of iterations = 18.8


     -----------------------------------------------
     Non-local corr. energy    =      81.66605501 Ry
     -----------------------------------------------


     total cpu time spent up to now is    10525.4 secs

     total energy              =  -46813.58784544 Ry
     estimated scf accuracy    <       0.00000189 Ry

     iteration #  3     ecut=    70.00 Ry     beta= 0.70
     Davidson diagonalization with overlap

---- Real-time Memory Report at c_bands before calling an iterative solver
          3326 MiB given to the printing process from OS
             0 MiB allocation reported by mallinfo(arena+hblkhd)
       1517569 MiB available memory on the node where the printing process lives
------------------
     c_bands:  1 eigenvalues not converged
     ethr =  7.53E-12,  avg # of iterations = 18.5


     -----------------------------------------------
     Non-local corr. energy    =      81.66605503 Ry
     -----------------------------------------------


     total cpu time spent up to now is    15990.4 secs

     total energy              =  -46813.58784568 Ry
     estimated scf accuracy    <       0.00000016 Ry

     iteration #  4     ecut=    70.00 Ry     beta= 0.70
     Davidson diagonalization with overlap

---- Real-time Memory Report at c_bands before calling an iterative solver
          3326 MiB given to the printing process from OS
             0 MiB allocation reported by mallinfo(arena+hblkhd)
       1517463 MiB available memory on the node where the printing process lives
------------------
     c_bands:  1 eigenvalues not converged
     c_bands:  2 eigenvalues not converged
     ethr =  5.87E-12,  avg # of iterations = 19.0


     -----------------------------------------------
     Non-local corr. energy    =      81.66605518 Ry
     -----------------------------------------------


     total cpu time spent up to now is    18999.7 secs

     End of self-consistent calculation

          k = 0.0000 0.0000 0.0000 (241213 PWs)   bands (ev):

    -6.8628  -6.6620  -6.6553  -6.6388  -6.6385  -6.6310  -6.6250  -6.6249
    -6.6200  -6.5154  -6.5068  -6.5064  -6.5040  -6.5038  -6.4961  -6.4915
    -6.4915  -6.4895  -6.4895  -6.4852  -6.4841  -6.4618  -6.4560  -6.4546
    -6.4426  -6.4419  -6.4416  -6.4397  -6.4287  -6.4249  -6.4242  -6.4168
    -6.4158  -6.4149  -6.4119  -6.4092  -6.4089  -6.4084  -6.4079  -6.4077
    -6.4014  -6.3964  -6.3961  -6.3942  -6.3892  -6.3860  -6.3816  -6.3816
    -6.3769  -6.3769  -6.3762  -6.3745  -6.3744  -6.3728  -6.3725  -6.3711
    -6.3688  -6.3685  -6.3683  -6.3668  -6.3666  -6.3666  -6.3658  -6.3650
    -6.3649  -6.3644  -6.3639  -6.3637  -6.3629  -6.3623  -6.3616  -6.3608
    -6.3595  -6.3593  -6.3590  -6.3586  -6.3581  -6.3553  -6.3547  -6.3542
    -6.3540  -6.3534  -6.3533  -6.3531  -6.3531  -6.3527  -6.3523  -6.3470
    -6.3467  -6.3453  -6.3426  -6.3422  -6.3406  -6.3374  -6.3370  -6.3369
    -6.3360  -6.3327  -6.3320  -6.3316  -6.3312  -6.3303  -6.3299  -6.3298
    -6.3296  -6.3292  -6.3292  -6.3279  -6.3278  -6.3273  -6.3272  -6.3272
    -6.3268  -6.3262  -6.3257  -6.3257  -6.3251  -6.3230  -6.3225  -6.3222
    -6.3220  -6.3216  -6.3212  -6.3208  -6.3203  -6.3195  -6.3191  -6.3188
    -6.3188  -6.3186  -6.3182  -6.3150  -6.3148  -6.3145  -6.3141  -6.3140
    -6.3135  -6.3095  -6.3091  -6.3086  -6.3083  -6.3080  -6.3078  -6.3071
    -6.3062  -6.3055  -6.3050  -6.3049  -6.3044  -5.4739  -5.4359  -5.4358
    -5.4335  -5.4270  -5.4267  -5.4008  -5.4002  -5.3990  -5.3780  -5.3775
    -5.3773  -5.3685  -5.3637  -5.3637  -5.3476  -5.3475  -5.3456  -5.3418
    -5.3414  -5.2758  -5.2660  -5.2659  -5.2610  -5.2610  -5.2580  -5.2580
    -5.2533  -5.2533  -5.2517  -5.2506  -5.2503  -5.2502  -5.2471  -5.2471
    -5.2469  -5.2441  -5.2441  -5.2437  -5.2419  -5.2419  -5.2408  -5.2397
    -5.2391  -5.2391  -5.2374  -5.2361  -5.2361  -5.2340  -5.2339  -5.2339
    -5.2339  -5.2332  -5.2315  -5.2314  -5.2310  -5.2310  -5.2303  -5.2294
    -5.2294  -5.2287  -5.2284  -5.2284  -5.2276  -5.2268  -5.2267  -5.2249
    -5.2249  -5.2248  -5.2247  -5.2232  -5.2231  -5.2224  -5.2224  -5.2216
    -5.2214  -5.2214  -5.2209  -5.2203  -5.2203  -5.2180  -5.2179  -5.2178
    -5.2177  -5.2174  -5.2163  -5.2163  -5.2155  -5.2144  -5.2138  -5.2138
    -5.2125  -5.2125  -5.2123  -5.2123  -5.2123  -5.2107  -5.2099  -5.2099
    -5.2093  -5.2091  -5.2091  -5.2088  -5.2083  -5.2083  -5.2071  -5.2068
    -5.2068  -5.2051  -5.2051  -5.2047  -5.2041  -5.2040  -5.2040  -5.2036
    -5.2035  -5.2025  -5.2024  -5.2021  -5.2020  -5.2008  -5.2002  -5.1993
    -5.1993  -5.1992  -5.1984  -5.1984  -5.1969  -5.1968  -5.1963  -5.1962
    -5.1956  -5.1951  -5.1951  -5.1947  -5.1947  -5.1946  -5.1937  -5.1937
    -5.1937  -5.1930  -5.1930  -5.1925  -5.1924  -5.1909  -5.1909  -5.1901
    -5.1901  -5.1897  -5.1896  -5.1888  -5.1888  -5.1869  -5.1868  -5.1858
    -5.1858  -5.1858  -5.1851  -5.1851  -5.1851  -5.1846  -5.1845  -5.1845
    -5.1842  -5.1842  -5.1835  -5.1826  -5.1825  -5.1824  -5.1824  -5.1810
    -5.1810  -5.1796  -5.1793  -5.1792  -5.1792  -5.1779  -5.1778  -5.1777
    -5.1772  -5.1771  -5.1765  -5.1765  -5.1763  -5.1763  -5.1761  -5.1760
    -5.1756  -5.1756  -5.1755  -5.1748  -5.1725  -5.1725  -5.1716  -5.1716
    -5.1712  -5.1702  -5.1694  -5.1694  -5.1668  -5.1667  -5.1667  -5.1661
    -5.1661  -5.1660  -5.1654  -5.1653  -5.1649  -5.1644  -5.1644  -5.1637
    -5.1621  -5.1621  -5.1620  -5.1616  -5.1613  -5.1613  -5.1600  -5.1599
    -5.1599  -5.1594  -5.1594  -5.1591  -5.1584  -5.1584  -5.1581  -5.1581
    -5.1576  -5.1565  -5.1565  -5.1561  -5.1557  -5.1556  -5.1556  -5.1554
    -5.1554  -5.1549  -5.1542  -5.1541  -5.1537  -5.1516  -5.1473  -5.1472
    -5.1464  -5.1464  -5.1434  -5.1425  -5.1425  -5.1411  -5.1411  -5.1409
    -5.1382  -5.1379  -5.1356  -5.1353  -5.1353  -5.1345  -5.1335  -5.1335
    -5.1318  -5.1313  -5.1310  -5.1310  -5.1301  -5.1301  -5.1220  -5.1218
    -5.1218  -5.1207  -5.1207  -5.1188  -5.1173  -5.1156  -5.1156  -5.1145
    -5.1145  -5.1138  -5.1136  -5.1125  -5.1124  -5.1111  -5.1099  -5.1099
    -5.1081  -5.1081  -5.1078  -5.1078  -5.1065  -5.1065  -5.1060  -5.1054
    -5.1053  -5.1046  -5.1046  -5.1040  -5.1039  -5.1029  -5.1029  -5.1021
    -5.1012  -5.1009  -5.1001  -5.1001  -5.1000  -5.0996  -5.0986  -5.0986
    -5.0986  -5.0978  -5.0977  -5.0974  -5.0969  -5.0969  -5.0967  -5.0966
    -5.0965  -5.0954  -5.0954  -5.0952  -5.0951  -5.0951  -5.0947  -5.0941
    -5.0940  -5.0939  -5.0933  -5.0930  -5.0930  -5.0927  -5.0914  -5.0914
    -5.0912  -5.0912  -5.0911  -5.0907  -5.0886  -5.0886  -5.0882  -5.0881
    -5.0879  -5.0874  -5.0868  -5.0868  -5.0866  -5.0861  -5.0861  -5.0859
    -5.0859  -5.0847  -5.0847  -5.0847  -5.0830  -5.0830  -5.0828  -5.0826
    -5.0817  -5.0816  -5.0811  -5.0802  -5.0802  -5.0785  -5.0785  -5.0781
    -5.0779  -5.0779  -5.0778  -5.0770  -5.0764  -5.0758  -5.0757  -5.0756
    -5.0748  -5.0748  -5.0741  -5.0741  -5.0731  -5.0726  -5.0725  -5.0725
    -5.0717  -5.0712  -5.0711  -5.0707  -5.0706  -5.0706  -5.0699  -5.0699
    -5.0696  -5.0689  -5.0688  -5.0683  -5.0683  -5.0680  -5.0678  -5.0678
    -5.0673  -5.0673  -5.0666  -5.0666  -5.0663  -5.0660  -5.0660  -5.0658
    -5.0658  -5.0654  -5.0653  -5.0639  -5.0638  -5.0638  -5.0630  -5.0630
    -5.0630  -5.0622  -5.0621  -5.0614  -5.0608  -5.0597  -5.0594  -5.0594
    -5.0592  -5.0589  -5.0589  -5.0587  -5.0587  -5.0586  -5.0574  -5.0574
    -5.0570  -5.0570  -5.0558  -5.0551  -5.0551  -5.0550  -5.0547  -5.0547
    -5.0542  -5.0538  -5.0537  -5.0524  -5.0523  -5.0523  -5.0523  -5.0511
    -5.0510  -5.0498  -5.0490  -5.0483  -5.0483  -5.0482  -5.0461  -5.0461
    -5.0447  -5.0447  -5.0441  -5.0437  -5.0429  -5.0428  -5.0420  -5.0420
    -5.0405  -5.0405  -5.0401  -5.0396  -5.0382  -5.0382  -5.0380  -5.0377
    -5.0377  -5.0363  -5.0357  -5.0356  -5.0340  -5.0340  -5.0337  -5.0331
    -5.0331  -5.0330  -5.0330  -5.0314  -5.0312  -5.0312  -5.0308  -5.0301
    -5.0300  -5.0298  -5.0294  -5.0289  -5.0284  -5.0283  -5.0271  -5.0270
    -5.0268  -5.0263  -5.0249  -5.0249  -5.0233  -5.0232  -5.0225  -5.0216
    -5.0215  -5.0214  -5.0198  -5.0198  -5.0180  -5.0176  -5.0176  -5.0169
    -5.0166  -5.0166  -5.0160  -5.0160  -5.0154  -5.0150  -5.0147  -5.0147
    -5.0141  -5.0133  -5.0126  -5.0123  -5.0123  -5.0119  -5.0119  -5.0113
    -5.0113  -5.0111  -5.0099  -5.0092  -5.0092  -5.0089  -5.0089  -5.0086
    -5.0086  -5.0080  -5.0079  -5.0077  -5.0077  -5.0071  -5.0068  -5.0067
    -5.0062  -5.0061  -5.0061  -5.0054  -5.0051  -5.0050  -5.0044  -5.0040
    -5.0039  -5.0039  -5.0036  -5.0035  -5.0033  -5.0030  -5.0030  -5.0023
    -5.0023  -5.0023  -5.0017  -5.0017  -5.0013  -5.0006  -5.0001  -5.0001
    -4.9998  -4.9998  -4.9990  -4.9990  -4.9990  -4.9984  -4.9984  -4.9981
    -4.9975  -4.9975  -4.9967  -4.9960  -4.9960  -4.9951  -4.9931  -4.9931
    -4.9919  -4.9903  -4.9903  -4.9901  -4.9899  -4.9897  -4.9896  -4.9889
    -4.9888  -4.9888  -4.9886  -4.9886  -4.9859  -4.9858  -4.9858  -4.9843
    -4.9841  -4.9841  -4.9838  -4.9824  -4.9815  -4.9815  -4.9809  -4.9806
    -4.9806  -4.9732  -4.9732  -4.9729  -4.9682  -4.9682  -4.9679  -4.7877
    -4.7834  -4.7834  -4.7783  -4.7783  -4.7688  -4.7687  -4.7666  -4.7666
    -4.7630  -4.7624  -4.7230  -4.3304  -4.3302  -4.3279  -4.3270  -4.3268
    -4.3141  -4.2898  -4.2736  -4.0910  -4.0908  -4.0885  -4.0884  -4.0867
    -4.0864  -4.0838  -4.0837  -4.0810  -4.0804  -4.0803  -4.0513  -4.0214
    -4.0211  -4.0117  -4.0114  -4.0111  -4.0051  -3.9655  -3.9601  -3.9600
    -3.9531  -3.9531  -3.9430  -3.9430  -3.9401  -3.9400  -3.9366  -3.9356
    -3.8945  -3.8219  -3.8217  -3.8198  -3.8195  -3.8148  -3.8115  -3.8113
    -3.8081  -3.8071  -3.8068  -3.8065  -3.7030  -3.5121  -3.4033  -3.4033
    -3.3996  -3.3983  -3.3982  -3.3958  -3.3939  -3.3936  -3.3878  -3.3876
    -3.3873  -3.3873  -3.3867  -3.3864  -3.3851  -3.3747  -3.3746  -3.3381
    -3.2981  -3.2981  -3.2966  -3.2915  -3.2914  -3.2873  -3.2823  -3.2815
    -3.2801  -3.2800  -3.2780  -3.2779  -3.2749  -3.2748  -3.2695  -3.2694
    -3.2691  -3.2655  -3.2654  -3.2646  -3.2630  -3.2606  -3.2597  -3.2595
    -3.2552  -3.2552  -3.2420  -3.2419  -3.2366  -3.1156  -3.0736  -3.0670
    -3.0670  -3.0657  -3.0657  -3.0576  -3.0564  -3.0553  -3.0553  -3.0522
    -3.0522  -2.9888  -2.9581  -2.9577  -2.9481  -2.9379  -2.9378  -2.9251
    -2.9219  -2.9217  -2.9180  -2.9178  -2.9119  -2.9004  -2.8988  -2.8986
    -2.8979  -2.8968  -2.8966   2.0770   2.2857   2.5566   2.5567   2.5677
     2.5678   2.5722   2.5854   2.6111   2.6120   2.6168   2.6220   2.6259
     2.6260   2.6273   2.6284   2.6286   2.6307   2.6310   2.6312   2.6319
     2.6325   2.6334   2.6351   2.6359   2.6360   2.6366   2.6368   2.6759
     2.6786   2.6789   2.7095   2.7916   2.7920   2.7985   2.8069   2.8078
     2.8080   2.9417   2.9460   2.9460   2.9558   2.9559   2.9568   2.9938
     2.9945   2.9946   2.9968   3.0009   3.0010   3.0027   3.0028   3.0047
     3.0450   3.0453   3.0563   3.1362   3.1367   3.1368   3.1486   3.1486
     3.1618   3.2391   3.2392   3.2403   3.2427   3.2429   3.2430   3.2432
     3.2433   3.2577   3.2579   3.2623   3.2720   3.2828   3.2836   3.2905
     3.2910   3.2923   3.2937   3.2944   3.2951   3.3301   3.3718   3.3719
     3.4553   3.6119   3.6166   3.7013   3.7013   3.7020   3.7036   3.7054
     3.7056   3.7099   3.7100   3.7144   3.7145   3.7166   3.7167   3.7199
     3.7206   3.7429   3.7431   3.8069   3.8468   3.9361   3.9362   3.9518
     3.9519   3.9531   3.9572   3.9867   3.9868   3.9868   3.9899   3.9904
     3.9905   3.9912   3.9913   4.0402   4.0623   4.0627   4.4323   4.5319
     4.5346   4.5348   4.5505   4.5509   4.5870   4.5873   4.5934   4.6012
     4.6054   4.6056   4.6214   4.6239   4.6241   4.6484   4.6488   4.6661
     4.7187   4.7190   4.7202   4.7447   4.7447   4.7600   4.9840   4.9956
     4.9956   5.0050   5.0050   5.0075   5.0088   5.0107   5.0107   5.0236
     5.0693   5.0694   5.1282   5.4725   5.4733   5.4733   5.4771   5.4818
     5.4819   5.4825   5.4826   5.4905   5.4905   5.4922   5.4922   5.4958
     5.4963   5.5160   5.5161   5.5540   5.6663   5.6857   5.6861   5.6864
     5.7064   5.7070   5.8512   5.8695   5.8697   5.8749   5.8861   5.8863
     5.8959   5.9157   5.9160   5.9246   5.9247   5.9254   5.9269   5.9273
     5.9284   5.9330   5.9330   5.9690   5.9989   6.0010   6.0013   6.0046
     6.0047   6.0055   6.0059   6.0060   6.0072   6.0074   6.0074   6.0099
     6.0102   6.0120   6.0128   6.0128   6.0138   6.0144   6.0145   6.0148
     6.0170   6.0296   6.0297   6.0361   6.0362   6.0424   6.0505   6.0510
     6.0512   6.0514   6.0517   6.0541   6.0541   6.1478   6.1585   6.1590
     6.2723   6.3055   6.3220   6.3226   6.3232   6.3241   6.3245   6.3483
     6.3499   6.3501   6.3563   6.3565   6.3566   6.3589   6.3590   6.3622
     6.3949   6.4279   6.4283   6.4782   6.4929   6.4930   6.4945   6.5013
     6.5025   6.5027   6.5506   6.5584   6.5590   6.5656   6.5776   6.5780
     6.6518   6.6541   6.6542   6.6543   6.6563   6.6566   6.6594   6.6624
     6.6626   6.6627   6.6645   6.6676   6.6677   6.6697   6.6698   6.6747
     6.6751   6.6753   6.6754   6.6760   6.6766   6.7113   6.7117   6.7461
     6.7531   6.7547   6.7547   6.8068   6.8070   6.8218   6.8694   6.8724
     6.8725   6.8744   6.8745   6.8765   6.8765   6.8766   6.8789   6.8791
     7.0146   7.0147   7.1275   7.1275   7.1405   7.1406   7.1408   7.1425
     7.1482   7.1485   7.1542   7.1744   7.1946   7.1947   7.3006   7.3033
     7.3053   7.3053   7.3080   7.3103   7.3104   7.3117   7.3119   7.3161
     7.3161   7.3555   7.3880   7.4010   7.4011   7.4025   7.4026   7.4058
     7.4059   7.4072   7.4074   7.4120   7.4121   7.4121   7.4131   7.4132
     7.4142   7.4143   7.4144   7.4348   7.4386   7.4394   7.4403   7.4422
     7.4431   7.4432   7.4459   7.4469   7.4471   7.4480   7.4482   7.4485
     7.4487   7.4521   7.4532   7.4611   7.4615   7.4619   7.4620   7.4622
     7.4630   7.5039   7.5744   7.5744   7.5791   7.5797   7.5798   7.6074
     7.6145   7.6145   7.6340   7.6409   7.6410   7.6434   7.6438   7.6439
     7.6443   7.6444   7.6451   7.6946   7.6947   7.7003   7.7157   7.7246
     7.7249   7.7321   7.7346   7.7347   7.7356   7.7356   7.7393   7.7705
     7.7708   7.8474   7.8486   7.8915   7.9099   7.9104   7.9110   7.9717
     7.9718   8.0224   8.0225   8.0483   8.0484   8.0841   8.0846   8.0850
     8.0868   8.0893   8.0894   8.0936   8.0939   8.0956   8.0979   8.2216
     8.3252   8.3306   8.3307   8.3441   8.3441   8.3578   8.3798   8.3799
     8.4408   8.4458   8.4460   8.4516   8.5001   8.5002   8.5173   8.5174
     8.7156   8.7601   8.7602  10.3726  11.2723  11.3744  11.3769  12.0325
    12.1083  12.2198  12.2200  12.2262  12.3233  12.3702  12.3706  12.6836
    12.8016  12.8114  12.8974  12.8975  12.9061  12.9062  12.9112  12.9137
    12.9140  12.9144  12.9163  12.9216  12.9219  12.9389  12.9789  12.9790
    12.9861  12.9863  12.9899  12.9900  12.9926  12.9953  13.0821  13.0822
    13.1906  13.2770  13.6638  13.6644  13.6684  13.6882  13.6887  13.6989
    13.8564  13.8594  13.8599  13.8606  13.8611  13.8626  13.8656  13.8658
    13.8667  13.8770  13.8775  13.8784  13.8854  13.8863  13.8940  13.8945
    13.8952  13.8960  13.8967  13.8972  13.9086  13.9088  13.9495  13.9640
    13.9818  13.9860  13.9864  14.0142  14.0148  14.0151  14.0360  14.0361
    14.0383  14.0417  14.0422  14.0423  14.0465  14.0465  14.0465  14.0846
    14.0847  14.0975  14.1084  14.1085  14.1147  14.1186  14.1189  14.1516
    14.1826  14.1827  14.1892  14.1892  14.1903  14.1949  14.1989  14.1990
    14.1995  14.1995  14.2031  14.2051  14.2051  14.2079  14.3329  14.3803
    14.3806  14.4913  14.4943  14.4944  14.5139  14.5143  14.5395  14.7891
    14.8864  14.8894  14.8898  14.8927  14.8936  14.8943  14.8987  14.8992
    14.9296  14.9297  14.9709  15.0066  15.0610  15.0611  15.0616  15.0664
    15.0665  15.0673  15.0698  15.0698  15.0926  15.1048  15.1051  15.1269
    15.1276  15.1350  15.1371  15.1389  15.1550  15.1765  15.1865  15.1865
    15.2705  15.2706  15.2781  15.3803  15.3842  15.3849  15.4075  15.4080
    15.5406  15.6932  15.7077  15.7078  15.7093  15.7274  15.7275  15.8180
    15.8242  15.8324  15.8324  15.8532  15.8533  15.9165  15.9476  15.9477
    15.9542  15.9559  15.9560  15.9572  15.9573  15.9603  15.9921  15.9923
    16.0054  16.0556  16.1237  16.1240  16.1273  16.1274  16.1294  16.1295
    16.1325  16.1328  16.1329  16.1339  16.1340  16.1354  16.1394  16.1412
    16.1416  16.1425  16.1429  16.1430  16.1430  16.1457  16.1566  16.1570
    16.1706  16.1755  16.1762  16.1788  16.1789  16.1801  16.1803  16.1839
    16.1840  16.1860  16.2342  16.2345  16.2523  16.2581  16.2686  16.2692
    16.2938  16.2940  16.3082  16.3454  16.3481  16.3519  16.3520  16.3533
    16.3534  16.3534  16.3589  16.3591  16.3622  16.3742  16.3745  16.3761
    16.3852  16.3858  16.3858  16.3872  16.3884  16.3885  16.3899  16.3901
    16.4024  16.4254  16.4255  16.4308  16.4395  16.4395  16.4410  16.4411
    16.4579  16.4631  16.4689  16.4689  16.4744  16.4747  16.4773  16.4774
    16.4777  16.4788  16.6206  16.6210  16.6523  16.6617  16.6657  16.6699
    16.6700  16.6720

     occupation numbers 
     1.0000   1.0000   1.0000   1.0000   1.0000   1.0000   1.0000   1.0000
     1.0000   1.0000   1.0000   1.0000   1.0000   1.0000   1.0000   1.0000
     1.0000   1.0000   1.0000   1.0000   1.0000   1.0000   1.0000   1.0000
     1.0000   1.0000   1.0000   1.0000   1.0000   1.0000   1.0000   1.0000
     1.0000   1.0000   1.0000   1.0000   1.0000   1.0000   1.0000   1.0000
     1.0000   1.0000   1.0000   1.0000   1.0000   1.0000   1.0000   1.0000
     1.0000   1.0000   1.0000   1.0000   1.0000   1.0000   1.0000   1.0000
     1.0000   1.0000   1.0000   1.0000   1.0000   1.0000   1.0000   1.0000
     1.0000   1.0000   1.0000   1.0000   1.0000   1.0000   1.0000   1.0000
     1.0000   1.0000   1.0000   1.0000   1.0000   1.0000   1.0000   1.0000
     1.0000   1.0000   1.0000   1.0000   1.0000   1.0000   1.0000   1.0000
     1.0000   1.0000   1.0000   1.0000   1.0000   1.0000   1.0000   1.0000
     1.0000   1.0000   1.0000   1.0000   1.0000   1.0000   1.0000   1.0000
     1.0000   1.0000   1.0000   1.0000   1.0000   1.0000   1.0000   1.0000
     1.0000   1.0000   1.0000   1.0000   1.0000   1.0000   1.0000   1.0000
     1.0000   1.0000   1.0000   1.0000   1.0000   1.0000   1.0000   1.0000
     1.0000   1.0000   1.0000   1.0000   1.0000   1.0000   1.0000   1.0000
     1.0000   1.0000   1.0000   1.0000   1.0000   1.0000   1.0000   1.0000
     1.0000   1.0000   1.0000   1.0000   1.0000   1.0000   1.0000   1.0000
     1.0000   1.0000   1.0000   1.0000   1.0000   1.0000   1.0000   1.0000
     1.0000   1.0000   1.0000   1.0000   1.0000   1.0000   1.0000   1.0000
     1.0000   1.0000   1.0000   1.0000   1.0000   1.0000   1.0000   1.0000
     1.0000   1.0000   1.0000   1.0000   1.0000   1.0000   1.0000   1.0000
     1.0000   1.0000   1.0000   1.0000   1.0000   1.0000   1.0000   1.0000
     1.0000   1.0000   1.0000   1.0000   1.0000   1.0000   1.0000   1.0000
     1.0000   1.0000   1.0000   1.0000   1.0000   1.0000   1.0000   1.0000
     1.0000   1.0000   1.0000   1.0000   1.0000   1.0000   1.0000   1.0000
     1.0000   1.0000   1.0000   1.0000   1.0000   1.0000   1.0000   1.0000
     1.0000   1.0000   1.0000   1.0000   1.0000   1.0000   1.0000   1.0000
     1.0000   1.0000   1.0000   1.0000   1.0000   1.0000   1.0000   1.0000
     1.0000   1.0000   1.0000   1.0000   1.0000   1.0000   1.0000   1.0000
     1.0000   1.0000   1.0000   1.0000   1.0000   1.0000   1.0000   1.0000
     1.0000   1.0000   1.0000   1.0000   1.0000   1.0000   1.0000   1.0000
     1.0000   1.0000   1.0000   1.0000   1.0000   1.0000   1.0000   1.0000
     1.0000   1.0000   1.0000   1.0000   1.0000   1.0000   1.0000   1.0000
[...]
              0.257141358558571E+03
              0.756000731809583E+01
              0.801386239651816E+03
              0.111359679896782E+03
             -0.116832868390866E+03
              0.453770288517171E+02
             -0.107283861777439E+03
              0.629509600367978E+03
             -0.395129735349929E+01
              0.120420654058430E+03
              0.437081960323097E+03
              0.117157964343863E+03
             -0.332089710144442E+03
             -0.538310596109058E+03
              0.302437940474706E+02
             -0.612409965502624E+03
              0.205379127739757E+03
             -0.106382551174077E+03
             -0.236084307605127E+03
              0.239155362247226E+03
              0.828006915570240E+02
              0.229985835836198E+03
              0.100211921951318E+02
              0.341475160718403E+03
             -0.579714027966120E+03
             -0.413089659002808E+02
             -0.508860457969990E+03
              0.113378135125944E+03
              0.279125833436656E+03
             -0.283347738214493E+02
             -0.185964623660269E+03
              0.417343154713889E+03
             -0.193136900133375E+03
              0.142817728305515E+03
             -0.122744094168473E+03
              0.330304331501052E+03
              0.347797354505613E+03
             -0.150549788976708E+03
              0.298121469520920E+03
              0.111911616407955E+03
             -0.300860721695143E+03
             -0.196594771866630E+03
              0.483489103539478E+03
              0.237194901781268E+03
             -0.205302074192184E+02
             -0.513564959138603E+02
              0.744479920165551E+03
              0.439037158880066E+03
              0.156163554358065E+03
             -0.468826452723026E+03
              0.751284400508169E+03
             -0.350764842674849E+03
             -0.433140402948041E+03
             -0.652786295611768E+03
              0.291042609063242E+03
             -0.586787634693254E+03
              0.265341344642346E+03
              0.428752468653328E+03
              0.305365527672099E+03
              0.776120300558569E+02
              0.202315018191756E+03
             -0.483459070600178E+03
             -0.173154161726276E+03
             -0.131535466607011E+03
              0.248121576849780E+03
              0.491805902992903E+03
              0.508196636413967E+03
              0.391874112991236E+03
             -0.898000810331378E+02
              0.125054004275311E+03
              0.704663501668233E+01
             -0.161150562722403E+03
              0.207313320649187E+03
              0.225611881810653E+03
             -0.285839570824119E+03
             -0.339724795376891E+03
             -0.134059492821607E+03
              0.352775157029009E+03
              0.169037829033444E+03
             -0.242045810548857E+03
             -0.371066320638096E+03
             -0.540213479246766E+03
              0.111969646809897E+02
              0.145026094775518E+03
             -0.204048784167723E+03
              0.755517757426267E+03
              0.364972639337616E+02
             -0.856089975560555E+03
              0.189552857672738E+03
              0.375298050671423E+03
             -0.171865527455464E+03
              0.207384744467454E+02
             -0.238266128537667E+03
              0.350072292318466E+03
              0.161940168370158E+03
             -0.448045838324382E+03
              0.533553304599666E+03
              0.152007898386364E+02
             -0.228891327725859E+03
             -0.271635750755617E+03
              0.106242261691835E+04
              0.473334195922013E+03
             -0.131965835315370E+03
              0.260590091334845E+03
             -0.464720096586022E+03
             -0.831807183125766E+02
             -0.471118091553752E+03
              0.188721375675585E+03
              0.320952599433340E+03
              0.380917253441317E+03
             -0.151743809495983E+03
              0.447116423725192E+02
              0.435010292120057E+03
              0.160950487703228E+03
              0.272603791430079E+03
              0.116038372802862E+03
             -0.782232544794424E+02
              0.117004698830924E+02
             -0.718353339431185E+02
              0.110680486956434E+03
              0.244941855753113E+02
             -0.396427146135370E+03
              0.603261569035505E+03
              0.241292392850899E+03
             -0.433482377233221E+03
             -0.321694810522327E+03
             -0.466044219400094E+03
             -0.220497754270290E+03
             -0.162324506192315E+03
             -0.360418525495533E+03
             -0.352848531121416E+03
              0.444707808811647E+03
              0.350798916804176E+03
             -0.437052364788251E+02
              0.511616758285386E+03
              0.966866396316182E+02
             -0.825735886492290E+03
              0.465815838628165E+03
              0.107544492293714E+03
              0.359151927009636E+03
              0.801148637343688E+02
              0.600220366255517E+02
              0.711057418993428E+02
              0.187037513614356E+03
             -0.342467625460815E+03
             -0.170932207829594E+03
             -0.314561570268803E+03
             -0.261227904617256E+03
              0.118912719103971E+03
             -0.298984699125581E+03
              0.139877147669456E+03
              0.185081424056947E+03
             -0.196775041512473E+03
             -0.103831390361539E+03
             -0.911298069751092E+01
              0.511118828915207E+03
              0.812451029304079E+02
              0.506648888325120E+03
              0.180424218896540E+03
             -0.654697580907733E+03
             -0.222803287527579E+03
              0.223744091848197E+03
              0.503722455363048E+03
              0.967967367535176E+02
              0.196858192862478E+03
              0.474857547792717E+03
             -0.276233660451936E+03
             -0.448524032987785E+03
              0.582729402030102E+03
              0.979795718891955E+01
             -0.617827575033854E+03
              0.207152261954087E+03
              0.408838338940131E+03
             -0.946258568441781E+02
             -0.386806579580536E+03
              0.688662640713692E+02
              0.252147608276500E+02
             -0.211605366502379E+03
              0.767851215172959E+02
             -0.659760970043173E+02
              0.910518233579262E+03
              0.251171954855846E+03
             -0.417648945046879E+03
              0.126290521839864E+03
              0.584625291716275E+03
             -0.374730074998537E+03
             -0.998466229482212E+02
             -0.331678721831519E+03
              0.264867884795759E+03
              0.112391697412522E+03
              0.175912096855968E+03
              0.135473071620033E+02
              0.656580318496399E+03
             -0.367178982450860E+03
             -0.278750579376299E+03
             -0.307576220171430E+03
              0.264348786759230E+03
              0.631645737194582E+03
             -0.800423924634808E+02
              0.260871465840951E+03
             -0.353157880758742E+03
              0.356460538419913E+02
             -0.104640528619301E+03
             -0.349284794343657E+02
             -0.150307333482516E+03
             -0.138305049807520E+03
             -0.102113515884686E+03
              0.108995018347893E+03
              0.183974512376375E+03
             -0.423761496317209E+03
              0.307898195979373E+03
             -0.497786888032223E+03
              0.371665204875032E+03
             -0.431464624008887E+03
              0.652777903638348E+03
              0.348032073933297E+03
              0.388558420621612E+03
              0.890166164959332E+02
              0.998969040734592E+02
             -0.876202467219534E+03
              0.150167861572599E+03
              0.397894870400478E+02
              0.688474972826843E+02
             -0.130674346042726E+03
              0.681937706777172E+03
             -0.207112358582328E+03
             -0.269382962394866E+03
             -0.675898020915977E+03
             -0.224954708775405E+03
             -0.307120971803737E+03
             -0.272263389858956E+03
             -0.744933608821220E+02
             -0.142592981523404E+03
             -0.188847912486426E+03
             -0.284027081644110E+03
              0.211710004853478E+03
              0.699580833747728E+03
              0.596470420379262E+03
             -0.118465482429930E+03
             -0.731946872422923E+03
             -0.307813935875555E+03
              0.141076370329598E+03
              0.156336102136538E+03
              0.226347980280723E+03
              0.176094631983003E+03
              0.572998395992036E+02
              0.677441224978459E+03
             -0.168052381111036E+03
              0.343708873258704E+03
              0.157893511633956E+03
             -0.221862199749976E+03
             -0.139456414333394E+03
              0.313103187436501E+03
             -0.181366691990878E+03
             -0.128671819295668E+03
             -0.835294788735771E+02
              0.391298820324755E+03
             -0.524471438699611E+03
             -0.577243571409103E+02
             -0.429337140396884E+03
             -0.928261716225679E+03
              0.330709412428496E+01
             -0.114986678433704E+03
              0.318913667033861E+03
              0.379024232483920E+03
              0.519996107135463E+03
             -0.342049605862882E+03
              0.556331399520669E+03
              0.145469125138806E+03
             -0.166136013176107E+03
              0.100416974619779E+03
             -0.176588588960506E+03
             -0.123486134573686E+03
              0.283431108386991E+03
             -0.276161063926031E+03
              0.671973648271638E+03
             -0.171868447067865E+03
             -0.359414378008905E+03
              0.683914953076850E+03
             -0.384242117266009E+03
             -0.567557732179994E+02
              0.697225355525179E+02
              0.212119945910219E+03
             -0.313263126999418E+03
             -0.234631999576275E+03
              0.356715453466556E+03
             -0.578308167293090E+03
              0.424860559032364E+03
              0.555658116763365E+02
              0.331909130506060E+03
              0.459999809805324E+03
              0.115954535009068E+03
             -0.605685823501130E+03
             -0.267413367841477E+03
             -0.447696604897139E+03
             -0.280698079733234E+03
             -0.922084127897888E+02
              0.110102291938233E+03
             -0.210121358437360E+03
              0.146596394652852E+02
             -0.680599498953340E+03
              0.169420206643529E+02
             -0.430201780021240E+03
              0.422639517094367E+03
             -0.227294449090798E+03
             -0.446878444453540E+02
              0.304202621421640E+03
              0.327658299723229E+02
              0.302740725707336E+03
             -0.542652206380551E+03
              0.118962963027174E+03
              0.374189949074388E+02
              0.218239612366590E+03
              0.391690438290540E+03
             -0.685974068747819E+02
             -0.429506670404810E+03
             -0.245931581410258E+03
             -0.169857388799593E+03
             -0.825617442889616E+02
              0.405128722698358E+03
              0.249392852211541E+03
             -0.260653223544188E+03
             -0.237698440664549E+03
              0.196237049188567E+03
              0.192239868468122E+03
             -0.532752090157935E+03
              0.149115015328645E+03
              0.390866906362174E+03
             -0.192134117403880E+02
              0.458085793052590E+03
              0.232300307687874E+03
              0.366074822349428E+03
              0.556099177281906E+03
              0.912052359307106E+02
             -0.777211765039734E+03
              0.799326193433585E+02
              0.862187367472492E+03
              0.620359549039123E+03
             -0.415892069428182E+03
              0.414754255235234E+02
              0.539948740781591E+03
              0.490625837777113E+03
              0.233431161005187E+03
             -0.123701586242859E+03
              0.223694588355047E+03
              0.469628357159479E+03
             -0.210039775471992E+03
             -0.150274579769214E+03
              0.293279834462987E+03
             -0.210609717153525E+02
              0.275251261548935E+03
             -0.688573384791524E+02
              0.567621386320558E+03
             -0.216261968229743E+03
              0.129549640024446E+03
             -0.264335897738984E+03
              0.268098620829713E+03
             -0.354726611057031E+02
              0.423553078753840E+03
              0.296866263706420E+02
              0.167398315716908E+03
             -0.281092773104412E+03
             -0.172925751147912E+03
             -0.815983625980432E+02
             -0.703286338614455E+02
              0.444845665092456E+03
              0.184499438643108E+03
              0.570866789411013E+03
              0.475186100863275E+03
              0.106393398525991E+03
              0.412380794178102E+01
              0.557804842391584E+03
              0.293644250518749E+03
              0.794164775576155E+01
              0.495670630723161E+03
             -0.444653630737258E+03
              0.145859121518004E+03
             -0.279627557452598E+03
             -0.111786843636252E+03
              0.713749976299936E+03
             -0.109267816808484E+03
             -0.533863347844181E+01
             -0.938982973951154E+02
              0.593230509213754E+03
             -0.138326618813832E+03
             -0.164704215600602E+02
              0.119754439939257E+04
             -0.386824965380795E+03
             -0.413487522317896E+03
             -0.433624573698625E+03
             -0.254399318283726E+03
              0.253127510886064E+03
             -0.108144319644493E+03
              0.699922131166363E+02
             -0.219766038097350E+02
              0.151612847740848E+03
              0.247022496899060E+03
              0.284689526098314E+03
              0.418698239284412E+03
              0.231374289670198E+03
              0.293916798747236E+03
             -0.475103933188346E+03
             -0.454942252208602E+03
             -0.115044423094828E+03
             -0.445829026922361E+03
              0.713687772448487E+03
              0.611613506417840E+03
              0.292239855641265E+03
              0.791532246374066E+03
             -0.411883761356137E+03
             -0.167840521805319E+03
             -0.233609583493392E+03
              0.654743635380978E+03
 
 BEEF-vdW xc energy contributions
            1 :    -6000.184030086559     
            2 :     5404.718780073455     
            3 :    -4406.982744572175     
            4 :     3298.902772648579     
            5 :    -2337.518822609132     
            6 :     1647.236854264200     
            7 :    -1205.770111147263     
            8 :     907.4022471716526     
            9 :    -652.6347029655699     
           10 :     405.9504452620595     
           11 :    -193.9461087834798     
           12 :     59.76756740864221     
           13 :    -15.77308266572982     
           14 :     29.48501354608379     
           15 :    -47.62947935213197     
           16 :     34.12621184124964     
           17 :     9.059747405410235     
           18 :    -52.10535916430672     
           19 :     66.98205643478468     
           20 :    -51.39713469087110     
           21 :     29.08569680004985     
           22 :    -28.79545605353997     
           23 :     60.68423592217823     
           24 :    -109.0646520221990     
           25 :     145.8711514980951     
           26 :    -152.5932685225698     
           27 :     132.8744717834124     
           28 :    -106.8671095921836     
           29 :     93.53222602831192     
           30 :    -95.98335774164934     
           31 :    -513.9550054023148     
           32 :    -352.2375383875169     

     Writing all to output data dir ./GaN.save/
 
     init_run     :     17.68s CPU     50.55s WALL (       1 calls)
     electrons    :  18767.50s CPU  18949.62s WALL (       1 calls)
     forces       :     96.59s CPU     97.99s WALL (       1 calls)
     stress       :   1923.55s CPU   1938.31s WALL (       1 calls)

     Called by init_run:
     wfcinit      :     12.94s CPU     45.25s WALL (       1 calls)
     potinit      :      1.97s CPU      2.23s WALL (       1 calls)
     hinit0       :      1.10s CPU      1.19s WALL (       1 calls)

     Called by electrons:
     c_bands      :  18601.53s CPU  18779.58s WALL (       5 calls)
     sum_band     :    155.92s CPU    158.84s WALL (       5 calls)
     v_of_rho     :      4.68s CPU      5.08s WALL (       5 calls)
     v_h          :      0.04s CPU      0.04s WALL (       5 calls)
     v_xc         :     36.62s CPU     38.41s WALL (      41 calls)
     newd         :      1.22s CPU      1.85s WALL (       5 calls)
     PAW_pot      :      3.93s CPU      3.97s WALL (       5 calls)
     mix_rho      :      0.13s CPU      0.13s WALL (       5 calls)
     vdW_kernel   :      0.25s CPU      0.25s WALL (       1 calls)

     Called by c_bands:
     init_us_2    :      8.01s CPU      8.21s WALL (      36 calls)
     init_us_2:cp :      8.01s CPU      8.21s WALL (      36 calls)
     cegterg      :  17217.45s CPU  17383.53s WALL (      15 calls)

     Called by sum_band:
     sum_band:wei :      0.02s CPU      0.02s WALL (       5 calls)
     sum_band:loo :    154.44s CPU    155.65s WALL (       5 calls)
     sum_band:buf :      1.86s CPU      1.88s WALL (      15 calls)
     sum_band:ini :      3.66s CPU      3.72s WALL (      15 calls)
     sum_band:cal :    106.46s CPU    107.15s WALL (      15 calls)
     sum_band:bec :      0.88s CPU      0.89s WALL (      15 calls)
     addusdens    :      1.19s CPU      1.84s WALL (       5 calls)
     addusd:skk   :      0.17s CPU      0.54s WALL (      10 calls)
     addusd:dgemm :      0.73s CPU      0.98s WALL (      10 calls)
     addusd:qvan2 :      0.25s CPU      0.25s WALL (      10 calls)

     Called by *egterg:
     cdiaghg      :  15027.61s CPU  15134.83s WALL (     233 calls)
     cegterg:over :    455.86s CPU    468.46s WALL (     224 calls)
     cegterg:upda :    304.64s CPU    310.12s WALL (     224 calls)
     cegterg:last :    121.57s CPU    122.37s WALL (      15 calls)
     h_psi        :    883.15s CPU    898.07s WALL (     239 calls)
     s_psi        :    307.26s CPU    312.47s WALL (     239 calls)
     g_psi        :      1.00s CPU      1.02s WALL (     224 calls)

     Called by h_psi:
     h_psi:calbec :    329.39s CPU    332.56s WALL (     239 calls)
     vloc_psi     :    242.25s CPU    245.23s WALL (     239 calls)
     add_vuspsi   :    307.81s CPU    313.71s WALL (     239 calls)

     General routines
     calbec       :    605.27s CPU    610.15s WALL (     269 calls)
     fft          :     16.08s CPU     16.27s WALL (    2421 calls)
     ffts         :      0.07s CPU      0.08s WALL (      10 calls)
     fftw         :    261.83s CPU    265.02s WALL (  164036 calls)
     interpolate  :      0.06s CPU      0.06s WALL (       5 calls)
 
     Parallel routines

     PAW routines
     PAW_pot      :      3.93s CPU      3.97s WALL (       5 calls)
     PAW_symme    :      0.02s CPU      0.02s WALL (       9 calls)
 
     PWSCF        :      5h47m CPU      5h51m WALL

 
   This run was terminated on:   7:35:27   8May2024            

=------------------------------------------------------------------------------=
   JOB DONE.
=------------------------------------------------------------------------------=
