
     Program PWSCF v.7.1 starts on  9Jan2024 at 14:38:16 

     This program is part of the open-source Quantum ESPRESSO suite
     for quantum simulation of materials; please cite
         "P. Giannozzi et al., J. Phys.:Condens. Matter 21 395502 (2009);
         "P. Giannozzi et al., J. Phys.:Condens. Matter 29 465901 (2017);
         "P. Giannozzi et al., J. Chem. Phys. 152 154105 (2020);
          URL http://www.quantum-espresso.org", 
     in publications or presentations arising from this work. More details at
     http://www.quantum-espresso.org/quote

     Parallel version (MPI & OpenMP), running on     256 processor cores
     Number of MPI processes:               256
     Threads/MPI process:                     1

     MPI processes distributed on     2 nodes
     1330720 MiB available memory on the printing compute node when the environment starts
 
     Reading input from espresso.pwi
Warning: card &CELL ignored
Warning: card    CELL_DYNAMICS    = 'BFGS' ignored
Warning: card / ignored

     Current dimensions of program PWSCF are:
     Max number of different atomic species (ntypx) = 10
     Max number of k-points (npk) =  40000
     Max angular momentum in pseudopotentials (lmaxx) =  4
     file C.pbe-n-kjpaw_psl.1.0.0.UPF: wavefunction(s)  2S 2P renormalized

     **************************************************************************
     Initializing libbeef V0.1.2 with the BEEF-vdW functional.
     Citation: Wellendorff et al., PRB 85, 235149 (2012).
     **************************************************************************


     IMPORTANT: XC functional enforced from input :
     Exchange-correlation= BEEF-VDW
                           (   1   4  43  14   2   0   0)
     Any further DFT definition will be discarded
     Please, verify this is what you really want

 
     R & G space division:  proc/nbgrp/npool/nimage =     256
     WARNING: too many processors for an effective parallelization!
     wavefunctions fft division:  task group distribution
                                  #TG    x Z-proc =       8     32
     Subspace diagonalization in iterative solution of the eigenvalue problem:
     a serial algorithm will be used

 
     Parallelization info
     --------------------
     sticks:   dense  smooth     PW     G-vecs:    dense   smooth      PW
     Min          79      63     15                 8501     6083     751
     Max          80      64     16                 8510     6094     766
     Sum       20305   16237   4049              2177001  1558403  194543
 
     Using Pencil Decomposition
 


     bravais-lattice index     =            1
     lattice parameter (alat)  =      27.0027  a.u.
     unit-cell volume          =   19688.9026 (a.u.)^3
     number of atoms/cell      =          511
     number of atomic types    =            1
     number of electrons       =      2043.00
     number of Kohn-Sham states=         1226
     kinetic-energy cutoff     =      70.0000  Ry
     charge density cutoff     =     350.0000  Ry
     scf convergence threshold =      1.0E-08
     mixing beta               =       0.7000
     number of iterations used =            8  plain     mixing
     Exchange-correlation= BEEF-VDW
                           (   1   4  43  14   2   0   0)

     celldm(1)=  27.002699  celldm(2)=   0.000000  celldm(3)=   0.000000
     celldm(4)=   0.000000  celldm(5)=   0.000000  celldm(6)=   0.000000

     crystal axes: (cart. coord. in units of alat)
               a(1) = (   1.000000   0.000000   0.000000 )  
               a(2) = (   0.000000   1.000000   0.000000 )  
               a(3) = (   0.000000   0.000000   1.000000 )  

     reciprocal axes: (cart. coord. in units 2 pi/alat)
               b(1) = (  1.000000  0.000000  0.000000 )  
               b(2) = (  0.000000  1.000000  0.000000 )  
               b(3) = (  0.000000  0.000000  1.000000 )  


     PseudoPot. # 1 for C  read from file:
     /trace/group/acmegroup/atimmins/packages/espresso/pseudo/psl_1.0.0/pslibrary.1.0.0/pbe/PSEUDOPOTENTIALS/C.pbe-n-kjpaw_psl.1.0.0.UPF
     MD5 check sum: 5459cf7f2c8c37df2f7cde8914797f4d
     Pseudo is Projector augmented-wave + core cor, Zval =  4.0
     Generated using 'atomic' code by A. Dal Corso  v.7.1
     Shape of augmentation charge: PSQ
     Using radial grid of 1073 points,  4 beta functions with: 
                l(1) =   0
                l(2) =   0
                l(3) =   1
                l(4) =   1
     Q(r) pseudized with 0 coefficients 


     atomic species   valence    mass     pseudopotential
        C              4.00    12.01100     C ( 1.00)

      6 Sym. Ops. (no inversion) found ( 4 have fractional translation)


                                    s                        frac. trans.

      isym =  1     identity                                     

 cryst.   s( 1) = (     1          0          0      )
                  (     0          1          0      )
                  (     0          0          1      )

 cart.    s( 1) = (  1.0000000  0.0000000  0.0000000 )
                  (  0.0000000  1.0000000  0.0000000 )
                  (  0.0000000  0.0000000  1.0000000 )


      isym =  2     120 deg rotation - cart. axis [1,-1,1]       

 cryst.   s( 2) = (     0          0          1      )    f =( -0.2500000 )
                  (    -1          0          0      )       ( -0.2500000 )
                  (     0         -1          0      )       (  0.0000000 )

 cart.    s( 2) = (  0.0000000 -1.0000000  0.0000000 )    f =( -0.2500000 )
                  (  0.0000000  0.0000000 -1.0000000 )       ( -0.2500000 )
                  (  1.0000000  0.0000000  0.0000000 )       (  0.0000000 )


      isym =  3     120 deg rotation - cart. axis [-1,1,-1]      

 cryst.   s( 3) = (     0         -1          0      )    f =(  0.0000000 )
                  (     0          0         -1      )       ( -0.2500000 )
                  (     1          0          0      )       ( -0.2500000 )

 cart.    s( 3) = (  0.0000000  0.0000000  1.0000000 )    f =(  0.0000000 )
                  ( -1.0000000  0.0000000  0.0000000 )       ( -0.2500000 )
                  (  0.0000000 -1.0000000  0.0000000 )       ( -0.2500000 )


      isym =  4     inv. 180 deg rotation - cart. axis [1,1,0]   

 cryst.   s( 4) = (     0         -1          0      )    f =( -0.2500000 )
                  (    -1          0          0      )       ( -0.2500000 )
                  (     0          0          1      )       (  0.0000000 )

 cart.    s( 4) = (  0.0000000 -1.0000000  0.0000000 )    f =( -0.2500000 )
                  ( -1.0000000  0.0000000  0.0000000 )       ( -0.2500000 )
                  (  0.0000000  0.0000000  1.0000000 )       (  0.0000000 )


      isym =  5     inv. 180 deg rotation - cart. axis [-1,0,1]  

 cryst.   s( 5) = (     0          0          1      )
                  (     0          1          0      )
                  (     1          0          0      )

 cart.    s( 5) = (  0.0000000  0.0000000  1.0000000 )
                  (  0.0000000  1.0000000  0.0000000 )
                  (  1.0000000  0.0000000  0.0000000 )


      isym =  6     inv. 180 deg rotation - cart. axis [0,1,1]   

 cryst.   s( 6) = (     1          0          0      )    f =(  0.0000000 )
                  (     0          0         -1      )       ( -0.2500000 )
                  (     0         -1          0      )       ( -0.2500000 )

 cart.    s( 6) = (  1.0000000  0.0000000  0.0000000 )    f =(  0.0000000 )
                  (  0.0000000  0.0000000 -1.0000000 )       ( -0.2500000 )
                  (  0.0000000 -1.0000000  0.0000000 )       ( -0.2500000 )


     point group C_3v (3m)  
     there are  3 classes
     the character table:

       E     2C3   3s_v 
A_1    1.00  1.00  1.00
A_2    1.00  1.00 -1.00
E      2.00 -1.00  0.00

     the symmetry operations in each class and the name of the first element:

     E        1
          identity                                               
     2C3      2    3
          120 deg rotation - cart. axis [1,-1,1]                 
     3s_v     4    5    6
          inv. 180 deg rotation - cart. axis [1,1,0]             

   Cartesian axes

     site n.     atom                  positions (alat units)
         1           C   tau(   1) = (   0.0625015   0.1874985   0.3125015  )
         2           C   tau(   2) = (   0.0625015   0.1874985   0.5625015  )
         3           C   tau(   3) = (   0.0625015   0.1874985   0.8125015  )
         4           C   tau(   4) = (   0.0625015   0.4374985   0.0625015  )
         5           C   tau(   5) = (   0.0625015   0.4374985   0.3125015  )
         6           C   tau(   6) = (   0.0625015   0.4374985   0.5625015  )
         7           C   tau(   7) = (   0.0625015   0.4374985   0.8125015  )
         8           C   tau(   8) = (   0.0625015   0.6874985   0.0625015  )
         9           C   tau(   9) = (   0.0625015   0.6874985   0.3125015  )
        10           C   tau(  10) = (   0.0625015   0.6874985   0.5625015  )
        11           C   tau(  11) = (   0.0625015   0.6874985   0.8125015  )
        12           C   tau(  12) = (   0.0625015   0.9374985   0.0625015  )
        13           C   tau(  13) = (   0.0625015   0.9374985   0.3125015  )
        14           C   tau(  14) = (   0.0625015   0.9374985   0.5625015  )
        15           C   tau(  15) = (   0.0625015   0.9374985   0.8125015  )
        16           C   tau(  16) = (   0.3125015   0.1874985   0.0625015  )
        17           C   tau(  17) = (   0.3125015   0.1874985   0.3125015  )
        18           C   tau(  18) = (   0.3125015   0.1874985   0.5625015  )
        19           C   tau(  19) = (   0.3125015   0.1874985   0.8125015  )
        20           C   tau(  20) = (   0.3125015   0.4374985   0.0625015  )
        21           C   tau(  21) = (   0.3125015   0.4374985   0.3125015  )
        22           C   tau(  22) = (   0.3125015   0.4374985   0.5625015  )
        23           C   tau(  23) = (   0.3125015   0.4374985   0.8125015  )
        24           C   tau(  24) = (   0.3125015   0.6874985   0.0625015  )
        25           C   tau(  25) = (   0.3125015   0.6874985   0.3125015  )
        26           C   tau(  26) = (   0.3125015   0.6874985   0.5625015  )
        27           C   tau(  27) = (   0.3125015   0.6874985   0.8125015  )
        28           C   tau(  28) = (   0.3125015   0.9374985   0.0625015  )
        29           C   tau(  29) = (   0.3125015   0.9374985   0.3125015  )
        30           C   tau(  30) = (   0.3125015   0.9374985   0.5625015  )
        31           C   tau(  31) = (   0.3125015   0.9374985   0.8125015  )
        32           C   tau(  32) = (   0.5625015   0.1874985   0.0625015  )
        33           C   tau(  33) = (   0.5625015   0.1874985   0.3125015  )
        34           C   tau(  34) = (   0.5625015   0.1874985   0.5625015  )
        35           C   tau(  35) = (   0.5625015   0.1874985   0.8125015  )
        36           C   tau(  36) = (   0.5625015   0.4374985   0.0625015  )
        37           C   tau(  37) = (   0.5625015   0.4374985   0.3125015  )
        38           C   tau(  38) = (   0.5625015   0.4374985   0.5625015  )
        39           C   tau(  39) = (   0.5625015   0.4374985   0.8125015  )
        40           C   tau(  40) = (   0.5625015   0.6874985   0.0625015  )
        41           C   tau(  41) = (   0.5625015   0.6874985   0.3125015  )
        42           C   tau(  42) = (   0.5625015   0.6874985   0.5625015  )
        43           C   tau(  43) = (   0.5625015   0.6874985   0.8125015  )
        44           C   tau(  44) = (   0.5625015   0.9374985   0.0625015  )
        45           C   tau(  45) = (   0.5625015   0.9374985   0.3125015  )
        46           C   tau(  46) = (   0.5625015   0.9374985   0.5625015  )
        47           C   tau(  47) = (   0.5625015   0.9374985   0.8125015  )
        48           C   tau(  48) = (   0.8125015   0.1874985   0.0625015  )
        49           C   tau(  49) = (   0.8125015   0.1874985   0.3125015  )
        50           C   tau(  50) = (   0.8125015   0.1874985   0.5625015  )
        51           C   tau(  51) = (   0.8125015   0.1874985   0.8125015  )
        52           C   tau(  52) = (   0.8125015   0.4374985   0.0625015  )
        53           C   tau(  53) = (   0.8125015   0.4374985   0.3125015  )
        54           C   tau(  54) = (   0.8125015   0.4374985   0.5625015  )
        55           C   tau(  55) = (   0.8125015   0.4374985   0.8125015  )
        56           C   tau(  56) = (   0.8125015   0.6874985   0.0625015  )
        57           C   tau(  57) = (   0.8125015   0.6874985   0.3125015  )
        58           C   tau(  58) = (   0.8125015   0.6874985   0.5625015  )
        59           C   tau(  59) = (   0.8125015   0.6874985   0.8125015  )
        60           C   tau(  60) = (   0.8125015   0.9374985   0.0625015  )
        61           C   tau(  61) = (   0.8125015   0.9374985   0.3125015  )
        62           C   tau(  62) = (   0.8125015   0.9374985   0.5625015  )
        63           C   tau(  63) = (   0.8125015   0.9374985   0.8125015  )
        64           C   tau(  64) = (   0.0000000   0.0000000   0.1250000  )
        65           C   tau(  65) = (   0.0000000   0.0000000   0.3750000  )
        66           C   tau(  66) = (   0.0000000   0.0000000   0.6250000  )
        67           C   tau(  67) = (   0.0000000   0.0000000   0.8750000  )
        68           C   tau(  68) = (   0.0000000   0.2500000   0.1250000  )
        69           C   tau(  69) = (   0.0000000   0.2500000   0.3750000  )
        70           C   tau(  70) = (   0.0000000   0.2500000   0.6250000  )
        71           C   tau(  71) = (   0.0000000   0.2500000   0.8750000  )
        72           C   tau(  72) = (   0.0000000   0.5000000   0.1250000  )
        73           C   tau(  73) = (   0.0000000   0.5000000   0.3750000  )
        74           C   tau(  74) = (   0.0000000   0.5000000   0.6250000  )
        75           C   tau(  75) = (   0.0000000   0.5000000   0.8750000  )
        76           C   tau(  76) = (   0.0000000   0.7500000   0.1250000  )
        77           C   tau(  77) = (   0.0000000   0.7500000   0.3750000  )
        78           C   tau(  78) = (   0.0000000   0.7500000   0.6250000  )
        79           C   tau(  79) = (   0.0000000   0.7500000   0.8750000  )
        80           C   tau(  80) = (   0.2500000   0.0000000   0.1250000  )
        81           C   tau(  81) = (   0.2500000   0.0000000   0.3750000  )
        82           C   tau(  82) = (   0.2500000   0.0000000   0.6250000  )
        83           C   tau(  83) = (   0.2500000   0.0000000   0.8750000  )
        84           C   tau(  84) = (   0.2500000   0.2500000   0.1250000  )
        85           C   tau(  85) = (   0.2500000   0.2500000   0.3750000  )
        86           C   tau(  86) = (   0.2500000   0.2500000   0.6250000  )
        87           C   tau(  87) = (   0.2500000   0.2500000   0.8750000  )
        88           C   tau(  88) = (   0.2500000   0.5000000   0.1250000  )
        89           C   tau(  89) = (   0.2500000   0.5000000   0.3750000  )
        90           C   tau(  90) = (   0.2500000   0.5000000   0.6250000  )
        91           C   tau(  91) = (   0.2500000   0.5000000   0.8750000  )
        92           C   tau(  92) = (   0.2500000   0.7500000   0.1250000  )
        93           C   tau(  93) = (   0.2500000   0.7500000   0.3750000  )
        94           C   tau(  94) = (   0.2500000   0.7500000   0.6250000  )
        95           C   tau(  95) = (   0.2500000   0.7500000   0.8750000  )
        96           C   tau(  96) = (   0.5000000   0.0000000   0.1250000  )
        97           C   tau(  97) = (   0.5000000   0.0000000   0.3750000  )
        98           C   tau(  98) = (   0.5000000   0.0000000   0.6250000  )
        99           C   tau(  99) = (   0.5000000   0.0000000   0.8750000  )
       100           C   tau( 100) = (   0.5000000   0.2500000   0.1250000  )
       101           C   tau( 101) = (   0.5000000   0.2500000   0.3750000  )
       102           C   tau( 102) = (   0.5000000   0.2500000   0.6250000  )
       103           C   tau( 103) = (   0.5000000   0.2500000   0.8750000  )
       104           C   tau( 104) = (   0.5000000   0.5000000   0.1250000  )
       105           C   tau( 105) = (   0.5000000   0.5000000   0.3750000  )
       106           C   tau( 106) = (   0.5000000   0.5000000   0.6250000  )
       107           C   tau( 107) = (   0.5000000   0.5000000   0.8750000  )
       108           C   tau( 108) = (   0.5000000   0.7500000   0.1250000  )
       109           C   tau( 109) = (   0.5000000   0.7500000   0.3750000  )
       110           C   tau( 110) = (   0.5000000   0.7500000   0.6250000  )
       111           C   tau( 111) = (   0.5000000   0.7500000   0.8750000  )
       112           C   tau( 112) = (   0.7500000   0.0000000   0.1250000  )
       113           C   tau( 113) = (   0.7500000   0.0000000   0.3750000  )
       114           C   tau( 114) = (   0.7500000   0.0000000   0.6250000  )
       115           C   tau( 115) = (   0.7500000   0.0000000   0.8750000  )
       116           C   tau( 116) = (   0.7500000   0.2500000   0.1250000  )
       117           C   tau( 117) = (   0.7500000   0.2500000   0.3750000  )
       118           C   tau( 118) = (   0.7500000   0.2500000   0.6250000  )
       119           C   tau( 119) = (   0.7500000   0.2500000   0.8750000  )
       120           C   tau( 120) = (   0.7500000   0.5000000   0.1250000  )
       121           C   tau( 121) = (   0.7500000   0.5000000   0.3750000  )
       122           C   tau( 122) = (   0.7500000   0.5000000   0.6250000  )
       123           C   tau( 123) = (   0.7500000   0.5000000   0.8750000  )
       124           C   tau( 124) = (   0.7500000   0.7500000   0.1250000  )
       125           C   tau( 125) = (   0.7500000   0.7500000   0.3750000  )
       126           C   tau( 126) = (   0.7500000   0.7500000   0.6250000  )
       127           C   tau( 127) = (   0.7500000   0.7500000   0.8750000  )
       128           C   tau( 128) = (   0.0625015   0.0625015   0.1874985  )
       129           C   tau( 129) = (   0.0625015   0.0625015   0.4374985  )
       130           C   tau( 130) = (   0.0625015   0.0625015   0.6874985  )
       131           C   tau( 131) = (   0.0625015   0.0625015   0.9374985  )
       132           C   tau( 132) = (   0.0625015   0.3125015   0.1874985  )
       133           C   tau( 133) = (   0.0625015   0.3125015   0.4374985  )
       134           C   tau( 134) = (   0.0625015   0.3125015   0.6874985  )
       135           C   tau( 135) = (   0.0625015   0.3125015   0.9374985  )
       136           C   tau( 136) = (   0.0625015   0.5625015   0.1874985  )
       137           C   tau( 137) = (   0.0625015   0.5625015   0.4374985  )
       138           C   tau( 138) = (   0.0625015   0.5625015   0.6874985  )
       139           C   tau( 139) = (   0.0625015   0.5625015   0.9374985  )
       140           C   tau( 140) = (   0.0625015   0.8125015   0.1874985  )
       141           C   tau( 141) = (   0.0625015   0.8125015   0.4374985  )
       142           C   tau( 142) = (   0.0625015   0.8125015   0.6874985  )
       143           C   tau( 143) = (   0.0625015   0.8125015   0.9374985  )
       144           C   tau( 144) = (   0.3125015   0.0625015   0.1874985  )
       145           C   tau( 145) = (   0.3125015   0.0625015   0.4374985  )
       146           C   tau( 146) = (   0.3125015   0.0625015   0.6874985  )
       147           C   tau( 147) = (   0.3125015   0.0625015   0.9374985  )
       148           C   tau( 148) = (   0.3125015   0.3125015   0.1874985  )
       149           C   tau( 149) = (   0.3125015   0.3125015   0.4374985  )
       150           C   tau( 150) = (   0.3125015   0.3125015   0.6874985  )
       151           C   tau( 151) = (   0.3125015   0.3125015   0.9374985  )
       152           C   tau( 152) = (   0.3125015   0.5625015   0.1874985  )
       153           C   tau( 153) = (   0.3125015   0.5625015   0.4374985  )
       154           C   tau( 154) = (   0.3125015   0.5625015   0.6874985  )
       155           C   tau( 155) = (   0.3125015   0.5625015   0.9374985  )
       156           C   tau( 156) = (   0.3125015   0.8125015   0.1874985  )
       157           C   tau( 157) = (   0.3125015   0.8125015   0.4374985  )
       158           C   tau( 158) = (   0.3125015   0.8125015   0.6874985  )
       159           C   tau( 159) = (   0.3125015   0.8125015   0.9374985  )
       160           C   tau( 160) = (   0.5625015   0.0625015   0.1874985  )
       161           C   tau( 161) = (   0.5625015   0.0625015   0.4374985  )
       162           C   tau( 162) = (   0.5625015   0.0625015   0.6874985  )
       163           C   tau( 163) = (   0.5625015   0.0625015   0.9374985  )
       164           C   tau( 164) = (   0.5625015   0.3125015   0.1874985  )
       165           C   tau( 165) = (   0.5625015   0.3125015   0.4374985  )
       166           C   tau( 166) = (   0.5625015   0.3125015   0.6874985  )
       167           C   tau( 167) = (   0.5625015   0.3125015   0.9374985  )
       168           C   tau( 168) = (   0.5625015   0.5625015   0.1874985  )
       169           C   tau( 169) = (   0.5625015   0.5625015   0.4374985  )
       170           C   tau( 170) = (   0.5625015   0.5625015   0.6874985  )
       171           C   tau( 171) = (   0.5625015   0.5625015   0.9374985  )
       172           C   tau( 172) = (   0.5625015   0.8125015   0.1874985  )
       173           C   tau( 173) = (   0.5625015   0.8125015   0.4374985  )
       174           C   tau( 174) = (   0.5625015   0.8125015   0.6874985  )
       175           C   tau( 175) = (   0.5625015   0.8125015   0.9374985  )
       176           C   tau( 176) = (   0.8125015   0.0625015   0.1874985  )
       177           C   tau( 177) = (   0.8125015   0.0625015   0.4374985  )
       178           C   tau( 178) = (   0.8125015   0.0625015   0.6874985  )
       179           C   tau( 179) = (   0.8125015   0.0625015   0.9374985  )
       180           C   tau( 180) = (   0.8125015   0.3125015   0.1874985  )
       181           C   tau( 181) = (   0.8125015   0.3125015   0.4374985  )
       182           C   tau( 182) = (   0.8125015   0.3125015   0.6874985  )
       183           C   tau( 183) = (   0.8125015   0.3125015   0.9374985  )
       184           C   tau( 184) = (   0.8125015   0.5625015   0.1874985  )
       185           C   tau( 185) = (   0.8125015   0.5625015   0.4374985  )
       186           C   tau( 186) = (   0.8125015   0.5625015   0.6874985  )
       187           C   tau( 187) = (   0.8125015   0.5625015   0.9374985  )
       188           C   tau( 188) = (   0.8125015   0.8125015   0.1874985  )
       189           C   tau( 189) = (   0.8125015   0.8125015   0.4374985  )
       190           C   tau( 190) = (   0.8125015   0.8125015   0.6874985  )
       191           C   tau( 191) = (   0.8125015   0.8125015   0.9374985  )
       192           C   tau( 192) = (   0.0000000   0.1250000   0.0000000  )
       193           C   tau( 193) = (   0.0000000   0.1250000   0.2500000  )
       194           C   tau( 194) = (   0.0000000   0.1250000   0.5000000  )
       195           C   tau( 195) = (   0.0000000   0.1250000   0.7500000  )
       196           C   tau( 196) = (   0.0000000   0.3750000   0.0000000  )
       197           C   tau( 197) = (   0.0000000   0.3750000   0.2500000  )
       198           C   tau( 198) = (   0.0000000   0.3750000   0.5000000  )
       199           C   tau( 199) = (   0.0000000   0.3750000   0.7500000  )
       200           C   tau( 200) = (   0.0000000   0.6250000   0.0000000  )
       201           C   tau( 201) = (   0.0000000   0.6250000   0.2500000  )
       202           C   tau( 202) = (   0.0000000   0.6250000   0.5000000  )
       203           C   tau( 203) = (   0.0000000   0.6250000   0.7500000  )
       204           C   tau( 204) = (   0.0000000   0.8750000   0.0000000  )
       205           C   tau( 205) = (   0.0000000   0.8750000   0.2500000  )
       206           C   tau( 206) = (   0.0000000   0.8750000   0.5000000  )
       207           C   tau( 207) = (   0.0000000   0.8750000   0.7500000  )
       208           C   tau( 208) = (   0.2500000   0.1250000   0.0000000  )
       209           C   tau( 209) = (   0.2500000   0.1250000   0.2500000  )
       210           C   tau( 210) = (   0.2500000   0.1250000   0.5000000  )
       211           C   tau( 211) = (   0.2500000   0.1250000   0.7500000  )
       212           C   tau( 212) = (   0.2500000   0.3750000   0.0000000  )
       213           C   tau( 213) = (   0.2500000   0.3750000   0.2500000  )
       214           C   tau( 214) = (   0.2500000   0.3750000   0.5000000  )
       215           C   tau( 215) = (   0.2500000   0.3750000   0.7500000  )
       216           C   tau( 216) = (   0.2500000   0.6250000   0.0000000  )
       217           C   tau( 217) = (   0.2500000   0.6250000   0.2500000  )
       218           C   tau( 218) = (   0.2500000   0.6250000   0.5000000  )
       219           C   tau( 219) = (   0.2500000   0.6250000   0.7500000  )
       220           C   tau( 220) = (   0.2500000   0.8750000   0.0000000  )
       221           C   tau( 221) = (   0.2500000   0.8750000   0.2500000  )
       222           C   tau( 222) = (   0.2500000   0.8750000   0.5000000  )
       223           C   tau( 223) = (   0.2500000   0.8750000   0.7500000  )
       224           C   tau( 224) = (   0.5000000   0.1250000   0.0000000  )
       225           C   tau( 225) = (   0.5000000   0.1250000   0.2500000  )
       226           C   tau( 226) = (   0.5000000   0.1250000   0.5000000  )
       227           C   tau( 227) = (   0.5000000   0.1250000   0.7500000  )
       228           C   tau( 228) = (   0.5000000   0.3750000   0.0000000  )
       229           C   tau( 229) = (   0.5000000   0.3750000   0.2500000  )
       230           C   tau( 230) = (   0.5000000   0.3750000   0.5000000  )
       231           C   tau( 231) = (   0.5000000   0.3750000   0.7500000  )
       232           C   tau( 232) = (   0.5000000   0.6250000   0.0000000  )
       233           C   tau( 233) = (   0.5000000   0.6250000   0.2500000  )
       234           C   tau( 234) = (   0.5000000   0.6250000   0.5000000  )
       235           C   tau( 235) = (   0.5000000   0.6250000   0.7500000  )
       236           C   tau( 236) = (   0.5000000   0.8750000   0.0000000  )
       237           C   tau( 237) = (   0.5000000   0.8750000   0.2500000  )
       238           C   tau( 238) = (   0.5000000   0.8750000   0.5000000  )
       239           C   tau( 239) = (   0.5000000   0.8750000   0.7500000  )
       240           C   tau( 240) = (   0.7500000   0.1250000   0.0000000  )
       241           C   tau( 241) = (   0.7500000   0.1250000   0.2500000  )
       242           C   tau( 242) = (   0.7500000   0.1250000   0.5000000  )
       243           C   tau( 243) = (   0.7500000   0.1250000   0.7500000  )
       244           C   tau( 244) = (   0.7500000   0.3750000   0.0000000  )
       245           C   tau( 245) = (   0.7500000   0.3750000   0.2500000  )
       246           C   tau( 246) = (   0.7500000   0.3750000   0.5000000  )
       247           C   tau( 247) = (   0.7500000   0.3750000   0.7500000  )
       248           C   tau( 248) = (   0.7500000   0.6250000   0.0000000  )
       249           C   tau( 249) = (   0.7500000   0.6250000   0.2500000  )
       250           C   tau( 250) = (   0.7500000   0.6250000   0.5000000  )
       251           C   tau( 251) = (   0.7500000   0.6250000   0.7500000  )
       252           C   tau( 252) = (   0.7500000   0.8750000   0.0000000  )
       253           C   tau( 253) = (   0.7500000   0.8750000   0.2500000  )
       254           C   tau( 254) = (   0.7500000   0.8750000   0.5000000  )
       255           C   tau( 255) = (   0.7500000   0.8750000   0.7500000  )
       256           C   tau( 256) = (   0.1874985   0.1874985   0.1874985  )
       257           C   tau( 257) = (   0.1874985   0.1874985   0.4374985  )
       258           C   tau( 258) = (   0.1874985   0.1874985   0.6874985  )
       259           C   tau( 259) = (   0.1874985   0.1874985   0.9374985  )
       260           C   tau( 260) = (   0.1874985   0.4374985   0.1874985  )
       261           C   tau( 261) = (   0.1874985   0.4374985   0.4374985  )
       262           C   tau( 262) = (   0.1874985   0.4374985   0.6874985  )
       263           C   tau( 263) = (   0.1874985   0.4374985   0.9374985  )
       264           C   tau( 264) = (   0.1874985   0.6874985   0.1874985  )
       265           C   tau( 265) = (   0.1874985   0.6874985   0.4374985  )
       266           C   tau( 266) = (   0.1874985   0.6874985   0.6874985  )
       267           C   tau( 267) = (   0.1874985   0.6874985   0.9374985  )
       268           C   tau( 268) = (   0.1874985   0.9374985   0.1874985  )
       269           C   tau( 269) = (   0.1874985   0.9374985   0.4374985  )
       270           C   tau( 270) = (   0.1874985   0.9374985   0.6874985  )
       271           C   tau( 271) = (   0.1874985   0.9374985   0.9374985  )
       272           C   tau( 272) = (   0.4374985   0.1874985   0.1874985  )
       273           C   tau( 273) = (   0.4374985   0.1874985   0.4374985  )
       274           C   tau( 274) = (   0.4374985   0.1874985   0.6874985  )
       275           C   tau( 275) = (   0.4374985   0.1874985   0.9374985  )
       276           C   tau( 276) = (   0.4374985   0.4374985   0.1874985  )
       277           C   tau( 277) = (   0.4374985   0.4374985   0.4374985  )
       278           C   tau( 278) = (   0.4374985   0.4374985   0.6874985  )
       279           C   tau( 279) = (   0.4374985   0.4374985   0.9374985  )
       280           C   tau( 280) = (   0.4374985   0.6874985   0.1874985  )
       281           C   tau( 281) = (   0.4374985   0.6874985   0.4374985  )
       282           C   tau( 282) = (   0.4374985   0.6874985   0.6874985  )
       283           C   tau( 283) = (   0.4374985   0.6874985   0.9374985  )
       284           C   tau( 284) = (   0.4374985   0.9374985   0.1874985  )
       285           C   tau( 285) = (   0.4374985   0.9374985   0.4374985  )
       286           C   tau( 286) = (   0.4374985   0.9374985   0.6874985  )
       287           C   tau( 287) = (   0.4374985   0.9374985   0.9374985  )
       288           C   tau( 288) = (   0.6874985   0.1874985   0.1874985  )
       289           C   tau( 289) = (   0.6874985   0.1874985   0.4374985  )
       290           C   tau( 290) = (   0.6874985   0.1874985   0.6874985  )
       291           C   tau( 291) = (   0.6874985   0.1874985   0.9374985  )
       292           C   tau( 292) = (   0.6874985   0.4374985   0.1874985  )
       293           C   tau( 293) = (   0.6874985   0.4374985   0.4374985  )
       294           C   tau( 294) = (   0.6874985   0.4374985   0.6874985  )
       295           C   tau( 295) = (   0.6874985   0.4374985   0.9374985  )
       296           C   tau( 296) = (   0.6874985   0.6874985   0.1874985  )
       297           C   tau( 297) = (   0.6874985   0.6874985   0.4374985  )
       298           C   tau( 298) = (   0.6874985   0.6874985   0.6874985  )
       299           C   tau( 299) = (   0.6874985   0.6874985   0.9374985  )
       300           C   tau( 300) = (   0.6874985   0.9374985   0.1874985  )
       301           C   tau( 301) = (   0.6874985   0.9374985   0.4374985  )
       302           C   tau( 302) = (   0.6874985   0.9374985   0.6874985  )
       303           C   tau( 303) = (   0.6874985   0.9374985   0.9374985  )
       304           C   tau( 304) = (   0.9374985   0.1874985   0.1874985  )
       305           C   tau( 305) = (   0.9374985   0.1874985   0.4374985  )
       306           C   tau( 306) = (   0.9374985   0.1874985   0.6874985  )
       307           C   tau( 307) = (   0.9374985   0.1874985   0.9374985  )
       308           C   tau( 308) = (   0.9374985   0.4374985   0.1874985  )
       309           C   tau( 309) = (   0.9374985   0.4374985   0.4374985  )
       310           C   tau( 310) = (   0.9374985   0.4374985   0.6874985  )
       311           C   tau( 311) = (   0.9374985   0.4374985   0.9374985  )
       312           C   tau( 312) = (   0.9374985   0.6874985   0.1874985  )
       313           C   tau( 313) = (   0.9374985   0.6874985   0.4374985  )
       314           C   tau( 314) = (   0.9374985   0.6874985   0.6874985  )
       315           C   tau( 315) = (   0.9374985   0.6874985   0.9374985  )
       316           C   tau( 316) = (   0.9374985   0.9374985   0.1874985  )
       317           C   tau( 317) = (   0.9374985   0.9374985   0.4374985  )
       318           C   tau( 318) = (   0.9374985   0.9374985   0.6874985  )
       319           C   tau( 319) = (   0.9374985   0.9374985   0.9374985  )
       320           C   tau( 320) = (   0.1250000   0.0000000   0.0000000  )
       321           C   tau( 321) = (   0.1250000   0.0000000   0.2500000  )
       322           C   tau( 322) = (   0.1250000   0.0000000   0.5000000  )
       323           C   tau( 323) = (   0.1250000   0.0000000   0.7500000  )
       324           C   tau( 324) = (   0.1250000   0.2500000   0.0000000  )
       325           C   tau( 325) = (   0.1250000   0.2500000   0.2500000  )
       326           C   tau( 326) = (   0.1250000   0.2500000   0.5000000  )
       327           C   tau( 327) = (   0.1250000   0.2500000   0.7500000  )
       328           C   tau( 328) = (   0.1250000   0.5000000   0.0000000  )
       329           C   tau( 329) = (   0.1250000   0.5000000   0.2500000  )
       330           C   tau( 330) = (   0.1250000   0.5000000   0.5000000  )
       331           C   tau( 331) = (   0.1250000   0.5000000   0.7500000  )
       332           C   tau( 332) = (   0.1250000   0.7500000   0.0000000  )
       333           C   tau( 333) = (   0.1250000   0.7500000   0.2500000  )
       334           C   tau( 334) = (   0.1250000   0.7500000   0.5000000  )
       335           C   tau( 335) = (   0.1250000   0.7500000   0.7500000  )
       336           C   tau( 336) = (   0.3750000   0.0000000   0.0000000  )
       337           C   tau( 337) = (   0.3750000   0.0000000   0.2500000  )
       338           C   tau( 338) = (   0.3750000   0.0000000   0.5000000  )
       339           C   tau( 339) = (   0.3750000   0.0000000   0.7500000  )
       340           C   tau( 340) = (   0.3750000   0.2500000   0.0000000  )
       341           C   tau( 341) = (   0.3750000   0.2500000   0.2500000  )
       342           C   tau( 342) = (   0.3750000   0.2500000   0.5000000  )
       343           C   tau( 343) = (   0.3750000   0.2500000   0.7500000  )
       344           C   tau( 344) = (   0.3750000   0.5000000   0.0000000  )
       345           C   tau( 345) = (   0.3750000   0.5000000   0.2500000  )
       346           C   tau( 346) = (   0.3750000   0.5000000   0.5000000  )
       347           C   tau( 347) = (   0.3750000   0.5000000   0.7500000  )
       348           C   tau( 348) = (   0.3750000   0.7500000   0.0000000  )
       349           C   tau( 349) = (   0.3750000   0.7500000   0.2500000  )
       350           C   tau( 350) = (   0.3750000   0.7500000   0.5000000  )
       351           C   tau( 351) = (   0.3750000   0.7500000   0.7500000  )
       352           C   tau( 352) = (   0.6250000   0.0000000   0.0000000  )
       353           C   tau( 353) = (   0.6250000   0.0000000   0.2500000  )
       354           C   tau( 354) = (   0.6250000   0.0000000   0.5000000  )
       355           C   tau( 355) = (   0.6250000   0.0000000   0.7500000  )
       356           C   tau( 356) = (   0.6250000   0.2500000   0.0000000  )
       357           C   tau( 357) = (   0.6250000   0.2500000   0.2500000  )
       358           C   tau( 358) = (   0.6250000   0.2500000   0.5000000  )
       359           C   tau( 359) = (   0.6250000   0.2500000   0.7500000  )
       360           C   tau( 360) = (   0.6250000   0.5000000   0.0000000  )
       361           C   tau( 361) = (   0.6250000   0.5000000   0.2500000  )
       362           C   tau( 362) = (   0.6250000   0.5000000   0.5000000  )
       363           C   tau( 363) = (   0.6250000   0.5000000   0.7500000  )
       364           C   tau( 364) = (   0.6250000   0.7500000   0.0000000  )
       365           C   tau( 365) = (   0.6250000   0.7500000   0.2500000  )
       366           C   tau( 366) = (   0.6250000   0.7500000   0.5000000  )
       367           C   tau( 367) = (   0.6250000   0.7500000   0.7500000  )
       368           C   tau( 368) = (   0.8750000   0.0000000   0.0000000  )
       369           C   tau( 369) = (   0.8750000   0.0000000   0.2500000  )
       370           C   tau( 370) = (   0.8750000   0.0000000   0.5000000  )
       371           C   tau( 371) = (   0.8750000   0.0000000   0.7500000  )
       372           C   tau( 372) = (   0.8750000   0.2500000   0.0000000  )
       373           C   tau( 373) = (   0.8750000   0.2500000   0.2500000  )
       374           C   tau( 374) = (   0.8750000   0.2500000   0.5000000  )
       375           C   tau( 375) = (   0.8750000   0.2500000   0.7500000  )
       376           C   tau( 376) = (   0.8750000   0.5000000   0.0000000  )
       377           C   tau( 377) = (   0.8750000   0.5000000   0.2500000  )
       378           C   tau( 378) = (   0.8750000   0.5000000   0.5000000  )
       379           C   tau( 379) = (   0.8750000   0.5000000   0.7500000  )
       380           C   tau( 380) = (   0.8750000   0.7500000   0.0000000  )
       381           C   tau( 381) = (   0.8750000   0.7500000   0.2500000  )
       382           C   tau( 382) = (   0.8750000   0.7500000   0.5000000  )
       383           C   tau( 383) = (   0.8750000   0.7500000   0.7500000  )
       384           C   tau( 384) = (   0.1874985   0.0625015   0.0625015  )
       385           C   tau( 385) = (   0.1874985   0.0625015   0.3125015  )
       386           C   tau( 386) = (   0.1874985   0.0625015   0.5625015  )
       387           C   tau( 387) = (   0.1874985   0.0625015   0.8125015  )
       388           C   tau( 388) = (   0.1874985   0.3125015   0.0625015  )
       389           C   tau( 389) = (   0.1874985   0.3125015   0.3125015  )
       390           C   tau( 390) = (   0.1874985   0.3125015   0.5625015  )
       391           C   tau( 391) = (   0.1874985   0.3125015   0.8125015  )
       392           C   tau( 392) = (   0.1874985   0.5625015   0.0625015  )
       393           C   tau( 393) = (   0.1874985   0.5625015   0.3125015  )
       394           C   tau( 394) = (   0.1874985   0.5625015   0.5625015  )
       395           C   tau( 395) = (   0.1874985   0.5625015   0.8125015  )
       396           C   tau( 396) = (   0.1874985   0.8125015   0.0625015  )
       397           C   tau( 397) = (   0.1874985   0.8125015   0.3125015  )
       398           C   tau( 398) = (   0.1874985   0.8125015   0.5625015  )
       399           C   tau( 399) = (   0.1874985   0.8125015   0.8125015  )
       400           C   tau( 400) = (   0.4374985   0.0625015   0.0625015  )
       401           C   tau( 401) = (   0.4374985   0.0625015   0.3125015  )
       402           C   tau( 402) = (   0.4374985   0.0625015   0.5625015  )
       403           C   tau( 403) = (   0.4374985   0.0625015   0.8125015  )
       404           C   tau( 404) = (   0.4374985   0.3125015   0.0625015  )
       405           C   tau( 405) = (   0.4374985   0.3125015   0.3125015  )
       406           C   tau( 406) = (   0.4374985   0.3125015   0.5625015  )
       407           C   tau( 407) = (   0.4374985   0.3125015   0.8125015  )
       408           C   tau( 408) = (   0.4374985   0.5625015   0.0625015  )
       409           C   tau( 409) = (   0.4374985   0.5625015   0.3125015  )
       410           C   tau( 410) = (   0.4374985   0.5625015   0.5625015  )
       411           C   tau( 411) = (   0.4374985   0.5625015   0.8125015  )
       412           C   tau( 412) = (   0.4374985   0.8125015   0.0625015  )
       413           C   tau( 413) = (   0.4374985   0.8125015   0.3125015  )
       414           C   tau( 414) = (   0.4374985   0.8125015   0.5625015  )
       415           C   tau( 415) = (   0.4374985   0.8125015   0.8125015  )
       416           C   tau( 416) = (   0.6874985   0.0625015   0.0625015  )
       417           C   tau( 417) = (   0.6874985   0.0625015   0.3125015  )
       418           C   tau( 418) = (   0.6874985   0.0625015   0.5625015  )
       419           C   tau( 419) = (   0.6874985   0.0625015   0.8125015  )
       420           C   tau( 420) = (   0.6874985   0.3125015   0.0625015  )
       421           C   tau( 421) = (   0.6874985   0.3125015   0.3125015  )
       422           C   tau( 422) = (   0.6874985   0.3125015   0.5625015  )
       423           C   tau( 423) = (   0.6874985   0.3125015   0.8125015  )
       424           C   tau( 424) = (   0.6874985   0.5625015   0.0625015  )
       425           C   tau( 425) = (   0.6874985   0.5625015   0.3125015  )
       426           C   tau( 426) = (   0.6874985   0.5625015   0.5625015  )
       427           C   tau( 427) = (   0.6874985   0.5625015   0.8125015  )
       428           C   tau( 428) = (   0.6874985   0.8125015   0.0625015  )
       429           C   tau( 429) = (   0.6874985   0.8125015   0.3125015  )
       430           C   tau( 430) = (   0.6874985   0.8125015   0.5625015  )
       431           C   tau( 431) = (   0.6874985   0.8125015   0.8125015  )
       432           C   tau( 432) = (   0.9374985   0.0625015   0.0625015  )
       433           C   tau( 433) = (   0.9374985   0.0625015   0.3125015  )
       434           C   tau( 434) = (   0.9374985   0.0625015   0.5625015  )
       435           C   tau( 435) = (   0.9374985   0.0625015   0.8125015  )
       436           C   tau( 436) = (   0.9374985   0.3125015   0.0625015  )
       437           C   tau( 437) = (   0.9374985   0.3125015   0.3125015  )
       438           C   tau( 438) = (   0.9374985   0.3125015   0.5625015  )
       439           C   tau( 439) = (   0.9374985   0.3125015   0.8125015  )
       440           C   tau( 440) = (   0.9374985   0.5625015   0.0625015  )
       441           C   tau( 441) = (   0.9374985   0.5625015   0.3125015  )
       442           C   tau( 442) = (   0.9374985   0.5625015   0.5625015  )
       443           C   tau( 443) = (   0.9374985   0.5625015   0.8125015  )
       444           C   tau( 444) = (   0.9374985   0.8125015   0.0625015  )
       445           C   tau( 445) = (   0.9374985   0.8125015   0.3125015  )
       446           C   tau( 446) = (   0.9374985   0.8125015   0.5625015  )
       447           C   tau( 447) = (   0.9374985   0.8125015   0.8125015  )
       448           C   tau( 448) = (   0.1250000   0.1250000   0.1250000  )
       449           C   tau( 449) = (   0.1250000   0.1250000   0.3750000  )
       450           C   tau( 450) = (   0.1250000   0.1250000   0.6250000  )
       451           C   tau( 451) = (   0.1250000   0.1250000   0.8750000  )
       452           C   tau( 452) = (   0.1250000   0.3750000   0.1250000  )
       453           C   tau( 453) = (   0.1250000   0.3750000   0.3750000  )
       454           C   tau( 454) = (   0.1250000   0.3750000   0.6250000  )
       455           C   tau( 455) = (   0.1250000   0.3750000   0.8750000  )
       456           C   tau( 456) = (   0.1250000   0.6250000   0.1250000  )
       457           C   tau( 457) = (   0.1250000   0.6250000   0.3750000  )
       458           C   tau( 458) = (   0.1250000   0.6250000   0.6250000  )
       459           C   tau( 459) = (   0.1250000   0.6250000   0.8750000  )
       460           C   tau( 460) = (   0.1250000   0.8750000   0.1250000  )
       461           C   tau( 461) = (   0.1250000   0.8750000   0.3750000  )
       462           C   tau( 462) = (   0.1250000   0.8750000   0.6250000  )
       463           C   tau( 463) = (   0.1250000   0.8750000   0.8750000  )
       464           C   tau( 464) = (   0.3750000   0.1250000   0.1250000  )
       465           C   tau( 465) = (   0.3750000   0.1250000   0.3750000  )
       466           C   tau( 466) = (   0.3750000   0.1250000   0.6250000  )
       467           C   tau( 467) = (   0.3750000   0.1250000   0.8750000  )
       468           C   tau( 468) = (   0.3750000   0.3750000   0.1250000  )
       469           C   tau( 469) = (   0.3750000   0.3750000   0.3750000  )
       470           C   tau( 470) = (   0.3750000   0.3750000   0.6250000  )
       471           C   tau( 471) = (   0.3750000   0.3750000   0.8750000  )
       472           C   tau( 472) = (   0.3750000   0.6250000   0.1250000  )
       473           C   tau( 473) = (   0.3750000   0.6250000   0.3750000  )
       474           C   tau( 474) = (   0.3750000   0.6250000   0.6250000  )
       475           C   tau( 475) = (   0.3750000   0.6250000   0.8750000  )
       476           C   tau( 476) = (   0.3750000   0.8750000   0.1250000  )
       477           C   tau( 477) = (   0.3750000   0.8750000   0.3750000  )
       478           C   tau( 478) = (   0.3750000   0.8750000   0.6250000  )
       479           C   tau( 479) = (   0.3750000   0.8750000   0.8750000  )
       480           C   tau( 480) = (   0.6250000   0.1250000   0.1250000  )
       481           C   tau( 481) = (   0.6250000   0.1250000   0.3750000  )
       482           C   tau( 482) = (   0.6250000   0.1250000   0.6250000  )
       483           C   tau( 483) = (   0.6250000   0.1250000   0.8750000  )
       484           C   tau( 484) = (   0.6250000   0.3750000   0.1250000  )
       485           C   tau( 485) = (   0.6250000   0.3750000   0.3750000  )
       486           C   tau( 486) = (   0.6250000   0.3750000   0.6250000  )
       487           C   tau( 487) = (   0.6250000   0.3750000   0.8750000  )
       488           C   tau( 488) = (   0.6250000   0.6250000   0.1250000  )
       489           C   tau( 489) = (   0.6250000   0.6250000   0.3750000  )
       490           C   tau( 490) = (   0.6250000   0.6250000   0.6250000  )
       491           C   tau( 491) = (   0.6250000   0.6250000   0.8750000  )
       492           C   tau( 492) = (   0.6250000   0.8750000   0.1250000  )
       493           C   tau( 493) = (   0.6250000   0.8750000   0.3750000  )
       494           C   tau( 494) = (   0.6250000   0.8750000   0.6250000  )
       495           C   tau( 495) = (   0.6250000   0.8750000   0.8750000  )
       496           C   tau( 496) = (   0.8750000   0.1250000   0.1250000  )
       497           C   tau( 497) = (   0.8750000   0.1250000   0.3750000  )
       498           C   tau( 498) = (   0.8750000   0.1250000   0.6250000  )
       499           C   tau( 499) = (   0.8750000   0.1250000   0.8750000  )
       500           C   tau( 500) = (   0.8750000   0.3750000   0.1250000  )
       501           C   tau( 501) = (   0.8750000   0.3750000   0.3750000  )
       502           C   tau( 502) = (   0.8750000   0.3750000   0.6250000  )
       503           C   tau( 503) = (   0.8750000   0.3750000   0.8750000  )
       504           C   tau( 504) = (   0.8750000   0.6250000   0.1250000  )
       505           C   tau( 505) = (   0.8750000   0.6250000   0.3750000  )
       506           C   tau( 506) = (   0.8750000   0.6250000   0.6250000  )
       507           C   tau( 507) = (   0.8750000   0.6250000   0.8750000  )
       508           C   tau( 508) = (   0.8750000   0.8750000   0.1250000  )
       509           C   tau( 509) = (   0.8750000   0.8750000   0.3750000  )
       510           C   tau( 510) = (   0.8750000   0.8750000   0.6250000  )
       511           C   tau( 511) = (   0.8750000   0.8750000   0.8750000  )

   Crystallographic axes

     site n.     atom                  positions (cryst. coord.)
         1           C   tau(   1) = (  0.0625015  0.1874985  0.3125015  )
         2           C   tau(   2) = (  0.0625015  0.1874985  0.5625015  )
         3           C   tau(   3) = (  0.0625015  0.1874985  0.8125015  )
         4           C   tau(   4) = (  0.0625015  0.4374985  0.0625015  )
         5           C   tau(   5) = (  0.0625015  0.4374985  0.3125015  )
         6           C   tau(   6) = (  0.0625015  0.4374985  0.5625015  )
         7           C   tau(   7) = (  0.0625015  0.4374985  0.8125015  )
         8           C   tau(   8) = (  0.0625015  0.6874985  0.0625015  )
         9           C   tau(   9) = (  0.0625015  0.6874985  0.3125015  )
        10           C   tau(  10) = (  0.0625015  0.6874985  0.5625015  )
        11           C   tau(  11) = (  0.0625015  0.6874985  0.8125015  )
        12           C   tau(  12) = (  0.0625015  0.9374985  0.0625015  )
        13           C   tau(  13) = (  0.0625015  0.9374985  0.3125015  )
        14           C   tau(  14) = (  0.0625015  0.9374985  0.5625015  )
        15           C   tau(  15) = (  0.0625015  0.9374985  0.8125015  )
        16           C   tau(  16) = (  0.3125015  0.1874985  0.0625015  )
        17           C   tau(  17) = (  0.3125015  0.1874985  0.3125015  )
        18           C   tau(  18) = (  0.3125015  0.1874985  0.5625015  )
        19           C   tau(  19) = (  0.3125015  0.1874985  0.8125015  )
        20           C   tau(  20) = (  0.3125015  0.4374985  0.0625015  )
        21           C   tau(  21) = (  0.3125015  0.4374985  0.3125015  )
        22           C   tau(  22) = (  0.3125015  0.4374985  0.5625015  )
        23           C   tau(  23) = (  0.3125015  0.4374985  0.8125015  )
        24           C   tau(  24) = (  0.3125015  0.6874985  0.0625015  )
        25           C   tau(  25) = (  0.3125015  0.6874985  0.3125015  )
        26           C   tau(  26) = (  0.3125015  0.6874985  0.5625015  )
        27           C   tau(  27) = (  0.3125015  0.6874985  0.8125015  )
        28           C   tau(  28) = (  0.3125015  0.9374985  0.0625015  )
        29           C   tau(  29) = (  0.3125015  0.9374985  0.3125015  )
        30           C   tau(  30) = (  0.3125015  0.9374985  0.5625015  )
        31           C   tau(  31) = (  0.3125015  0.9374985  0.8125015  )
        32           C   tau(  32) = (  0.5625015  0.1874985  0.0625015  )
        33           C   tau(  33) = (  0.5625015  0.1874985  0.3125015  )
        34           C   tau(  34) = (  0.5625015  0.1874985  0.5625015  )
        35           C   tau(  35) = (  0.5625015  0.1874985  0.8125015  )
        36           C   tau(  36) = (  0.5625015  0.4374985  0.0625015  )
        37           C   tau(  37) = (  0.5625015  0.4374985  0.3125015  )
        38           C   tau(  38) = (  0.5625015  0.4374985  0.5625015  )
        39           C   tau(  39) = (  0.5625015  0.4374985  0.8125015  )
        40           C   tau(  40) = (  0.5625015  0.6874985  0.0625015  )
        41           C   tau(  41) = (  0.5625015  0.6874985  0.3125015  )
        42           C   tau(  42) = (  0.5625015  0.6874985  0.5625015  )
        43           C   tau(  43) = (  0.5625015  0.6874985  0.8125015  )
        44           C   tau(  44) = (  0.5625015  0.9374985  0.0625015  )
        45           C   tau(  45) = (  0.5625015  0.9374985  0.3125015  )
        46           C   tau(  46) = (  0.5625015  0.9374985  0.5625015  )
        47           C   tau(  47) = (  0.5625015  0.9374985  0.8125015  )
        48           C   tau(  48) = (  0.8125015  0.1874985  0.0625015  )
        49           C   tau(  49) = (  0.8125015  0.1874985  0.3125015  )
        50           C   tau(  50) = (  0.8125015  0.1874985  0.5625015  )
        51           C   tau(  51) = (  0.8125015  0.1874985  0.8125015  )
        52           C   tau(  52) = (  0.8125015  0.4374985  0.0625015  )
        53           C   tau(  53) = (  0.8125015  0.4374985  0.3125015  )
        54           C   tau(  54) = (  0.8125015  0.4374985  0.5625015  )
        55           C   tau(  55) = (  0.8125015  0.4374985  0.8125015  )
        56           C   tau(  56) = (  0.8125015  0.6874985  0.0625015  )
        57           C   tau(  57) = (  0.8125015  0.6874985  0.3125015  )
        58           C   tau(  58) = (  0.8125015  0.6874985  0.5625015  )
        59           C   tau(  59) = (  0.8125015  0.6874985  0.8125015  )
        60           C   tau(  60) = (  0.8125015  0.9374985  0.0625015  )
        61           C   tau(  61) = (  0.8125015  0.9374985  0.3125015  )
        62           C   tau(  62) = (  0.8125015  0.9374985  0.5625015  )
        63           C   tau(  63) = (  0.8125015  0.9374985  0.8125015  )
        64           C   tau(  64) = (  0.0000000  0.0000000  0.1250000  )
        65           C   tau(  65) = (  0.0000000  0.0000000  0.3750000  )
        66           C   tau(  66) = (  0.0000000  0.0000000  0.6250000  )
        67           C   tau(  67) = (  0.0000000  0.0000000  0.8750000  )
        68           C   tau(  68) = (  0.0000000  0.2500000  0.1250000  )
        69           C   tau(  69) = (  0.0000000  0.2500000  0.3750000  )
        70           C   tau(  70) = (  0.0000000  0.2500000  0.6250000  )
        71           C   tau(  71) = (  0.0000000  0.2500000  0.8750000  )
        72           C   tau(  72) = (  0.0000000  0.5000000  0.1250000  )
        73           C   tau(  73) = (  0.0000000  0.5000000  0.3750000  )
        74           C   tau(  74) = (  0.0000000  0.5000000  0.6250000  )
        75           C   tau(  75) = (  0.0000000  0.5000000  0.8750000  )
        76           C   tau(  76) = (  0.0000000  0.7500000  0.1250000  )
        77           C   tau(  77) = (  0.0000000  0.7500000  0.3750000  )
        78           C   tau(  78) = (  0.0000000  0.7500000  0.6250000  )
        79           C   tau(  79) = (  0.0000000  0.7500000  0.8750000  )
        80           C   tau(  80) = (  0.2500000  0.0000000  0.1250000  )
        81           C   tau(  81) = (  0.2500000  0.0000000  0.3750000  )
        82           C   tau(  82) = (  0.2500000  0.0000000  0.6250000  )
        83           C   tau(  83) = (  0.2500000  0.0000000  0.8750000  )
        84           C   tau(  84) = (  0.2500000  0.2500000  0.1250000  )
        85           C   tau(  85) = (  0.2500000  0.2500000  0.3750000  )
        86           C   tau(  86) = (  0.2500000  0.2500000  0.6250000  )
        87           C   tau(  87) = (  0.2500000  0.2500000  0.8750000  )
        88           C   tau(  88) = (  0.2500000  0.5000000  0.1250000  )
        89           C   tau(  89) = (  0.2500000  0.5000000  0.3750000  )
        90           C   tau(  90) = (  0.2500000  0.5000000  0.6250000  )
        91           C   tau(  91) = (  0.2500000  0.5000000  0.8750000  )
        92           C   tau(  92) = (  0.2500000  0.7500000  0.1250000  )
        93           C   tau(  93) = (  0.2500000  0.7500000  0.3750000  )
        94           C   tau(  94) = (  0.2500000  0.7500000  0.6250000  )
        95           C   tau(  95) = (  0.2500000  0.7500000  0.8750000  )
        96           C   tau(  96) = (  0.5000000  0.0000000  0.1250000  )
        97           C   tau(  97) = (  0.5000000  0.0000000  0.3750000  )
        98           C   tau(  98) = (  0.5000000  0.0000000  0.6250000  )
        99           C   tau(  99) = (  0.5000000  0.0000000  0.8750000  )
       100           C   tau( 100) = (  0.5000000  0.2500000  0.1250000  )
       101           C   tau( 101) = (  0.5000000  0.2500000  0.3750000  )
       102           C   tau( 102) = (  0.5000000  0.2500000  0.6250000  )
       103           C   tau( 103) = (  0.5000000  0.2500000  0.8750000  )
       104           C   tau( 104) = (  0.5000000  0.5000000  0.1250000  )
       105           C   tau( 105) = (  0.5000000  0.5000000  0.3750000  )
       106           C   tau( 106) = (  0.5000000  0.5000000  0.6250000  )
       107           C   tau( 107) = (  0.5000000  0.5000000  0.8750000  )
       108           C   tau( 108) = (  0.5000000  0.7500000  0.1250000  )
       109           C   tau( 109) = (  0.5000000  0.7500000  0.3750000  )
       110           C   tau( 110) = (  0.5000000  0.7500000  0.6250000  )
       111           C   tau( 111) = (  0.5000000  0.7500000  0.8750000  )
       112           C   tau( 112) = (  0.7500000  0.0000000  0.1250000  )
       113           C   tau( 113) = (  0.7500000  0.0000000  0.3750000  )
       114           C   tau( 114) = (  0.7500000  0.0000000  0.6250000  )
       115           C   tau( 115) = (  0.7500000  0.0000000  0.8750000  )
       116           C   tau( 116) = (  0.7500000  0.2500000  0.1250000  )
       117           C   tau( 117) = (  0.7500000  0.2500000  0.3750000  )
       118           C   tau( 118) = (  0.7500000  0.2500000  0.6250000  )
       119           C   tau( 119) = (  0.7500000  0.2500000  0.8750000  )
       120           C   tau( 120) = (  0.7500000  0.5000000  0.1250000  )
       121           C   tau( 121) = (  0.7500000  0.5000000  0.3750000  )
       122           C   tau( 122) = (  0.7500000  0.5000000  0.6250000  )
       123           C   tau( 123) = (  0.7500000  0.5000000  0.8750000  )
       124           C   tau( 124) = (  0.7500000  0.7500000  0.1250000  )
       125           C   tau( 125) = (  0.7500000  0.7500000  0.3750000  )
       126           C   tau( 126) = (  0.7500000  0.7500000  0.6250000  )
       127           C   tau( 127) = (  0.7500000  0.7500000  0.8750000  )
       128           C   tau( 128) = (  0.0625015  0.0625015  0.1874985  )
       129           C   tau( 129) = (  0.0625015  0.0625015  0.4374985  )
       130           C   tau( 130) = (  0.0625015  0.0625015  0.6874985  )
       131           C   tau( 131) = (  0.0625015  0.0625015  0.9374985  )
       132           C   tau( 132) = (  0.0625015  0.3125015  0.1874985  )
       133           C   tau( 133) = (  0.0625015  0.3125015  0.4374985  )
       134           C   tau( 134) = (  0.0625015  0.3125015  0.6874985  )
       135           C   tau( 135) = (  0.0625015  0.3125015  0.9374985  )
       136           C   tau( 136) = (  0.0625015  0.5625015  0.1874985  )
       137           C   tau( 137) = (  0.0625015  0.5625015  0.4374985  )
       138           C   tau( 138) = (  0.0625015  0.5625015  0.6874985  )
       139           C   tau( 139) = (  0.0625015  0.5625015  0.9374985  )
       140           C   tau( 140) = (  0.0625015  0.8125015  0.1874985  )
       141           C   tau( 141) = (  0.0625015  0.8125015  0.4374985  )
       142           C   tau( 142) = (  0.0625015  0.8125015  0.6874985  )
       143           C   tau( 143) = (  0.0625015  0.8125015  0.9374985  )
       144           C   tau( 144) = (  0.3125015  0.0625015  0.1874985  )
       145           C   tau( 145) = (  0.3125015  0.0625015  0.4374985  )
       146           C   tau( 146) = (  0.3125015  0.0625015  0.6874985  )
       147           C   tau( 147) = (  0.3125015  0.0625015  0.9374985  )
       148           C   tau( 148) = (  0.3125015  0.3125015  0.1874985  )
       149           C   tau( 149) = (  0.3125015  0.3125015  0.4374985  )
       150           C   tau( 150) = (  0.3125015  0.3125015  0.6874985  )
       151           C   tau( 151) = (  0.3125015  0.3125015  0.9374985  )
       152           C   tau( 152) = (  0.3125015  0.5625015  0.1874985  )
       153           C   tau( 153) = (  0.3125015  0.5625015  0.4374985  )
       154           C   tau( 154) = (  0.3125015  0.5625015  0.6874985  )
       155           C   tau( 155) = (  0.3125015  0.5625015  0.9374985  )
       156           C   tau( 156) = (  0.3125015  0.8125015  0.1874985  )
       157           C   tau( 157) = (  0.3125015  0.8125015  0.4374985  )
       158           C   tau( 158) = (  0.3125015  0.8125015  0.6874985  )
       159           C   tau( 159) = (  0.3125015  0.8125015  0.9374985  )
       160           C   tau( 160) = (  0.5625015  0.0625015  0.1874985  )
       161           C   tau( 161) = (  0.5625015  0.0625015  0.4374985  )
       162           C   tau( 162) = (  0.5625015  0.0625015  0.6874985  )
       163           C   tau( 163) = (  0.5625015  0.0625015  0.9374985  )
       164           C   tau( 164) = (  0.5625015  0.3125015  0.1874985  )
       165           C   tau( 165) = (  0.5625015  0.3125015  0.4374985  )
       166           C   tau( 166) = (  0.5625015  0.3125015  0.6874985  )
       167           C   tau( 167) = (  0.5625015  0.3125015  0.9374985  )
       168           C   tau( 168) = (  0.5625015  0.5625015  0.1874985  )
       169           C   tau( 169) = (  0.5625015  0.5625015  0.4374985  )
       170           C   tau( 170) = (  0.5625015  0.5625015  0.6874985  )
       171           C   tau( 171) = (  0.5625015  0.5625015  0.9374985  )
       172           C   tau( 172) = (  0.5625015  0.8125015  0.1874985  )
       173           C   tau( 173) = (  0.5625015  0.8125015  0.4374985  )
       174           C   tau( 174) = (  0.5625015  0.8125015  0.6874985  )
       175           C   tau( 175) = (  0.5625015  0.8125015  0.9374985  )
       176           C   tau( 176) = (  0.8125015  0.0625015  0.1874985  )
       177           C   tau( 177) = (  0.8125015  0.0625015  0.4374985  )
       178           C   tau( 178) = (  0.8125015  0.0625015  0.6874985  )
       179           C   tau( 179) = (  0.8125015  0.0625015  0.9374985  )
       180           C   tau( 180) = (  0.8125015  0.3125015  0.1874985  )
       181           C   tau( 181) = (  0.8125015  0.3125015  0.4374985  )
       182           C   tau( 182) = (  0.8125015  0.3125015  0.6874985  )
       183           C   tau( 183) = (  0.8125015  0.3125015  0.9374985  )
       184           C   tau( 184) = (  0.8125015  0.5625015  0.1874985  )
       185           C   tau( 185) = (  0.8125015  0.5625015  0.4374985  )
       186           C   tau( 186) = (  0.8125015  0.5625015  0.6874985  )
       187           C   tau( 187) = (  0.8125015  0.5625015  0.9374985  )
       188           C   tau( 188) = (  0.8125015  0.8125015  0.1874985  )
       189           C   tau( 189) = (  0.8125015  0.8125015  0.4374985  )
       190           C   tau( 190) = (  0.8125015  0.8125015  0.6874985  )
       191           C   tau( 191) = (  0.8125015  0.8125015  0.9374985  )
       192           C   tau( 192) = (  0.0000000  0.1250000  0.0000000  )
       193           C   tau( 193) = (  0.0000000  0.1250000  0.2500000  )
       194           C   tau( 194) = (  0.0000000  0.1250000  0.5000000  )
       195           C   tau( 195) = (  0.0000000  0.1250000  0.7500000  )
       196           C   tau( 196) = (  0.0000000  0.3750000  0.0000000  )
       197           C   tau( 197) = (  0.0000000  0.3750000  0.2500000  )
       198           C   tau( 198) = (  0.0000000  0.3750000  0.5000000  )
       199           C   tau( 199) = (  0.0000000  0.3750000  0.7500000  )
       200           C   tau( 200) = (  0.0000000  0.6250000  0.0000000  )
       201           C   tau( 201) = (  0.0000000  0.6250000  0.2500000  )
       202           C   tau( 202) = (  0.0000000  0.6250000  0.5000000  )
       203           C   tau( 203) = (  0.0000000  0.6250000  0.7500000  )
       204           C   tau( 204) = (  0.0000000  0.8750000  0.0000000  )
       205           C   tau( 205) = (  0.0000000  0.8750000  0.2500000  )
       206           C   tau( 206) = (  0.0000000  0.8750000  0.5000000  )
       207           C   tau( 207) = (  0.0000000  0.8750000  0.7500000  )
       208           C   tau( 208) = (  0.2500000  0.1250000  0.0000000  )
       209           C   tau( 209) = (  0.2500000  0.1250000  0.2500000  )
       210           C   tau( 210) = (  0.2500000  0.1250000  0.5000000  )
       211           C   tau( 211) = (  0.2500000  0.1250000  0.7500000  )
       212           C   tau( 212) = (  0.2500000  0.3750000  0.0000000  )
       213           C   tau( 213) = (  0.2500000  0.3750000  0.2500000  )
       214           C   tau( 214) = (  0.2500000  0.3750000  0.5000000  )
       215           C   tau( 215) = (  0.2500000  0.3750000  0.7500000  )
       216           C   tau( 216) = (  0.2500000  0.6250000  0.0000000  )
       217           C   tau( 217) = (  0.2500000  0.6250000  0.2500000  )
       218           C   tau( 218) = (  0.2500000  0.6250000  0.5000000  )
       219           C   tau( 219) = (  0.2500000  0.6250000  0.7500000  )
       220           C   tau( 220) = (  0.2500000  0.8750000  0.0000000  )
       221           C   tau( 221) = (  0.2500000  0.8750000  0.2500000  )
       222           C   tau( 222) = (  0.2500000  0.8750000  0.5000000  )
       223           C   tau( 223) = (  0.2500000  0.8750000  0.7500000  )
       224           C   tau( 224) = (  0.5000000  0.1250000  0.0000000  )
       225           C   tau( 225) = (  0.5000000  0.1250000  0.2500000  )
       226           C   tau( 226) = (  0.5000000  0.1250000  0.5000000  )
       227           C   tau( 227) = (  0.5000000  0.1250000  0.7500000  )
       228           C   tau( 228) = (  0.5000000  0.3750000  0.0000000  )
       229           C   tau( 229) = (  0.5000000  0.3750000  0.2500000  )
       230           C   tau( 230) = (  0.5000000  0.3750000  0.5000000  )
       231           C   tau( 231) = (  0.5000000  0.3750000  0.7500000  )
       232           C   tau( 232) = (  0.5000000  0.6250000  0.0000000  )
       233           C   tau( 233) = (  0.5000000  0.6250000  0.2500000  )
       234           C   tau( 234) = (  0.5000000  0.6250000  0.5000000  )
       235           C   tau( 235) = (  0.5000000  0.6250000  0.7500000  )
       236           C   tau( 236) = (  0.5000000  0.8750000  0.0000000  )
       237           C   tau( 237) = (  0.5000000  0.8750000  0.2500000  )
       238           C   tau( 238) = (  0.5000000  0.8750000  0.5000000  )
       239           C   tau( 239) = (  0.5000000  0.8750000  0.7500000  )
       240           C   tau( 240) = (  0.7500000  0.1250000  0.0000000  )
       241           C   tau( 241) = (  0.7500000  0.1250000  0.2500000  )
       242           C   tau( 242) = (  0.7500000  0.1250000  0.5000000  )
       243           C   tau( 243) = (  0.7500000  0.1250000  0.7500000  )
       244           C   tau( 244) = (  0.7500000  0.3750000  0.0000000  )
       245           C   tau( 245) = (  0.7500000  0.3750000  0.2500000  )
       246           C   tau( 246) = (  0.7500000  0.3750000  0.5000000  )
       247           C   tau( 247) = (  0.7500000  0.3750000  0.7500000  )
       248           C   tau( 248) = (  0.7500000  0.6250000  0.0000000  )
       249           C   tau( 249) = (  0.7500000  0.6250000  0.2500000  )
       250           C   tau( 250) = (  0.7500000  0.6250000  0.5000000  )
       251           C   tau( 251) = (  0.7500000  0.6250000  0.7500000  )
       252           C   tau( 252) = (  0.7500000  0.8750000  0.0000000  )
       253           C   tau( 253) = (  0.7500000  0.8750000  0.2500000  )
       254           C   tau( 254) = (  0.7500000  0.8750000  0.5000000  )
       255           C   tau( 255) = (  0.7500000  0.8750000  0.7500000  )
       256           C   tau( 256) = (  0.1874985  0.1874985  0.1874985  )
       257           C   tau( 257) = (  0.1874985  0.1874985  0.4374985  )
       258           C   tau( 258) = (  0.1874985  0.1874985  0.6874985  )
       259           C   tau( 259) = (  0.1874985  0.1874985  0.9374985  )
       260           C   tau( 260) = (  0.1874985  0.4374985  0.1874985  )
       261           C   tau( 261) = (  0.1874985  0.4374985  0.4374985  )
       262           C   tau( 262) = (  0.1874985  0.4374985  0.6874985  )
       263           C   tau( 263) = (  0.1874985  0.4374985  0.9374985  )
       264           C   tau( 264) = (  0.1874985  0.6874985  0.1874985  )
       265           C   tau( 265) = (  0.1874985  0.6874985  0.4374985  )
       266           C   tau( 266) = (  0.1874985  0.6874985  0.6874985  )
       267           C   tau( 267) = (  0.1874985  0.6874985  0.9374985  )
       268           C   tau( 268) = (  0.1874985  0.9374985  0.1874985  )
       269           C   tau( 269) = (  0.1874985  0.9374985  0.4374985  )
       270           C   tau( 270) = (  0.1874985  0.9374985  0.6874985  )
       271           C   tau( 271) = (  0.1874985  0.9374985  0.9374985  )
       272           C   tau( 272) = (  0.4374985  0.1874985  0.1874985  )
       273           C   tau( 273) = (  0.4374985  0.1874985  0.4374985  )
       274           C   tau( 274) = (  0.4374985  0.1874985  0.6874985  )
       275           C   tau( 275) = (  0.4374985  0.1874985  0.9374985  )
       276           C   tau( 276) = (  0.4374985  0.4374985  0.1874985  )
       277           C   tau( 277) = (  0.4374985  0.4374985  0.4374985  )
       278           C   tau( 278) = (  0.4374985  0.4374985  0.6874985  )
       279           C   tau( 279) = (  0.4374985  0.4374985  0.9374985  )
       280           C   tau( 280) = (  0.4374985  0.6874985  0.1874985  )
       281           C   tau( 281) = (  0.4374985  0.6874985  0.4374985  )
       282           C   tau( 282) = (  0.4374985  0.6874985  0.6874985  )
       283           C   tau( 283) = (  0.4374985  0.6874985  0.9374985  )
       284           C   tau( 284) = (  0.4374985  0.9374985  0.1874985  )
       285           C   tau( 285) = (  0.4374985  0.9374985  0.4374985  )
       286           C   tau( 286) = (  0.4374985  0.9374985  0.6874985  )
       287           C   tau( 287) = (  0.4374985  0.9374985  0.9374985  )
       288           C   tau( 288) = (  0.6874985  0.1874985  0.1874985  )
       289           C   tau( 289) = (  0.6874985  0.1874985  0.4374985  )
       290           C   tau( 290) = (  0.6874985  0.1874985  0.6874985  )
       291           C   tau( 291) = (  0.6874985  0.1874985  0.9374985  )
       292           C   tau( 292) = (  0.6874985  0.4374985  0.1874985  )
       293           C   tau( 293) = (  0.6874985  0.4374985  0.4374985  )
       294           C   tau( 294) = (  0.6874985  0.4374985  0.6874985  )
       295           C   tau( 295) = (  0.6874985  0.4374985  0.9374985  )
       296           C   tau( 296) = (  0.6874985  0.6874985  0.1874985  )
       297           C   tau( 297) = (  0.6874985  0.6874985  0.4374985  )
       298           C   tau( 298) = (  0.6874985  0.6874985  0.6874985  )
       299           C   tau( 299) = (  0.6874985  0.6874985  0.9374985  )
       300           C   tau( 300) = (  0.6874985  0.9374985  0.1874985  )
       301           C   tau( 301) = (  0.6874985  0.9374985  0.4374985  )
       302           C   tau( 302) = (  0.6874985  0.9374985  0.6874985  )
       303           C   tau( 303) = (  0.6874985  0.9374985  0.9374985  )
       304           C   tau( 304) = (  0.9374985  0.1874985  0.1874985  )
       305           C   tau( 305) = (  0.9374985  0.1874985  0.4374985  )
       306           C   tau( 306) = (  0.9374985  0.1874985  0.6874985  )
       307           C   tau( 307) = (  0.9374985  0.1874985  0.9374985  )
       308           C   tau( 308) = (  0.9374985  0.4374985  0.1874985  )
       309           C   tau( 309) = (  0.9374985  0.4374985  0.4374985  )
       310           C   tau( 310) = (  0.9374985  0.4374985  0.6874985  )
       311           C   tau( 311) = (  0.9374985  0.4374985  0.9374985  )
       312           C   tau( 312) = (  0.9374985  0.6874985  0.1874985  )
       313           C   tau( 313) = (  0.9374985  0.6874985  0.4374985  )
       314           C   tau( 314) = (  0.9374985  0.6874985  0.6874985  )
       315           C   tau( 315) = (  0.9374985  0.6874985  0.9374985  )
       316           C   tau( 316) = (  0.9374985  0.9374985  0.1874985  )
       317           C   tau( 317) = (  0.9374985  0.9374985  0.4374985  )
       318           C   tau( 318) = (  0.9374985  0.9374985  0.6874985  )
       319           C   tau( 319) = (  0.9374985  0.9374985  0.9374985  )
       320           C   tau( 320) = (  0.1250000  0.0000000  0.0000000  )
       321           C   tau( 321) = (  0.1250000  0.0000000  0.2500000  )
       322           C   tau( 322) = (  0.1250000  0.0000000  0.5000000  )
       323           C   tau( 323) = (  0.1250000  0.0000000  0.7500000  )
       324           C   tau( 324) = (  0.1250000  0.2500000  0.0000000  )
       325           C   tau( 325) = (  0.1250000  0.2500000  0.2500000  )
       326           C   tau( 326) = (  0.1250000  0.2500000  0.5000000  )
       327           C   tau( 327) = (  0.1250000  0.2500000  0.7500000  )
       328           C   tau( 328) = (  0.1250000  0.5000000  0.0000000  )
       329           C   tau( 329) = (  0.1250000  0.5000000  0.2500000  )
       330           C   tau( 330) = (  0.1250000  0.5000000  0.5000000  )
       331           C   tau( 331) = (  0.1250000  0.5000000  0.7500000  )
       332           C   tau( 332) = (  0.1250000  0.7500000  0.0000000  )
       333           C   tau( 333) = (  0.1250000  0.7500000  0.2500000  )
       334           C   tau( 334) = (  0.1250000  0.7500000  0.5000000  )
       335           C   tau( 335) = (  0.1250000  0.7500000  0.7500000  )
       336           C   tau( 336) = (  0.3750000  0.0000000  0.0000000  )
       337           C   tau( 337) = (  0.3750000  0.0000000  0.2500000  )
       338           C   tau( 338) = (  0.3750000  0.0000000  0.5000000  )
       339           C   tau( 339) = (  0.3750000  0.0000000  0.7500000  )
       340           C   tau( 340) = (  0.3750000  0.2500000  0.0000000  )
       341           C   tau( 341) = (  0.3750000  0.2500000  0.2500000  )
       342           C   tau( 342) = (  0.3750000  0.2500000  0.5000000  )
       343           C   tau( 343) = (  0.3750000  0.2500000  0.7500000  )
       344           C   tau( 344) = (  0.3750000  0.5000000  0.0000000  )
       345           C   tau( 345) = (  0.3750000  0.5000000  0.2500000  )
       346           C   tau( 346) = (  0.3750000  0.5000000  0.5000000  )
       347           C   tau( 347) = (  0.3750000  0.5000000  0.7500000  )
       348           C   tau( 348) = (  0.3750000  0.7500000  0.0000000  )
       349           C   tau( 349) = (  0.3750000  0.7500000  0.2500000  )
       350           C   tau( 350) = (  0.3750000  0.7500000  0.5000000  )
       351           C   tau( 351) = (  0.3750000  0.7500000  0.7500000  )
       352           C   tau( 352) = (  0.6250000  0.0000000  0.0000000  )
       353           C   tau( 353) = (  0.6250000  0.0000000  0.2500000  )
       354           C   tau( 354) = (  0.6250000  0.0000000  0.5000000  )
       355           C   tau( 355) = (  0.6250000  0.0000000  0.7500000  )
       356           C   tau( 356) = (  0.6250000  0.2500000  0.0000000  )
       357           C   tau( 357) = (  0.6250000  0.2500000  0.2500000  )
       358           C   tau( 358) = (  0.6250000  0.2500000  0.5000000  )
       359           C   tau( 359) = (  0.6250000  0.2500000  0.7500000  )
       360           C   tau( 360) = (  0.6250000  0.5000000  0.0000000  )
       361           C   tau( 361) = (  0.6250000  0.5000000  0.2500000  )
       362           C   tau( 362) = (  0.6250000  0.5000000  0.5000000  )
       363           C   tau( 363) = (  0.6250000  0.5000000  0.7500000  )
       364           C   tau( 364) = (  0.6250000  0.7500000  0.0000000  )
       365           C   tau( 365) = (  0.6250000  0.7500000  0.2500000  )
       366           C   tau( 366) = (  0.6250000  0.7500000  0.5000000  )
       367           C   tau( 367) = (  0.6250000  0.7500000  0.7500000  )
       368           C   tau( 368) = (  0.8750000  0.0000000  0.0000000  )
       369           C   tau( 369) = (  0.8750000  0.0000000  0.2500000  )
       370           C   tau( 370) = (  0.8750000  0.0000000  0.5000000  )
       371           C   tau( 371) = (  0.8750000  0.0000000  0.7500000  )
       372           C   tau( 372) = (  0.8750000  0.2500000  0.0000000  )
       373           C   tau( 373) = (  0.8750000  0.2500000  0.2500000  )
       374           C   tau( 374) = (  0.8750000  0.2500000  0.5000000  )
       375           C   tau( 375) = (  0.8750000  0.2500000  0.7500000  )
       376           C   tau( 376) = (  0.8750000  0.5000000  0.0000000  )
       377           C   tau( 377) = (  0.8750000  0.5000000  0.2500000  )
       378           C   tau( 378) = (  0.8750000  0.5000000  0.5000000  )
       379           C   tau( 379) = (  0.8750000  0.5000000  0.7500000  )
       380           C   tau( 380) = (  0.8750000  0.7500000  0.0000000  )
       381           C   tau( 381) = (  0.8750000  0.7500000  0.2500000  )
       382           C   tau( 382) = (  0.8750000  0.7500000  0.5000000  )
       383           C   tau( 383) = (  0.8750000  0.7500000  0.7500000  )
       384           C   tau( 384) = (  0.1874985  0.0625015  0.0625015  )
       385           C   tau( 385) = (  0.1874985  0.0625015  0.3125015  )
       386           C   tau( 386) = (  0.1874985  0.0625015  0.5625015  )
       387           C   tau( 387) = (  0.1874985  0.0625015  0.8125015  )
       388           C   tau( 388) = (  0.1874985  0.3125015  0.0625015  )
       389           C   tau( 389) = (  0.1874985  0.3125015  0.3125015  )
       390           C   tau( 390) = (  0.1874985  0.3125015  0.5625015  )
       391           C   tau( 391) = (  0.1874985  0.3125015  0.8125015  )
       392           C   tau( 392) = (  0.1874985  0.5625015  0.0625015  )
       393           C   tau( 393) = (  0.1874985  0.5625015  0.3125015  )
       394           C   tau( 394) = (  0.1874985  0.5625015  0.5625015  )
       395           C   tau( 395) = (  0.1874985  0.5625015  0.8125015  )
       396           C   tau( 396) = (  0.1874985  0.8125015  0.0625015  )
       397           C   tau( 397) = (  0.1874985  0.8125015  0.3125015  )
       398           C   tau( 398) = (  0.1874985  0.8125015  0.5625015  )
       399           C   tau( 399) = (  0.1874985  0.8125015  0.8125015  )
       400           C   tau( 400) = (  0.4374985  0.0625015  0.0625015  )
       401           C   tau( 401) = (  0.4374985  0.0625015  0.3125015  )
       402           C   tau( 402) = (  0.4374985  0.0625015  0.5625015  )
       403           C   tau( 403) = (  0.4374985  0.0625015  0.8125015  )
       404           C   tau( 404) = (  0.4374985  0.3125015  0.0625015  )
       405           C   tau( 405) = (  0.4374985  0.3125015  0.3125015  )
       406           C   tau( 406) = (  0.4374985  0.3125015  0.5625015  )
       407           C   tau( 407) = (  0.4374985  0.3125015  0.8125015  )
       408           C   tau( 408) = (  0.4374985  0.5625015  0.0625015  )
       409           C   tau( 409) = (  0.4374985  0.5625015  0.3125015  )
       410           C   tau( 410) = (  0.4374985  0.5625015  0.5625015  )
       411           C   tau( 411) = (  0.4374985  0.5625015  0.8125015  )
       412           C   tau( 412) = (  0.4374985  0.8125015  0.0625015  )
       413           C   tau( 413) = (  0.4374985  0.8125015  0.3125015  )
       414           C   tau( 414) = (  0.4374985  0.8125015  0.5625015  )
       415           C   tau( 415) = (  0.4374985  0.8125015  0.8125015  )
       416           C   tau( 416) = (  0.6874985  0.0625015  0.0625015  )
       417           C   tau( 417) = (  0.6874985  0.0625015  0.3125015  )
       418           C   tau( 418) = (  0.6874985  0.0625015  0.5625015  )
       419           C   tau( 419) = (  0.6874985  0.0625015  0.8125015  )
       420           C   tau( 420) = (  0.6874985  0.3125015  0.0625015  )
       421           C   tau( 421) = (  0.6874985  0.3125015  0.3125015  )
       422           C   tau( 422) = (  0.6874985  0.3125015  0.5625015  )
       423           C   tau( 423) = (  0.6874985  0.3125015  0.8125015  )
[...]
              0.218247379947040E+03
              0.135497008672794E+02
              0.344724484248249E+02
              0.157821013464220E+03
              0.517422898709785E+02
             -0.986598975235089E+02
             -0.185006619783513E+03
              0.101159609896126E+01
             -0.217032510116964E+03
              0.740565166556393E+02
             -0.243048449055201E+02
             -0.747033811474330E+02
              0.682911023314446E+02
              0.329621423563819E+02
              0.779471282368681E+02
             -0.216628461979570E+01
              0.114866509503343E+03
             -0.209633939403509E+03
             -0.986636375724777E+01
             -0.190372509982402E+03
              0.611096239561305E+02
              0.929977524927618E+02
             -0.178514842604965E+02
             -0.553458347004808E+02
              0.162441114256653E+03
             -0.732268830006068E+02
              0.511527380781723E+02
             -0.341856158384965E+02
              0.127874214987165E+03
              0.106182892487275E+03
             -0.482323050659838E+02
              0.109490431634066E+03
              0.409958946027293E+02
             -0.112430443775285E+03
             -0.559464808820454E+02
              0.171970538818120E+03
              0.815089222439542E+02
              0.460117852419444E+00
             -0.224975153021612E+02
              0.272494911954508E+03
              0.156212106906491E+03
              0.504175135686939E+02
             -0.194064137151964E+03
              0.269489323401671E+03
             -0.141892203497328E+03
             -0.166632565026627E+03
             -0.226434321624283E+03
              0.112486235470609E+03
             -0.200034365007053E+03
              0.895040265383223E+02
              0.174817191748780E+03
              0.110959467681105E+03
              0.547647123576068E+02
              0.704920008662143E+02
             -0.178089512818464E+03
             -0.591814757397640E+02
             -0.501736032916863E+02
              0.958841167055444E+02
              0.162459986295427E+03
              0.189140193457757E+03
              0.158140393892298E+03
             -0.387310636061468E+02
              0.382683935418513E+02
             -0.152024306456756E+02
             -0.578823159575636E+02
              0.627032905832667E+02
              0.655754159772650E+02
             -0.919012218048667E+02
             -0.123457731903678E+03
             -0.434475018009100E+02
              0.156768222111049E+03
              0.779484946224583E+02
             -0.101658684156957E+03
             -0.134857365840831E+03
             -0.175933418199648E+03
             -0.786276270496563E+01
              0.377896322832178E+02
             -0.742200139429932E+02
              0.265550671737861E+03
              0.229025516326606E+02
             -0.317237686111424E+03
              0.709751835795241E+02
              0.154633642106855E+03
             -0.668877646830998E+02
              0.145953454474623E+02
             -0.101759901510267E+03
              0.124888277013593E+03
              0.473357452936421E+02
             -0.159937785945388E+03
              0.195545764085247E+03
             -0.175193588046487E+02
             -0.106278976802928E+03
             -0.101702327184017E+03
              0.368742829360008E+03
              0.178456642751433E+03
             -0.393712459373257E+02
              0.105544589895786E+03
             -0.139081199300032E+03
             -0.214689625122062E+02
             -0.166445628018518E+03
              0.717127052759338E+02
              0.953387250281748E+02
              0.129364425897585E+03
             -0.553750583320443E+02
              0.165218926555669E+02
              0.143383753332699E+03
              0.712785552205071E+02
              0.933678813513583E+02
              0.435144453859738E+02
             -0.353914121726852E+02
             -0.388890295287251E+01
             -0.249683447918698E+02
              0.369704815633404E+02
              0.148674464753742E+02
             -0.117643356796494E+03
              0.219119236560370E+03
              0.929560504582765E+02
             -0.142489470729565E+03
             -0.976188312147674E+02
             -0.159737510351369E+03
             -0.810902657896186E+02
             -0.512123431689417E+02
             -0.125366071362711E+03
             -0.127016556138919E+03
              0.195982069908676E+03
              0.132686388273901E+03
             -0.311564608685051E+02
              0.173077353156784E+03
              0.466880334764596E+02
             -0.301118328247050E+03
              0.155030768146077E+03
              0.458165872882651E+02
              0.141576152927192E+03
              0.364408779316596E+02
              0.383714455510049E+02
              0.329898124802201E+02
              0.863037788314844E+02
             -0.111693103828010E+03
             -0.642684157924866E+02
             -0.976904745716868E+02
             -0.687653058754372E+02
              0.415492477474523E+02
             -0.107090091682292E+03
              0.418875336134119E+02
              0.609612905250011E+02
             -0.731110781074326E+02
             -0.294413602114825E+02
             -0.813582415053946E+01
              0.188769117214988E+03
              0.143429321635200E+02
              0.204509837000345E+03
              0.530094783770971E+02
             -0.233222966691532E+03
             -0.904460583898863E+02
              0.792612714787576E+02
              0.154413683015227E+03
              0.581594092872769E+02
              0.607533696922439E+02
              0.164192572724358E+03
             -0.112074061502886E+03
             -0.174104575220854E+03
              0.204033771026204E+03
             -0.210247806078246E+02
             -0.232469047463417E+03
              0.780865162590480E+02
              0.150563725573208E+03
             -0.238386287342573E+02
             -0.118387038987951E+03
             -0.599241891701774E+01
              0.186468665690763E+02
             -0.713570277962724E+02
              0.387141563719197E+02
             -0.278951095061946E+02
              0.308979084159406E+03
              0.701998909904802E+02
             -0.154943716117563E+03
              0.451665053874926E+02
              0.206761659591608E+03
             -0.115371130398256E+03
             -0.611087565483155E+02
             -0.111576720223818E+03
              0.727510798345263E+02
              0.499310286287697E+02
              0.457443491307860E+02
             -0.195470770226871E+01
              0.220521283183100E+03
             -0.144264267086233E+03
             -0.109526677680828E+03
             -0.104677385272340E+03
              0.108744064608619E+03
              0.209589661408635E+03
             -0.654932991784028E+01
              0.900607364964633E+02
             -0.111721451538473E+03
             -0.108356356150204E+02
             -0.303954188390341E+02
             -0.449343426741813E+02
             -0.555513484016341E+02
             -0.577648637450710E+02
             -0.373138482966440E+02
              0.565943866270859E+02
              0.553454960767342E+02
             -0.157033060492135E+03
              0.109874189320331E+03
             -0.174513130468675E+03
              0.126421134301447E+03
             -0.172092325562894E+03
              0.258648842389639E+03
              0.127701861952663E+03
              0.126639609825282E+03
              0.265801367537492E+02
              0.153877744229458E+02
             -0.324469478177070E+03
              0.631520266861480E+02
              0.182448201583445E+02
              0.688594518532545E+01
             -0.404596077029313E+02
              0.232154109824084E+03
             -0.105218856234503E+03
             -0.839429762256206E+02
             -0.253750220406783E+03
             -0.860282398693430E+02
             -0.101092000919096E+03
             -0.106849961753077E+03
             -0.256951000833732E+02
             -0.458585563645656E+02
             -0.664716623849106E+02
             -0.107216774179097E+03
              0.806714218562292E+02
              0.254035554788506E+03
              0.220496482480564E+03
             -0.736962763616496E+02
             -0.274842849170235E+03
             -0.108864084963904E+03
              0.695859615927389E+02
              0.485276788344214E+02
              0.663933074391546E+02
              0.691411978649794E+02
              0.213042050051990E+02
              0.223592019727390E+03
             -0.588096932387267E+02
              0.133093098534515E+03
              0.431691455300381E+02
             -0.835002080629231E+02
             -0.584904708720779E+02
              0.112710337185462E+03
             -0.481780641267123E+02
             -0.560595129611417E+02
             -0.303336233348832E+02
              0.143768943439041E+03
             -0.179426121681870E+03
             -0.415616446084059E+02
             -0.156689185149285E+03
             -0.340170650239006E+03
              0.161995788755453E+02
             -0.347847030318922E+02
              0.119228965197533E+03
              0.127189435233395E+03
              0.192864888130912E+03
             -0.117571736049740E+03
              0.200261619365265E+03
              0.469972992599279E+02
             -0.379597013478879E+02
              0.417690726112151E+02
             -0.794252071197114E+02
             -0.515234330162261E+02
              0.978840287357225E+02
             -0.109432995533113E+03
              0.251731466695345E+03
             -0.620358720480885E+02
             -0.137463365108161E+03
              0.248521115364613E+03
             -0.145288254720662E+03
             -0.343641243265870E+02
              0.256754430509244E+02
              0.720609484436893E+02
             -0.115845671021614E+03
             -0.897486121618847E+02
              0.117338207088835E+03
             -0.224483037986768E+03
              0.148266834285613E+03
              0.266291862864416E+02
              0.117134302000136E+03
              0.161719724314121E+03
              0.215239957723388E+02
             -0.190175892137255E+03
             -0.954192053918520E+02
             -0.161712192538811E+03
             -0.955529444347621E+02
             -0.617759906352551E+02
              0.253217566133002E+02
             -0.527244795911193E+02
              0.141429172933274E+02
             -0.275851783042378E+03
             -0.996480943947881E+01
             -0.160997356667008E+03
              0.146791605413867E+03
             -0.625450435994547E+02
             -0.195527689620068E+02
              0.111786917211573E+03
              0.550774725959221E+01
              0.121742828206958E+03
             -0.189583175700893E+03
              0.469141309744691E+02
              0.265358746481020E+02
              0.627134125536494E+02
              0.152513422394276E+03
             -0.117717378797672E+02
             -0.178257280112032E+03
             -0.890361296631469E+02
             -0.639470453963306E+02
             -0.356964167477458E+02
              0.147048142346904E+03
              0.988623840346488E+02
             -0.770487277469326E+02
             -0.996662363530561E+02
              0.828981918460502E+02
              0.749527244032604E+02
             -0.190444714488513E+03
              0.601230830183052E+02
              0.143045028782154E+03
             -0.112528252575737E+02
              0.162239079285926E+03
              0.953379410193424E+02
              0.124208152035403E+03
              0.176600281515089E+03
              0.635264199852583E+01
             -0.290074296938300E+03
              0.264027441470775E+02
              0.315069108056068E+03
              0.209830079775457E+03
             -0.147939591798985E+03
              0.111154355683977E+02
              0.174714874207275E+03
              0.161296816586043E+03
              0.689077505870152E+02
             -0.495590345389939E+02
              0.765660179383406E+02
              0.189604865620396E+03
             -0.649896006488502E+02
             -0.626687883959734E+02
              0.108774241504625E+03
             -0.164319783890152E+02
              0.877782016839661E+02
              0.376748872543914E+00
              0.208818844335863E+03
             -0.704863534860006E+02
              0.291673472651289E+02
             -0.113131103753931E+03
              0.101803567254097E+03
             -0.126263090442028E+02
              0.162597010593092E+03
              0.114170657791856E+02
              0.452591752360657E+02
             -0.108559728273975E+03
             -0.593150438867631E+02
             -0.332892022945369E+02
             -0.136036294844830E+02
              0.171360202348290E+03
              0.487989731960124E+02
              0.226415355992083E+03
              0.133725982380384E+03
              0.209989966411138E+02
             -0.116350569126809E+00
              0.205606092477733E+03
              0.107558583114759E+03
              0.135068287026546E+02
              0.190077415651895E+03
             -0.169216839191084E+03
              0.708507104404559E+02
             -0.899892876058611E+02
             -0.683534860875061E+02
              0.246582025321033E+03
             -0.400557412991311E+02
              0.236460037882875E+01
             -0.391559730561727E+02
              0.205938797089120E+03
             -0.576497287165213E+02
             -0.577996751741932E+01
              0.426749503284270E+03
             -0.153694901785576E+03
             -0.124884866288476E+03
             -0.160248373604231E+03
             -0.753495977812281E+02
              0.876886447331198E+02
             -0.400030531765894E+02
              0.370906938625619E+02
              0.157135663503777E+01
              0.537237474600519E+02
              0.864269973591593E+02
              0.816523608557628E+02
              0.173964065288891E+03
              0.711013954726744E+02
              0.121255037452279E+03
             -0.173594753344645E+03
             -0.135244420814336E+03
             -0.550742401370755E+02
             -0.148769835137812E+03
              0.268155454119424E+03
              0.230015213609669E+03
              0.999574383267572E+02
              0.271161821860435E+03
             -0.145445778795488E+03
             -0.699736192372110E+02
             -0.722235654133372E+02
              0.213960837471065E+03
 
 BEEF-vdW xc energy contributions
            1 :    -2090.899595360588     
            2 :     1844.690235382816     
            3 :    -1420.163185008550     
            4 :     927.4646296520200     
            5 :    -479.0184390577360     
            6 :     152.3645196835487     
            7 :     29.28181080221339     
            8 :    -92.78985659663613     
            9 :     92.22989829427252     
           10 :    -80.02945495103813     
           11 :     85.76686680240437     
           12 :    -110.5997867134165     
           13 :     136.6580940092149     
           14 :    -143.6395893599920     
           15 :     122.6798319676345     
           16 :    -80.76568586052144     
           17 :     35.13125343250749     
           18 :    -2.557976364802016     
           19 :    -9.528365054512051     
           20 :     5.379778178023116     
           21 :     3.662696319876886     
           22 :    -7.006639180509410     
           23 :    0.8916507026624458     
           24 :     10.56254344191802     
           25 :    -19.22790231066983     
           26 :     18.75854829164382     
           27 :    -8.550027009533096     
           28 :    -6.309993754457537     
           29 :     18.59030668903870     
           30 :    -23.38840034258919     
           31 :    -273.5607666407773     
           32 :    -198.4629250052958     

     Writing all to output data dir ./diamond.save/
 
     init_run     :     20.23s CPU     26.13s WALL (       1 calls)
     electrons    :    554.59s CPU    601.86s WALL (       1 calls)
     forces       :      7.78s CPU      8.24s WALL (       1 calls)
     stress       :    104.41s CPU    105.35s WALL (       1 calls)

     Called by init_run:
     wfcinit      :     16.62s CPU     22.16s WALL (       1 calls)
     potinit      :      0.93s CPU      1.04s WALL (       1 calls)
     hinit0       :      1.40s CPU      1.54s WALL (       1 calls)

     Called by electrons:
     c_bands      :    532.75s CPU    579.33s WALL (       2 calls)
     sum_band     :     19.72s CPU     20.15s WALL (       2 calls)
     v_of_rho     :      1.26s CPU      1.29s WALL (       2 calls)
     v_h          :      0.02s CPU      0.02s WALL (       2 calls)
     v_xc         :     20.57s CPU     20.81s WALL (      38 calls)
     newd         :      0.17s CPU      0.27s WALL (       2 calls)
     PAW_pot      :      0.24s CPU      0.24s WALL (       2 calls)
     mix_rho      :      0.00s CPU      0.00s WALL (       2 calls)
     vdW_kernel   :      0.15s CPU      0.16s WALL (       1 calls)

     Called by c_bands:
     init_us_2    :      0.12s CPU      0.13s WALL (       4 calls)
     init_us_2:cp :      0.12s CPU      0.13s WALL (       4 calls)
     cegterg      :    530.40s CPU    575.11s WALL (       2 calls)

     Called by sum_band:
     sum_band:wei :      0.00s CPU      0.00s WALL (       2 calls)
     sum_band:loo :     19.42s CPU     19.61s WALL (       2 calls)
     sum_band:buf :      0.00s CPU      0.00s WALL (       2 calls)
     sum_band:ini :      0.11s CPU      0.12s WALL (       2 calls)
     sum_band:cal :      2.95s CPU      2.98s WALL (       2 calls)
     sum_band:bec :      0.08s CPU      0.08s WALL (       2 calls)
     addusdens    :      0.17s CPU      0.27s WALL (       2 calls)
     addusd:skk   :      0.05s CPU      0.15s WALL (       2 calls)
     addusd:dgemm :      0.11s CPU      0.11s WALL (       2 calls)
     addusd:qvan2 :      0.01s CPU      0.01s WALL (       2 calls)

     Called by *egterg:
     cdiaghg      :    398.15s CPU    438.54s WALL (      13 calls)
     cegterg:over :      7.52s CPU      8.13s WALL (      13 calls)
     cegterg:upda :      3.52s CPU      3.58s WALL (      13 calls)
     cegterg:last :      1.47s CPU      1.49s WALL (       2 calls)
     h_psi        :     95.60s CPU     96.92s WALL (      15 calls)
     s_psi        :      6.27s CPU      6.59s WALL (      15 calls)
     g_psi        :      0.02s CPU      0.02s WALL (      13 calls)

     Called by h_psi:
     h_psi:calbec :      7.79s CPU      7.86s WALL (      15 calls)
     vloc_psi     :     81.50s CPU     82.33s WALL (      15 calls)
     vloc_psi:tg_ :      0.00s CPU      0.00s WALL (      15 calls)
     add_vuspsi   :      6.25s CPU      6.62s WALL (      15 calls)

     General routines
     calbec       :     18.12s CPU     18.28s WALL (      22 calls)
     fft          :     17.63s CPU     17.81s WALL (    2232 calls)
     ffts         :      0.03s CPU      0.03s WALL (       4 calls)
     fftw         :     97.15s CPU     98.12s WALL (   14966 calls)
     interpolate  :      0.04s CPU      0.04s WALL (       2 calls)
 
     Parallel routines
     fft_scatt_xy :      1.09s CPU      1.10s WALL (   17202 calls)
     fft_scatt_yz :    107.59s CPU    108.64s WALL (   17202 calls)
     fft_scatt_tg :      0.05s CPU      0.05s WALL (   14966 calls)

     PAW routines
     PAW_pot      :      0.24s CPU      0.24s WALL (       2 calls)
     PAW_symme    :      0.00s CPU      0.00s WALL (       3 calls)
 
     PWSCF        :  12m 1.25s CPU  13m 1.80s WALL

 
   This run was terminated on:  14:51:18   9Jan2024            

=------------------------------------------------------------------------------=
   JOB DONE.
=------------------------------------------------------------------------------=
