
     Program PWSCF v.7.1 starts on  2Mar2024 at  9:57:46 

     This program is part of the open-source Quantum ESPRESSO suite
     for quantum simulation of materials; please cite
         "P. Giannozzi et al., J. Phys.:Condens. Matter 21 395502 (2009);
         "P. Giannozzi et al., J. Phys.:Condens. Matter 29 465901 (2017);
         "P. Giannozzi et al., J. Chem. Phys. 152 154105 (2020);
          URL http://www.quantum-espresso.org", 
     in publications or presentations arising from this work. More details at
     http://www.quantum-espresso.org/quote

     Parallel version (MPI & OpenMP), running on     256 processor cores
     Number of MPI processes:               256
     Threads/MPI process:                     1

     MPI processes distributed on     2 nodes
     1912436 MiB available memory on the printing compute node when the environment starts
 
     Reading input from espresso.pwi
Warning: card &CELL ignored
Warning: card    CELL_DYNAMICS    = 'BFGS' ignored
Warning: card / ignored

     Current dimensions of program PWSCF are:
     Max number of different atomic species (ntypx) = 10
     Max number of k-points (npk) =  40000
     Max angular momentum in pseudopotentials (lmaxx) =  4
     file Ga.pbe-dn-kjpaw_psl.1.0.0.UPF: wavefunction(s)  4S renormalized
     file N.pbe-n-kjpaw_psl.1.0.0.UPF: wavefunction(s)  2S renormalized

     **************************************************************************
     Initializing libbeef V0.1.2 with the BEEF-vdW functional.
     Citation: Wellendorff et al., PRB 85, 235149 (2012).
     **************************************************************************


     IMPORTANT: XC functional enforced from input :
     Exchange-correlation= BEEF-VDW
                           (   1   4  43  14   2   0   0)
     Any further DFT definition will be discarded
     Please, verify this is what you really want

 
     K-points division:     npool     =       4
     R & G space division:  proc/nbgrp/npool/nimage =      64
     Subspace diagonalization in iterative solution of the eigenvalue problem:
     a serial algorithm will be used

 
     Parallelization info
     --------------------
     sticks:   dense  smooth     PW     G-vecs:    dense   smooth      PW
     Min         226     181     47                26979    19303    2571
     Max         228     182     48                26983    19308    2576
     Sum       14527   11629   3037              1726709  1235535  164709
 
     Using Slab Decomposition
 


     bravais-lattice index     =            4
     lattice parameter (alat)  =      24.5252  a.u.
     unit-cell volume          =   15616.6055 (a.u.)^3
     number of atoms/cell      =          192
     number of atomic types    =            2
     number of electrons       =      1719.00
     number of Kohn-Sham states=         1032
     kinetic-energy cutoff     =      70.0000  Ry
     charge density cutoff     =     350.0000  Ry
     scf convergence threshold =      1.0E-07
     mixing beta               =       0.7000
     number of iterations used =            8  plain     mixing
     Exchange-correlation= BEEF-VDW
                           (   1   4  43  14   2   0   0)

     celldm(1)=  24.525232  celldm(2)=   0.000000  celldm(3)=   1.222409
     celldm(4)=   0.000000  celldm(5)=   0.000000  celldm(6)=   0.000000

     crystal axes: (cart. coord. in units of alat)
               a(1) = (   1.000000   0.000000   0.000000 )  
               a(2) = (  -0.500000   0.866025   0.000000 )  
               a(3) = (   0.000000   0.000000   1.222409 )  

     reciprocal axes: (cart. coord. in units 2 pi/alat)
               b(1) = (  1.000000  0.577350 -0.000000 )  
               b(2) = (  0.000000  1.154701  0.000000 )  
               b(3) = (  0.000000 -0.000000  0.818057 )  


     PseudoPot. # 1 for Ga read from file:
     //group///packages/espresso/pseudo/psl_1.0.0/pslibrary.1.0.0/pbe/PSEUDOPOTENTIALS/Ga.pbe-dn-kjpaw_psl.1.0.0.UPF
     MD5 check sum: cd2a01e492f15b435d17032472d8505c
     Pseudo is Projector augmented-wave + core cor, Zval = 13.0
     Generated using 'atomic' code by A. Dal Corso  v.7.1
     Shape of augmentation charge: PSQ
     Using radial grid of 1205 points,  6 beta functions with: 
                l(1) =   0
                l(2) =   0
                l(3) =   1
                l(4) =   1
                l(5) =   2
                l(6) =   2
     Q(r) pseudized with 0 coefficients 


     PseudoPot. # 2 for N  read from file:
     //group///packages/espresso/pseudo/psl_1.0.0/pslibrary.1.0.0/pbe/PSEUDOPOTENTIALS/N.pbe-n-kjpaw_psl.1.0.0.UPF
     MD5 check sum: f77f775694dac7e2c3fe1c82443d1a16
     Pseudo is Projector augmented-wave + core cor, Zval =  5.0
     Generated using 'atomic' code by A. Dal Corso  v.7.1
     Shape of augmentation charge: PSQ
     Using radial grid of 1085 points,  4 beta functions with: 
                l(1) =   0
                l(2) =   0
                l(3) =   1
                l(4) =   1
     Q(r) pseudized with 0 coefficients 


     atomic species   valence    mass     pseudopotential
        Ga            13.00    69.72300     Ga( 1.00)
        N              5.00    14.00700     N ( 1.00)

      6 Sym. Ops. (no inversion) found ( 4 have fractional translation)


                                    s                        frac. trans.

      isym =  1     identity                                     

 cryst.   s( 1) = (     1          0          0      )
                  (     0          1          0      )
                  (     0          0          1      )

 cart.    s( 1) = (  1.0000000  0.0000000  0.0000000 )
                  (  0.0000000  1.0000000  0.0000000 )
                  (  0.0000000  0.0000000  1.0000000 )


      isym =  2     120 deg rotation - cryst. axis [0,0,1]       

 cryst.   s( 2) = (     0          1          0      )    f =( -0.2500000 )
                  (    -1         -1          0      )       (  0.0000002 )
                  (     0          0          1      )       (  0.0000000 )

 cart.    s( 2) = ( -0.5000000 -0.8660254  0.0000000 )    f =( -0.2500001 )
                  (  0.8660254 -0.5000000  0.0000000 )       (  0.0000002 )
                  (  0.0000000  0.0000000  1.0000000 )       (  0.0000000 )


      isym =  3     120 deg rotation - cryst. axis [0,0,-1]      

 cryst.   s( 3) = (    -1         -1          0      )    f =( -0.2500002 )
                  (     1          0          0      )       ( -0.2500000 )
                  (     0          0          1      )       (  0.0000000 )

 cart.    s( 3) = ( -0.5000000  0.8660254  0.0000000 )    f =( -0.1250002 )
                  ( -0.8660254 -0.5000000  0.0000000 )       ( -0.2165064 )
                  (  0.0000000  0.0000000  1.0000000 )       (  0.0000000 )


      isym =  4     inv. 180 deg rotation - cart. axis [1,0,0]   

 cryst.   s( 4) = (    -1          0          0      )    f =( -0.2500002 )
                  (     1          1          0      )       (  0.0000000 )
                  (     0          0          1      )       (  0.0000000 )

 cart.    s( 4) = ( -1.0000000  0.0000000  0.0000000 )    f =( -0.2500002 )
                  (  0.0000000  1.0000000  0.0000000 )       (  0.0000000 )
                  (  0.0000000  0.0000000  1.0000000 )       (  0.0000000 )


      isym =  5     inv. 180 deg rotation - cryst. axis [0,1,0]  

 cryst.   s( 5) = (     1          1          0      )
                  (     0         -1          0      )
                  (     0          0          1      )

 cart.    s( 5) = (  0.5000000  0.8660254  0.0000000 )
                  (  0.8660254 -0.5000000  0.0000000 )
                  (  0.0000000  0.0000000  1.0000000 )


      isym =  6     inv. 180 deg rotation - cryst. axis [1,1,0]  

 cryst.   s( 6) = (     0         -1          0      )    f =( -0.2500000 )
                  (    -1          0          0      )       ( -0.2500000 )
                  (     0          0          1      )       (  0.0000000 )

 cart.    s( 6) = (  0.5000000 -0.8660254  0.0000000 )    f =( -0.1250000 )
                  ( -0.8660254 -0.5000000  0.0000000 )       ( -0.2165064 )
                  (  0.0000000  0.0000000  1.0000000 )       (  0.0000000 )


     point group C_3v (3m)  
     there are  3 classes
     the character table:

       E     2C3   3s_v 
A_1    1.00  1.00  1.00
A_2    1.00  1.00 -1.00
E      2.00 -1.00  0.00

     the symmetry operations in each class and the name of the first element:

     E        1
          identity                                               
     2C3      2    3
          120 deg rotation - cryst. axis [0,0,1]                 
     3s_v     4    5    6
          inv. 180 deg rotation - cart. axis [1,0,0]             

   Cartesian axes

     site n.     atom                  positions (alat units)
         1           Ga  tau(   1) = (   0.1250001   0.0721687   0.6108633  )
         2           Ga  tau(   2) = (   0.1250001   0.0721687   1.0183331  )
         3           Ga  tau(   3) = (   0.0000001   0.2886751   0.2033935  )
         4           Ga  tau(   4) = (   0.0000001   0.2886751   0.6108633  )
         5           Ga  tau(   5) = (   0.0000001   0.2886751   1.0183331  )
         6           Ga  tau(   6) = (  -0.1249999   0.5051814   0.2033935  )
         7           Ga  tau(   7) = (  -0.1249999   0.5051814   0.6108633  )
         8           Ga  tau(   8) = (  -0.1249999   0.5051814   1.0183331  )
         9           Ga  tau(   9) = (  -0.2499999   0.7216878   0.2033935  )
        10           Ga  tau(  10) = (  -0.2499999   0.7216878   0.6108633  )
        11           Ga  tau(  11) = (  -0.2499999   0.7216878   1.0183331  )
        12           Ga  tau(  12) = (   0.3750001   0.0721687   0.2033935  )
        13           Ga  tau(  13) = (   0.3750001   0.0721687   0.6108633  )
        14           Ga  tau(  14) = (   0.3750001   0.0721687   1.0183331  )
        15           Ga  tau(  15) = (   0.2500001   0.2886751   0.2033935  )
        16           Ga  tau(  16) = (   0.2500001   0.2886751   0.6108633  )
        17           Ga  tau(  17) = (   0.2500001   0.2886751   1.0183331  )
        18           Ga  tau(  18) = (   0.1250001   0.5051814   0.2033935  )
        19           Ga  tau(  19) = (   0.1250001   0.5051814   0.6108633  )
        20           Ga  tau(  20) = (   0.1250001   0.5051814   1.0183331  )
        21           Ga  tau(  21) = (   0.0000001   0.7216878   0.2033935  )
        22           Ga  tau(  22) = (   0.0000001   0.7216878   0.6108633  )
        23           Ga  tau(  23) = (   0.0000001   0.7216878   1.0183331  )
        24           Ga  tau(  24) = (   0.6250001   0.0721687   0.2033935  )
        25           Ga  tau(  25) = (   0.6250001   0.0721687   0.6108633  )
        26           Ga  tau(  26) = (   0.6250001   0.0721687   1.0183331  )
        27           Ga  tau(  27) = (   0.5000001   0.2886751   0.2033935  )
        28           Ga  tau(  28) = (   0.5000001   0.2886751   0.6108633  )
        29           Ga  tau(  29) = (   0.5000001   0.2886751   1.0183331  )
        30           Ga  tau(  30) = (   0.3750001   0.5051814   0.2033935  )
        31           Ga  tau(  31) = (   0.3750001   0.5051814   0.6108633  )
        32           Ga  tau(  32) = (   0.3750001   0.5051814   1.0183331  )
        33           Ga  tau(  33) = (   0.2500001   0.7216878   0.2033935  )
        34           Ga  tau(  34) = (   0.2500001   0.7216878   0.6108633  )
        35           Ga  tau(  35) = (   0.2500001   0.7216878   1.0183331  )
        36           Ga  tau(  36) = (   0.8750001   0.0721687   0.2033935  )
        37           Ga  tau(  37) = (   0.8750001   0.0721687   0.6108633  )
        38           Ga  tau(  38) = (   0.8750001   0.0721687   1.0183331  )
        39           Ga  tau(  39) = (   0.7500001   0.2886751   0.2033935  )
        40           Ga  tau(  40) = (   0.7500001   0.2886751   0.6108633  )
        41           Ga  tau(  41) = (   0.7500001   0.2886751   1.0183331  )
        42           Ga  tau(  42) = (   0.6250001   0.5051814   0.2033935  )
        43           Ga  tau(  43) = (   0.6250001   0.5051814   0.6108633  )
        44           Ga  tau(  44) = (   0.6250001   0.5051814   1.0183331  )
        45           Ga  tau(  45) = (   0.5000001   0.7216878   0.2033935  )
        46           Ga  tau(  46) = (   0.5000001   0.7216878   0.6108633  )
        47           Ga  tau(  47) = (   0.5000001   0.7216878   1.0183331  )
        48           Ga  tau(  48) = (  -0.0000002   0.1443377   0.4071284  )
        49           Ga  tau(  49) = (  -0.0000002   0.1443377   0.8145982  )
        50           Ga  tau(  50) = (  -0.0000002   0.1443377   1.2220680  )
        51           Ga  tau(  51) = (  -0.1250002   0.3608440   0.4071284  )
        52           Ga  tau(  52) = (  -0.1250002   0.3608440   0.8145982  )
        53           Ga  tau(  53) = (  -0.1250002   0.3608440   1.2220680  )
        54           Ga  tau(  54) = (  -0.2500002   0.5773504   0.4071284  )
        55           Ga  tau(  55) = (  -0.2500002   0.5773504   0.8145982  )
        56           Ga  tau(  56) = (  -0.2500002   0.5773504   1.2220680  )
        57           Ga  tau(  57) = (  -0.3750001   0.7938567   0.4071284  )
        58           Ga  tau(  58) = (  -0.3750001   0.7938567   0.8145982  )
        59           Ga  tau(  59) = (  -0.3750001   0.7938567   1.2220680  )
        60           Ga  tau(  60) = (   0.2499998   0.1443377   0.4071284  )
        61           Ga  tau(  61) = (   0.2499998   0.1443377   0.8145982  )
        62           Ga  tau(  62) = (   0.2499998   0.1443377   1.2220680  )
        63           Ga  tau(  63) = (   0.1249998   0.3608440   0.4071284  )
        64           Ga  tau(  64) = (   0.1249998   0.3608440   0.8145982  )
        65           Ga  tau(  65) = (   0.1249998   0.3608440   1.2220680  )
        66           Ga  tau(  66) = (  -0.0000002   0.5773504   0.4071284  )
        67           Ga  tau(  67) = (  -0.0000002   0.5773504   0.8145982  )
        68           Ga  tau(  68) = (  -0.0000002   0.5773504   1.2220680  )
        69           Ga  tau(  69) = (  -0.1250002   0.7938567   0.4071284  )
        70           Ga  tau(  70) = (  -0.1250002   0.7938567   0.8145982  )
        71           Ga  tau(  71) = (  -0.1250002   0.7938567   1.2220680  )
        72           Ga  tau(  72) = (   0.4999998   0.1443377   0.4071284  )
        73           Ga  tau(  73) = (   0.4999998   0.1443377   0.8145982  )
        74           Ga  tau(  74) = (   0.4999998   0.1443377   1.2220680  )
        75           Ga  tau(  75) = (   0.3749998   0.3608440   0.4071284  )
        76           Ga  tau(  76) = (   0.3749998   0.3608440   0.8145982  )
        77           Ga  tau(  77) = (   0.3749998   0.3608440   1.2220680  )
        78           Ga  tau(  78) = (   0.2499998   0.5773504   0.4071284  )
        79           Ga  tau(  79) = (   0.2499998   0.5773504   0.8145982  )
        80           Ga  tau(  80) = (   0.2499998   0.5773504   1.2220680  )
        81           Ga  tau(  81) = (   0.1249998   0.7938567   0.4071284  )
        82           Ga  tau(  82) = (   0.1249998   0.7938567   0.8145982  )
        83           Ga  tau(  83) = (   0.1249998   0.7938567   1.2220680  )
        84           Ga  tau(  84) = (   0.7499998   0.1443377   0.4071284  )
        85           Ga  tau(  85) = (   0.7499998   0.1443377   0.8145982  )
        86           Ga  tau(  86) = (   0.7499998   0.1443377   1.2220680  )
        87           Ga  tau(  87) = (   0.6249998   0.3608440   0.4071284  )
        88           Ga  tau(  88) = (   0.6249998   0.3608440   0.8145982  )
        89           Ga  tau(  89) = (   0.6249998   0.3608440   1.2220680  )
        90           Ga  tau(  90) = (   0.4999998   0.5773504   0.4071284  )
        91           Ga  tau(  91) = (   0.4999998   0.5773504   0.8145982  )
        92           Ga  tau(  92) = (   0.4999998   0.5773504   1.2220680  )
        93           Ga  tau(  93) = (   0.3749998   0.7938567   0.4071284  )
        94           Ga  tau(  94) = (   0.3749998   0.7938567   0.8145982  )
        95           Ga  tau(  95) = (   0.3749998   0.7938567   1.2220680  )
        96           N   tau(  96) = (   0.1250001   0.0721687   0.3568774  )
        97           N   tau(  97) = (   0.1250001   0.0721687   0.7643472  )
        98           N   tau(  98) = (   0.1250001   0.0721687   1.1718169  )
        99           N   tau(  99) = (   0.0000001   0.2886751   0.3568774  )
       100           N   tau( 100) = (   0.0000001   0.2886751   0.7643472  )
       101           N   tau( 101) = (   0.0000001   0.2886751   1.1718169  )
       102           N   tau( 102) = (  -0.1249999   0.5051814   0.3568774  )
       103           N   tau( 103) = (  -0.1249999   0.5051814   0.7643472  )
       104           N   tau( 104) = (  -0.1249999   0.5051814   1.1718169  )
       105           N   tau( 105) = (  -0.2499999   0.7216878   0.3568774  )
       106           N   tau( 106) = (  -0.2499999   0.7216878   0.7643472  )
       107           N   tau( 107) = (  -0.2499999   0.7216878   1.1718169  )
       108           N   tau( 108) = (   0.3750001   0.0721687   0.3568774  )
       109           N   tau( 109) = (   0.3750001   0.0721687   0.7643472  )
       110           N   tau( 110) = (   0.3750001   0.0721687   1.1718169  )
       111           N   tau( 111) = (   0.2500001   0.2886751   0.3568774  )
       112           N   tau( 112) = (   0.2500001   0.2886751   0.7643472  )
       113           N   tau( 113) = (   0.2500001   0.2886751   1.1718169  )
       114           N   tau( 114) = (   0.1250001   0.5051814   0.3568774  )
       115           N   tau( 115) = (   0.1250001   0.5051814   0.7643472  )
       116           N   tau( 116) = (   0.1250001   0.5051814   1.1718169  )
       117           N   tau( 117) = (   0.0000001   0.7216878   0.3568774  )
       118           N   tau( 118) = (   0.0000001   0.7216878   0.7643472  )
       119           N   tau( 119) = (   0.0000001   0.7216878   1.1718169  )
       120           N   tau( 120) = (   0.6250001   0.0721687   0.3568774  )
       121           N   tau( 121) = (   0.6250001   0.0721687   0.7643472  )
       122           N   tau( 122) = (   0.6250001   0.0721687   1.1718169  )
       123           N   tau( 123) = (   0.5000001   0.2886751   0.3568774  )
       124           N   tau( 124) = (   0.5000001   0.2886751   0.7643472  )
       125           N   tau( 125) = (   0.5000001   0.2886751   1.1718169  )
       126           N   tau( 126) = (   0.3750001   0.5051814   0.3568774  )
       127           N   tau( 127) = (   0.3750001   0.5051814   0.7643472  )
       128           N   tau( 128) = (   0.3750001   0.5051814   1.1718169  )
       129           N   tau( 129) = (   0.2500001   0.7216878   0.3568774  )
       130           N   tau( 130) = (   0.2500001   0.7216878   0.7643472  )
       131           N   tau( 131) = (   0.2500001   0.7216878   1.1718169  )
       132           N   tau( 132) = (   0.8750001   0.0721687   0.3568774  )
       133           N   tau( 133) = (   0.8750001   0.0721687   0.7643472  )
       134           N   tau( 134) = (   0.8750001   0.0721687   1.1718169  )
       135           N   tau( 135) = (   0.7500001   0.2886751   0.3568774  )
       136           N   tau( 136) = (   0.7500001   0.2886751   0.7643472  )
       137           N   tau( 137) = (   0.7500001   0.2886751   1.1718169  )
       138           N   tau( 138) = (   0.6250001   0.5051814   0.3568774  )
       139           N   tau( 139) = (   0.6250001   0.5051814   0.7643472  )
       140           N   tau( 140) = (   0.6250001   0.5051814   1.1718169  )
       141           N   tau( 141) = (   0.5000001   0.7216878   0.3568774  )
       142           N   tau( 142) = (   0.5000001   0.7216878   0.7643472  )
       143           N   tau( 143) = (   0.5000001   0.7216878   1.1718169  )
       144           N   tau( 144) = (  -0.0000002   0.1443377   0.1531425  )
       145           N   tau( 145) = (  -0.0000002   0.1443377   0.5606123  )
       146           N   tau( 146) = (  -0.0000002   0.1443377   0.9680820  )
       147           N   tau( 147) = (  -0.1250002   0.3608440   0.1531425  )
       148           N   tau( 148) = (  -0.1250002   0.3608440   0.5606123  )
       149           N   tau( 149) = (  -0.1250002   0.3608440   0.9680820  )
       150           N   tau( 150) = (  -0.2500002   0.5773504   0.1531425  )
       151           N   tau( 151) = (  -0.2500002   0.5773504   0.5606123  )
       152           N   tau( 152) = (  -0.2500002   0.5773504   0.9680820  )
       153           N   tau( 153) = (  -0.3750001   0.7938567   0.1531425  )
       154           N   tau( 154) = (  -0.3750001   0.7938567   0.5606123  )
       155           N   tau( 155) = (  -0.3750001   0.7938567   0.9680820  )
       156           N   tau( 156) = (   0.2499998   0.1443377   0.1531425  )
       157           N   tau( 157) = (   0.2499998   0.1443377   0.5606123  )
       158           N   tau( 158) = (   0.2499998   0.1443377   0.9680820  )
       159           N   tau( 159) = (   0.1249998   0.3608440   0.1531425  )
       160           N   tau( 160) = (   0.1249998   0.3608440   0.5606123  )
       161           N   tau( 161) = (   0.1249998   0.3608440   0.9680820  )
       162           N   tau( 162) = (  -0.0000002   0.5773504   0.1531425  )
       163           N   tau( 163) = (  -0.0000002   0.5773504   0.5606123  )
       164           N   tau( 164) = (  -0.0000002   0.5773504   0.9680820  )
       165           N   tau( 165) = (  -0.1250002   0.7938567   0.1531425  )
       166           N   tau( 166) = (  -0.1250002   0.7938567   0.5606123  )
       167           N   tau( 167) = (  -0.1250002   0.7938567   0.9680820  )
       168           N   tau( 168) = (   0.4999998   0.1443377   0.1531425  )
       169           N   tau( 169) = (   0.4999998   0.1443377   0.5606123  )
       170           N   tau( 170) = (   0.4999998   0.1443377   0.9680820  )
       171           N   tau( 171) = (   0.3749998   0.3608440   0.1531425  )
       172           N   tau( 172) = (   0.3749998   0.3608440   0.5606123  )
       173           N   tau( 173) = (   0.3749998   0.3608440   0.9680820  )
       174           N   tau( 174) = (   0.2499998   0.5773504   0.1531425  )
       175           N   tau( 175) = (   0.2499998   0.5773504   0.5606123  )
       176           N   tau( 176) = (   0.2499998   0.5773504   0.9680820  )
       177           N   tau( 177) = (   0.1249998   0.7938567   0.1531425  )
       178           N   tau( 178) = (   0.1249998   0.7938567   0.5606123  )
       179           N   tau( 179) = (   0.1249998   0.7938567   0.9680820  )
       180           N   tau( 180) = (   0.7499998   0.1443377   0.1531425  )
       181           N   tau( 181) = (   0.7499998   0.1443377   0.5606123  )
       182           N   tau( 182) = (   0.7499998   0.1443377   0.9680820  )
       183           N   tau( 183) = (   0.6249998   0.3608440   0.1531425  )
       184           N   tau( 184) = (   0.6249998   0.3608440   0.5606123  )
       185           N   tau( 185) = (   0.6249998   0.3608440   0.9680820  )
       186           N   tau( 186) = (   0.4999998   0.5773504   0.1531425  )
       187           N   tau( 187) = (   0.4999998   0.5773504   0.5606123  )
       188           N   tau( 188) = (   0.4999998   0.5773504   0.9680820  )
       189           N   tau( 189) = (   0.3749998   0.7938567   0.1531425  )
       190           N   tau( 190) = (   0.3749998   0.7938567   0.5606123  )
       191           N   tau( 191) = (   0.3749998   0.7938567   0.9680820  )
       192           N   tau( 192) = (   0.1250001   0.0721687   0.2033935  )

   Crystallographic axes

     site n.     atom                  positions (cryst. coord.)
         1           Ga  tau(   1) = (  0.1666667  0.0833333  0.4997208  )
         2           Ga  tau(   2) = (  0.1666667  0.0833333  0.8330541  )
         3           Ga  tau(   3) = (  0.1666667  0.3333333  0.1663874  )
         4           Ga  tau(   4) = (  0.1666667  0.3333333  0.4997208  )
         5           Ga  tau(   5) = (  0.1666667  0.3333333  0.8330541  )
         6           Ga  tau(   6) = (  0.1666667  0.5833333  0.1663874  )
         7           Ga  tau(   7) = (  0.1666667  0.5833333  0.4997208  )
         8           Ga  tau(   8) = (  0.1666667  0.5833333  0.8330541  )
         9           Ga  tau(   9) = (  0.1666667  0.8333333  0.1663874  )
        10           Ga  tau(  10) = (  0.1666667  0.8333333  0.4997208  )
        11           Ga  tau(  11) = (  0.1666667  0.8333333  0.8330541  )
        12           Ga  tau(  12) = (  0.4166667  0.0833333  0.1663874  )
        13           Ga  tau(  13) = (  0.4166667  0.0833333  0.4997208  )
        14           Ga  tau(  14) = (  0.4166667  0.0833333  0.8330541  )
        15           Ga  tau(  15) = (  0.4166667  0.3333333  0.1663874  )
        16           Ga  tau(  16) = (  0.4166667  0.3333333  0.4997208  )
        17           Ga  tau(  17) = (  0.4166667  0.3333333  0.8330541  )
        18           Ga  tau(  18) = (  0.4166667  0.5833333  0.1663874  )
        19           Ga  tau(  19) = (  0.4166667  0.5833333  0.4997208  )
        20           Ga  tau(  20) = (  0.4166667  0.5833333  0.8330541  )
        21           Ga  tau(  21) = (  0.4166667  0.8333333  0.1663874  )
        22           Ga  tau(  22) = (  0.4166667  0.8333333  0.4997208  )
        23           Ga  tau(  23) = (  0.4166667  0.8333333  0.8330541  )
        24           Ga  tau(  24) = (  0.6666667  0.0833333  0.1663874  )
        25           Ga  tau(  25) = (  0.6666667  0.0833333  0.4997208  )
        26           Ga  tau(  26) = (  0.6666667  0.0833333  0.8330541  )
        27           Ga  tau(  27) = (  0.6666667  0.3333333  0.1663874  )
        28           Ga  tau(  28) = (  0.6666667  0.3333333  0.4997208  )
        29           Ga  tau(  29) = (  0.6666667  0.3333333  0.8330541  )
        30           Ga  tau(  30) = (  0.6666667  0.5833333  0.1663874  )
        31           Ga  tau(  31) = (  0.6666667  0.5833333  0.4997208  )
        32           Ga  tau(  32) = (  0.6666667  0.5833333  0.8330541  )
        33           Ga  tau(  33) = (  0.6666667  0.8333333  0.1663874  )
        34           Ga  tau(  34) = (  0.6666667  0.8333333  0.4997208  )
        35           Ga  tau(  35) = (  0.6666667  0.8333333  0.8330541  )
        36           Ga  tau(  36) = (  0.9166667  0.0833333  0.1663874  )
        37           Ga  tau(  37) = (  0.9166667  0.0833333  0.4997208  )
        38           Ga  tau(  38) = (  0.9166667  0.0833333  0.8330541  )
        39           Ga  tau(  39) = (  0.9166667  0.3333333  0.1663874  )
        40           Ga  tau(  40) = (  0.9166667  0.3333333  0.4997208  )
        41           Ga  tau(  41) = (  0.9166667  0.3333333  0.8330541  )
        42           Ga  tau(  42) = (  0.9166667  0.5833333  0.1663874  )
        43           Ga  tau(  43) = (  0.9166667  0.5833333  0.4997208  )
        44           Ga  tau(  44) = (  0.9166667  0.5833333  0.8330541  )
        45           Ga  tau(  45) = (  0.9166667  0.8333333  0.1663874  )
        46           Ga  tau(  46) = (  0.9166667  0.8333333  0.4997208  )
        47           Ga  tau(  47) = (  0.9166667  0.8333333  0.8330541  )
        48           Ga  tau(  48) = (  0.0833333  0.1666668  0.3330541  )
        49           Ga  tau(  49) = (  0.0833333  0.1666668  0.6663874  )
        50           Ga  tau(  50) = (  0.0833333  0.1666668  0.9997208  )
        51           Ga  tau(  51) = (  0.0833333  0.4166668  0.3330541  )
        52           Ga  tau(  52) = (  0.0833333  0.4166668  0.6663874  )
        53           Ga  tau(  53) = (  0.0833333  0.4166668  0.9997208  )
        54           Ga  tau(  54) = (  0.0833333  0.6666668  0.3330541  )
        55           Ga  tau(  55) = (  0.0833333  0.6666668  0.6663874  )
        56           Ga  tau(  56) = (  0.0833333  0.6666668  0.9997208  )
        57           Ga  tau(  57) = (  0.0833333  0.9166668  0.3330541  )
        58           Ga  tau(  58) = (  0.0833333  0.9166668  0.6663874  )
        59           Ga  tau(  59) = (  0.0833333  0.9166668  0.9997208  )
        60           Ga  tau(  60) = (  0.3333332  0.1666668  0.3330541  )
        61           Ga  tau(  61) = (  0.3333332  0.1666668  0.6663874  )
        62           Ga  tau(  62) = (  0.3333332  0.1666668  0.9997208  )
        63           Ga  tau(  63) = (  0.3333332  0.4166668  0.3330541  )
        64           Ga  tau(  64) = (  0.3333332  0.4166668  0.6663874  )
        65           Ga  tau(  65) = (  0.3333332  0.4166668  0.9997208  )
        66           Ga  tau(  66) = (  0.3333332  0.6666668  0.3330541  )
        67           Ga  tau(  67) = (  0.3333332  0.6666668  0.6663874  )
        68           Ga  tau(  68) = (  0.3333332  0.6666668  0.9997208  )
        69           Ga  tau(  69) = (  0.3333332  0.9166668  0.3330541  )
        70           Ga  tau(  70) = (  0.3333332  0.9166668  0.6663874  )
        71           Ga  tau(  71) = (  0.3333332  0.9166668  0.9997208  )
        72           Ga  tau(  72) = (  0.5833332  0.1666668  0.3330541  )
        73           Ga  tau(  73) = (  0.5833332  0.1666668  0.6663874  )
        74           Ga  tau(  74) = (  0.5833332  0.1666668  0.9997208  )
        75           Ga  tau(  75) = (  0.5833332  0.4166668  0.3330541  )
        76           Ga  tau(  76) = (  0.5833332  0.4166668  0.6663874  )
        77           Ga  tau(  77) = (  0.5833332  0.4166668  0.9997208  )
        78           Ga  tau(  78) = (  0.5833332  0.6666668  0.3330541  )
        79           Ga  tau(  79) = (  0.5833332  0.6666668  0.6663874  )
        80           Ga  tau(  80) = (  0.5833332  0.6666668  0.9997208  )
        81           Ga  tau(  81) = (  0.5833332  0.9166668  0.3330541  )
        82           Ga  tau(  82) = (  0.5833332  0.9166668  0.6663874  )
        83           Ga  tau(  83) = (  0.5833332  0.9166668  0.9997208  )
        84           Ga  tau(  84) = (  0.8333332  0.1666668  0.3330541  )
        85           Ga  tau(  85) = (  0.8333332  0.1666668  0.6663874  )
        86           Ga  tau(  86) = (  0.8333332  0.1666668  0.9997208  )
        87           Ga  tau(  87) = (  0.8333332  0.4166668  0.3330541  )
        88           Ga  tau(  88) = (  0.8333332  0.4166668  0.6663874  )
        89           Ga  tau(  89) = (  0.8333332  0.4166668  0.9997208  )
        90           Ga  tau(  90) = (  0.8333332  0.6666668  0.3330541  )
        91           Ga  tau(  91) = (  0.8333332  0.6666668  0.6663874  )
        92           Ga  tau(  92) = (  0.8333332  0.6666668  0.9997208  )
        93           Ga  tau(  93) = (  0.8333332  0.9166668  0.3330541  )
        94           Ga  tau(  94) = (  0.8333332  0.9166668  0.6663874  )
        95           Ga  tau(  95) = (  0.8333332  0.9166668  0.9997208  )
        96           N   tau(  96) = (  0.1666667  0.0833333  0.2919459  )
        97           N   tau(  97) = (  0.1666667  0.0833333  0.6252792  )
        98           N   tau(  98) = (  0.1666667  0.0833333  0.9586126  )
        99           N   tau(  99) = (  0.1666667  0.3333333  0.2919459  )
       100           N   tau( 100) = (  0.1666667  0.3333333  0.6252792  )
       101           N   tau( 101) = (  0.1666667  0.3333333  0.9586126  )
       102           N   tau( 102) = (  0.1666667  0.5833333  0.2919459  )
       103           N   tau( 103) = (  0.1666667  0.5833333  0.6252792  )
       104           N   tau( 104) = (  0.1666667  0.5833333  0.9586126  )
       105           N   tau( 105) = (  0.1666667  0.8333333  0.2919459  )
       106           N   tau( 106) = (  0.1666667  0.8333333  0.6252792  )
       107           N   tau( 107) = (  0.1666667  0.8333333  0.9586126  )
       108           N   tau( 108) = (  0.4166667  0.0833333  0.2919459  )
       109           N   tau( 109) = (  0.4166667  0.0833333  0.6252792  )
       110           N   tau( 110) = (  0.4166667  0.0833333  0.9586126  )
       111           N   tau( 111) = (  0.4166667  0.3333333  0.2919459  )
       112           N   tau( 112) = (  0.4166667  0.3333333  0.6252792  )
       113           N   tau( 113) = (  0.4166667  0.3333333  0.9586126  )
       114           N   tau( 114) = (  0.4166667  0.5833333  0.2919459  )
       115           N   tau( 115) = (  0.4166667  0.5833333  0.6252792  )
       116           N   tau( 116) = (  0.4166667  0.5833333  0.9586126  )
       117           N   tau( 117) = (  0.4166667  0.8333333  0.2919459  )
       118           N   tau( 118) = (  0.4166667  0.8333333  0.6252792  )
       119           N   tau( 119) = (  0.4166667  0.8333333  0.9586126  )
       120           N   tau( 120) = (  0.6666667  0.0833333  0.2919459  )
       121           N   tau( 121) = (  0.6666667  0.0833333  0.6252792  )
       122           N   tau( 122) = (  0.6666667  0.0833333  0.9586126  )
       123           N   tau( 123) = (  0.6666667  0.3333333  0.2919459  )
       124           N   tau( 124) = (  0.6666667  0.3333333  0.6252792  )
       125           N   tau( 125) = (  0.6666667  0.3333333  0.9586126  )
       126           N   tau( 126) = (  0.6666667  0.5833333  0.2919459  )
       127           N   tau( 127) = (  0.6666667  0.5833333  0.6252792  )
       128           N   tau( 128) = (  0.6666667  0.5833333  0.9586126  )
       129           N   tau( 129) = (  0.6666667  0.8333333  0.2919459  )
       130           N   tau( 130) = (  0.6666667  0.8333333  0.6252792  )
       131           N   tau( 131) = (  0.6666667  0.8333333  0.9586126  )
       132           N   tau( 132) = (  0.9166667  0.0833333  0.2919459  )
       133           N   tau( 133) = (  0.9166667  0.0833333  0.6252792  )
       134           N   tau( 134) = (  0.9166667  0.0833333  0.9586126  )
       135           N   tau( 135) = (  0.9166667  0.3333333  0.2919459  )
       136           N   tau( 136) = (  0.9166667  0.3333333  0.6252792  )
       137           N   tau( 137) = (  0.9166667  0.3333333  0.9586126  )
       138           N   tau( 138) = (  0.9166667  0.5833333  0.2919459  )
       139           N   tau( 139) = (  0.9166667  0.5833333  0.6252792  )
       140           N   tau( 140) = (  0.9166667  0.5833333  0.9586126  )
       141           N   tau( 141) = (  0.9166667  0.8333333  0.2919459  )
       142           N   tau( 142) = (  0.9166667  0.8333333  0.6252792  )
       143           N   tau( 143) = (  0.9166667  0.8333333  0.9586126  )
       144           N   tau( 144) = (  0.0833333  0.1666668  0.1252792  )
       145           N   tau( 145) = (  0.0833333  0.1666668  0.4586126  )
       146           N   tau( 146) = (  0.0833333  0.1666668  0.7919459  )
       147           N   tau( 147) = (  0.0833333  0.4166668  0.1252792  )
       148           N   tau( 148) = (  0.0833333  0.4166668  0.4586126  )
       149           N   tau( 149) = (  0.0833333  0.4166668  0.7919459  )
       150           N   tau( 150) = (  0.0833333  0.6666668  0.1252792  )
       151           N   tau( 151) = (  0.0833333  0.6666668  0.4586126  )
       152           N   tau( 152) = (  0.0833333  0.6666668  0.7919459  )
       153           N   tau( 153) = (  0.0833333  0.9166668  0.1252792  )
       154           N   tau( 154) = (  0.0833333  0.9166668  0.4586126  )
       155           N   tau( 155) = (  0.0833333  0.9166668  0.7919459  )
       156           N   tau( 156) = (  0.3333332  0.1666668  0.1252792  )
       157           N   tau( 157) = (  0.3333332  0.1666668  0.4586126  )
       158           N   tau( 158) = (  0.3333332  0.1666668  0.7919459  )
       159           N   tau( 159) = (  0.3333332  0.4166668  0.1252792  )
       160           N   tau( 160) = (  0.3333332  0.4166668  0.4586126  )
       161           N   tau( 161) = (  0.3333332  0.4166668  0.7919459  )
       162           N   tau( 162) = (  0.3333332  0.6666668  0.1252792  )
       163           N   tau( 163) = (  0.3333332  0.6666668  0.4586126  )
       164           N   tau( 164) = (  0.3333332  0.6666668  0.7919459  )
       165           N   tau( 165) = (  0.3333332  0.9166668  0.1252792  )
       166           N   tau( 166) = (  0.3333332  0.9166668  0.4586126  )
       167           N   tau( 167) = (  0.3333332  0.9166668  0.7919459  )
       168           N   tau( 168) = (  0.5833332  0.1666668  0.1252792  )
       169           N   tau( 169) = (  0.5833332  0.1666668  0.4586126  )
       170           N   tau( 170) = (  0.5833332  0.1666668  0.7919459  )
       171           N   tau( 171) = (  0.5833332  0.4166668  0.1252792  )
       172           N   tau( 172) = (  0.5833332  0.4166668  0.4586126  )
       173           N   tau( 173) = (  0.5833332  0.4166668  0.7919459  )
       174           N   tau( 174) = (  0.5833332  0.6666668  0.1252792  )
       175           N   tau( 175) = (  0.5833332  0.6666668  0.4586126  )
       176           N   tau( 176) = (  0.5833332  0.6666668  0.7919459  )
       177           N   tau( 177) = (  0.5833332  0.9166668  0.1252792  )
       178           N   tau( 178) = (  0.5833332  0.9166668  0.4586126  )
       179           N   tau( 179) = (  0.5833332  0.9166668  0.7919459  )
       180           N   tau( 180) = (  0.8333332  0.1666668  0.1252792  )
       181           N   tau( 181) = (  0.8333332  0.1666668  0.4586126  )
       182           N   tau( 182) = (  0.8333332  0.1666668  0.7919459  )
       183           N   tau( 183) = (  0.8333332  0.4166668  0.1252792  )
       184           N   tau( 184) = (  0.8333332  0.4166668  0.4586126  )
       185           N   tau( 185) = (  0.8333332  0.4166668  0.7919459  )
       186           N   tau( 186) = (  0.8333332  0.6666668  0.1252792  )
       187           N   tau( 187) = (  0.8333332  0.6666668  0.4586126  )
       188           N   tau( 188) = (  0.8333332  0.6666668  0.7919459  )
       189           N   tau( 189) = (  0.8333332  0.9166668  0.1252792  )
       190           N   tau( 190) = (  0.8333332  0.9166668  0.4586126  )
       191           N   tau( 191) = (  0.8333332  0.9166668  0.7919459  )
       192           N   tau( 192) = (  0.1666667  0.0833333  0.1663874  )

     number of k points=     4  Gaussian smearing, width (Ry)=  0.0100
                       cart. coord. in units 2pi/alat
        k(    1) = (   0.0000000   0.0000000   0.0000000), wk =   0.2500000
        k(    2) = (   0.0000000   0.0000000  -0.4090283), wk =   0.2500000
        k(    3) = (   0.0000000  -0.5773503   0.0000000), wk =   0.7500000
        k(    4) = (   0.0000000  -0.5773503  -0.4090283), wk =   0.7500000

                       cryst. coord.
        k(    1) = (   0.0000000   0.0000000   0.0000000), wk =   0.2500000
        k(    2) = (   0.0000000   0.0000000  -0.5000000), wk =   0.2500000
        k(    3) = (   0.0000000  -0.5000000   0.0000000), wk =   0.7500000
        k(    4) = (   0.0000000  -0.5000000  -0.5000000), wk =   0.7500000

     Dense  grid:  1726709 G-vectors     FFT dimensions: ( 160, 160, 180)

     Smooth grid:  1235535 G-vectors     FFT dimensions: ( 144, 144, 160)

     Dynamical RAM for                 wfc:      38.00 MB

     Dynamical RAM for     wfc (w. buffer):      38.00 MB

     Dynamical RAM for           str. fact:       0.82 MB

     Dynamical RAM for           local pot:       0.00 MB

     Dynamical RAM for          nlocal pot:      91.53 MB

     Dynamical RAM for                qrad:       3.00 MB

     Dynamical RAM for          rho,v,vnew:       2.99 MB

     Dynamical RAM for               rhoin:       1.00 MB

     Dynamical RAM for            rho*nmix:       6.59 MB

     Dynamical RAM for           G-vectors:       1.69 MB

     Dynamical RAM for          h,s,v(r/c):     780.05 MB

     Dynamical RAM for          <psi|beta>:      39.15 MB

     Dynamical RAM for                 psi:     151.99 MB

     Dynamical RAM for                hpsi:     151.99 MB

     Dynamical RAM for                spsi:     151.99 MB

     Dynamical RAM for      wfcinit/wfcrot:     100.38 MB

     Dynamical RAM for           addusdens:      29.44 MB

     Dynamical RAM for          addusforce:      49.47 MB

     Dynamical RAM for         addusstress:      20.84 MB

     Estimated static dynamical RAM per process >     143.20 MB

     Estimated max dynamical RAM per process >       1.39 GB

     Estimated total dynamical RAM >     355.00 GB

     Atomic positions and unit cell read from directory:
     ./GaN.save/
     Atomic positions from file used, from input discarded
 

     Check: negative core charge=   -0.000003

     The initial density is read from file :
     ./GaN.save/charge-density



     %%%%%%%%%%%%%%%%%%%%%%%%%%%%%%%%%%%%%%%%%%%%%%%%%%%%%%%%%%%%%%%%%%%%%%%%
     %                                                                      %
     % You are using vdW-DF, which was implemented by the Thonhauser group. %
     % Please cite the following two papers that made this development      %
     % possible and the two reviews that describe the various versions:     %
     %                                                                      %
     %   T. Thonhauser et al., PRL 115, 136402 (2015).                      %
     %   T. Thonhauser et al., PRB 76, 125112 (2007).                       %
     %   K. Berland et al., Rep. Prog. Phys. 78, 066501 (2015).             %
     %   D.C. Langreth et al., J. Phys.: Condens. Matter 21, 084203 (2009). %
     %                                                                      %
     % If you are calculating stress with vdW-DF, please also cite:         %
     %                                                                      %
     %   R. Sabatini et al., J. Phys.: Condens. Matter 24, 424209 (2012).   %
     %                                                                      %
     %%%%%%%%%%%%%%%%%%%%%%%%%%%%%%%%%%%%%%%%%%%%%%%%%%%%%%%%%%%%%%%%%%%%%%%%

     %%%%%%%%%%%%%%%%%%%%%%%%%%%%%%%%%%%%%%%%%%%%%%%%%%%%%%%%%%%%%%%%%%%%%%%%
     %                                                                      %
     %  vdW-DF NEWS:                                                        %
     %                                                                      %
     %  * vdW-DF3 is now available. DOI: 10.1021/acs.jctc.0c00471           %
     %    use with input_dft = 'vdW-DF3-opt1' or 'vdW-DF3-opt2'             %
     %                                                                      %
     %  * Unscreened and range-separated vdW-DF hybrid functionals          %
     %    DOI: 10.1063/1.4986522 and 10.1088/1361-648X/ac2ad2               %
     %    use with input_dft = 'vdW-DF-cx0' (etc) and 'vdW-DF-ahcx'         %
     %                                                                      %
     %%%%%%%%%%%%%%%%%%%%%%%%%%%%%%%%%%%%%%%%%%%%%%%%%%%%%%%%%%%%%%%%%%%%%%%%


     Carrying out vdW-DF run using the following parameters:
     Nqs    =  20  Npoints =  1024  r_max =  100.000
     q_mesh =  0.00001000  0.04494208  0.09755937  0.15916263
               0.23128650  0.31572767  0.41458969  0.53033537
               0.66584808  0.82450364  1.01025438  1.22772762
               1.48234092  1.78043706  2.12944203  2.53805004
               3.01644009  3.57652955  4.23227104  5.00000000


     -----------------------------------------------
     Non-local corr. energy    =      51.90416715 Ry
     -----------------------------------------------

     Starting wfcs from file
     Checking if some PAW data can be deallocated... 
       PAW data deallocated on   97 nodes for type:  1
       PAW data deallocated on  159 nodes for type:  2

     total cpu time spent up to now is       13.4 secs

     Self-consistent Calculation

     iteration #  1     ecut=    70.00 Ry     beta= 0.70
     Davidson diagonalization with overlap

---- Real-time Memory Report at c_bands before calling an iterative solver
           333 MiB given to the printing process from OS
             0 MiB allocation reported by mallinfo(arena+hblkhd)
       1887885 MiB available memory on the node where the printing process lives
------------------
     ethr =  1.00E-05,  avg # of iterations =  1.0

     Threshold (ethr) on eigenvalues was too large:
     Diagonalizing with lowered threshold

     Davidson diagonalization with overlap

---- Real-time Memory Report at c_bands before calling an iterative solver
          1074 MiB given to the printing process from OS
             0 MiB allocation reported by mallinfo(arena+hblkhd)
       1875158 MiB available memory on the node where the printing process lives
------------------
     ethr =  9.60E-13,  avg # of iterations = 17.3


     -----------------------------------------------
     Non-local corr. energy    =      51.90416628 Ry
     -----------------------------------------------


     total cpu time spent up to now is      404.9 secs

     End of self-consistent calculation

          k = 0.0000 0.0000 0.0000 (154543 PWs)   bands (ev):

   -11.0770  -6.9067  -6.7790  -6.7359  -6.7359  -6.7333  -6.6793  -6.6287
    -6.6182  -6.6182  -6.5789  -6.5741  -6.5741  -6.5649  -6.5649  -6.5515
    -6.5297  -6.5297  -6.5032  -6.5032  -6.4912  -6.4895  -6.4895  -6.4875
    -6.4778  -6.4764  -6.4698  -6.4653  -6.4652  -6.4648  -6.4626  -6.4626
    -6.4593  -6.4593  -6.4538  -6.4494  -6.4494  -6.4311  -6.4296  -6.4296
    -6.4265  -6.4228  -6.4167  -6.4167  -6.4137  -6.4053  -6.4053  -6.4012
    -6.4012  -6.4004  -6.3980  -6.3980  -6.3891  -6.3829  -6.3829  -6.3823
    -6.3817  -6.3817  -6.3753  -6.3753  -6.3723  -6.3690  -6.3637  -6.3637
    -6.3582  -6.3572  -6.3572  -6.3516  -6.3489  -6.3488  -6.3429  -6.3385
    -6.3384  -6.3343  -6.3343  -6.3339  -6.3291  -6.3237  -6.3237  -6.3206
    -6.3200  -6.3200  -6.3190  -6.3098  -6.3098  -6.3048  -6.3048  -6.3031
    -6.3019  -6.3007  -6.2977  -6.2977  -6.2663  -6.2559  -6.2559  -6.0162
    -5.6685  -5.6050  -5.6050  -5.6003  -5.5943  -5.5927  -5.5927  -5.5606
    -5.5606  -5.5482  -5.5482  -5.5391  -5.5391  -5.5376  -5.5375  -5.5310
    -5.4982  -5.4982  -5.4900  -5.4900  -5.4817  -5.4657  -5.4657  -5.4618
    -5.4457  -5.4413  -5.4413  -5.4382  -5.4229  -5.4229  -5.4123  -5.4088
    -5.4088  -5.3830  -5.3830  -5.3781  -5.3684  -5.3684  -5.3587  -5.3587
    -5.3584  -5.3431  -5.3384  -5.3384  -5.3277  -5.3264  -5.3264  -5.3232
    -5.3232  -5.3232  -5.3232  -5.3133  -5.3132  -5.3132  -5.3109  -5.3097
    -5.3097  -5.2893  -5.2838  -5.2837  -5.2777  -5.2767  -5.2767  -5.2745
    -5.2702  -5.2702  -5.2685  -5.2685  -5.2660  -5.2659  -5.2630  -5.2614
    -5.2604  -5.2604  -5.2583  -5.2549  -5.2549  -5.2496  -5.2495  -5.2495
    -5.2455  -5.2448  -5.2442  -5.2442  -5.2408  -5.2408  -5.2387  -5.2387
    -5.2354  -5.2313  -5.2313  -5.2301  -5.2301  -5.2281  -5.2268  -5.2268
    -5.2268  -5.2249  -5.2223  -5.2223  -5.2219  -5.2219  -5.2195  -5.2194
    -5.2194  -5.2170  -5.2149  -5.2148  -5.2130  -5.2130  -5.2124  -5.2102
    -5.2099  -5.2099  -5.2097  -5.2087  -5.2087  -5.2052  -5.2031  -5.2022
    -5.2022  -5.2018  -5.2012  -5.2012  -5.1996  -5.1996  -5.1987  -5.1974
    -5.1974  -5.1950  -5.1949  -5.1944  -5.1944  -5.1919  -5.1919  -5.1914
    -5.1904  -5.1904  -5.1897  -5.1886  -5.1886  -5.1880  -5.1874  -5.1874
    -5.1853  -5.1853  -5.1807  -5.1807  -5.1799  -5.1796  -5.1796  -5.1787
    -5.1737  -5.1712  -5.1711  -5.1703  -5.1698  -5.1698  -5.1697  -5.1686
    -5.1661  -5.1652  -5.1652  -5.1638  -5.1613  -5.1613  -5.1586  -5.1581
    -5.1581  -5.1566  -5.1563  -5.1563  -5.1544  -5.1544  -5.1544  -5.1534
    -5.1532  -5.1532  -5.1511  -5.1505  -5.1505  -5.1479  -5.1479  -5.1471
    -5.1471  -5.1454  -5.1445  -5.1440  -5.1434  -5.1434  -5.1425  -5.1425
    -5.1423  -5.1359  -5.1359  -5.1357  -5.1357  -5.1350  -5.1340  -5.1330
    -5.1330  -5.1302  -5.1302  -5.1288  -5.1275  -5.1266  -5.1262  -5.1256
    -5.1256  -5.1242  -5.1242  -5.1221  -5.1221  -5.1210  -5.1210  -5.1204
    -5.1204  -5.1162  -5.1159  -5.1159  -5.1155  -5.1155  -5.1138  -5.1138
    -5.1136  -5.1125  -5.1108  -5.1108  -5.1082  -5.1073  -5.1059  -5.1059
    -5.1055  -5.1042  -5.1042  -5.1037  -5.1037  -5.1035  -5.1035  -5.1010
    -5.1010  -5.0991  -5.0984  -5.0984  -5.0963  -5.0963  -5.0956  -5.0956
    -5.0956  -5.0925  -5.0925  -5.0914  -5.0909  -5.0909  -5.0883  -5.0860
    -5.0854  -5.0854  -5.0835  -5.0835  -5.0835  -5.0784  -5.0774  -5.0774
    -5.0768  -5.0742  -5.0742  -5.0731  -5.0731  -5.0694  -5.0692  -5.0692
    -5.0678  -5.0670  -5.0664  -5.0664  -5.0636  -5.0625  -5.0625  -5.0610
    -5.0610  -5.0578  -5.0571  -5.0571  -5.0567  -5.0566  -5.0566  -5.0558
    -5.0552  -5.0552  -5.0533  -5.0509  -5.0509  -5.0502  -5.0502  -5.0497
    -5.0496  -5.0496  -5.0472  -5.0472  -5.0461  -5.0461  -5.0454  -5.0428
    -5.0428  -5.0424  -5.0408  -5.0408  -5.0397  -5.0397  -5.0379  -5.0364
    -5.0362  -5.0362  -5.0324  -5.0324  -5.0297  -5.0295  -5.0295  -5.0277
    -5.0277  -5.0253  -5.0253  -5.0230  -5.0220  -5.0192  -5.0192  -5.0144
    -5.0144  -5.0128  -5.0121  -5.0121  -5.0104  -5.0101  -5.0082  -5.0059
    -5.0059  -5.0042  -5.0027  -5.0027  -5.0021  -5.0021  -4.9979  -4.9978
    -4.9951  -4.9933  -4.9931  -4.9931  -4.9916  -4.9906  -4.9906  -4.9848
    -4.9848  -4.9812  -4.9812  -4.9804  -4.9792  -4.9792  -4.9763  -4.9763
    -4.9758  -4.9710  -4.9710  -4.9661  -4.9655  -4.9655  -4.9626  -4.9626
    -4.9562  -4.9562  -4.9544  -4.9524  -4.9524  -4.9511  -4.9472  -4.9472
    -4.9372  -4.9253  -4.9253  -4.9117  -4.8851  -4.8851  -4.8793  -4.8697
    -4.8697  -4.8528  -4.8441  -4.8441  -4.7980  -4.7744  -4.7744  -4.6219
    -4.6219  -4.6190  -4.6163  -4.6163  -4.6091  -4.6056  -4.6056  -4.6039
    -4.5019  -4.5019  -4.4290  -4.3067  -4.2375  -3.8599  -3.8599  -3.8506
    -3.8445  -3.8445  -3.8365  -3.8149  -3.8149  -3.8132  -3.8104  -3.8104
    -3.7987  -3.7987  -3.7903  -3.7562  -3.7508  -3.7508  -3.7122  -3.6515
    -3.6515  -3.6287  -3.6262  -3.6213  -3.6213  -3.6159  -3.6122  -3.6122
    -3.6049  -3.6049  -3.5852  -3.5397  -3.5382  -3.5382  -3.5328  -3.5156
    -3.5156  -3.4946  -3.3780  -3.3779  -3.2710  -3.2346  -3.2164  -3.2164
    -3.2130  -3.2130  -3.1898  -3.1898  -3.1809  -3.1773  -3.1599  -3.1599
    -3.1559  -3.1559  -3.1555  -3.1480  -3.1463  -3.1382  -3.1382  -3.1283
    -3.1283  -3.0568  -3.0309  -3.0309  -2.9502  -2.8654  -2.8654  -2.8598
    -2.8540  -2.8540  -2.7267  -1.2673   1.6502   1.6502   1.9567   2.2531
     2.2551   2.2551   2.3209   2.3392   2.3393   2.4603   2.5365   2.5366
     2.5679   2.7276   2.7276   2.7683   2.7765   2.7765   2.7895   2.7895
     2.8147   2.8299   2.8345   2.8346   2.8601   2.8621   2.8621   2.8635
     2.8666   2.8667   2.8934   2.8935   2.9098   2.9973   2.9973   3.0835
     3.1655   3.1655   3.1677   3.1766   3.1766   3.1951   3.3001   3.3033
     3.3033   3.3106   3.3106   3.3123   3.3250   3.3250   3.3262   3.3573
     3.3859   3.3859   3.5176   3.5600   3.5600   3.5660   3.5705   3.5739
     3.5739   3.5802   3.5963   3.5963   3.6060   3.6142   3.6142   3.6299
     3.6983   3.6983   3.8001   3.8001   3.8072   3.8208   3.9577   3.9577
     4.2688   4.5837   4.7877   4.7877   4.8061   4.8478   4.8478   4.8557
     4.8558   4.8773   4.8773   4.8774   4.8827   4.8827   4.8854   4.8912
     4.9271   4.9468   4.9468   4.9562   4.9590   4.9590   4.9658   4.9701
     4.9701   4.9718   4.9719   4.9771   4.9771   5.0155   5.0176   5.0653
     5.0653   5.1383   5.1449   5.1449   5.1549   5.1549   5.1597   5.1635
     5.1687   5.1687   5.2144   5.4165   5.4165   5.4299   5.7339   5.8492
     5.8492   5.8560   5.8721   5.8722   5.9007   5.9191   5.9219   5.9220
     5.9368   5.9368   5.9398   5.9499   5.9499   5.9560   5.9560   6.0076
     6.0485   6.0485   6.0650   6.0652   6.0652   6.0713   6.0781   6.0781
     6.0842   6.0931   6.0931   6.0990   6.0997   6.0997   6.1095   6.1341
     6.1341   6.1771   6.2616   6.2861   6.2861   6.3494   6.3606   6.3606
     6.3791   6.3937   6.3937   6.3965   6.4005   6.4005   6.4208   6.4276
     6.4276   6.4754   6.5142   6.5165   6.5166   6.5732   6.6335   6.6335
     6.6886   6.6887   6.7306   6.7711   6.7711   6.7743   6.7954   6.7962
     6.7962   6.8368   6.8368   6.8390   6.8910   6.8928   6.8928   6.9379
     6.9379   6.9520   7.0164   7.0313   7.0313   7.1566   7.1587   7.1595
     7.1595   7.1760   7.1760   7.1798   7.1798   7.1799   7.1819   7.2190
     7.2270   7.2270   7.2587   7.2653   7.2653   7.2832   7.2832   7.3145
     7.3264   7.3264   7.3450   7.3608   7.4224   7.4224   7.4415   7.4415
     7.4554   7.4554   7.4597   7.4760   7.4836   7.4893   7.4893   7.5272
     7.5564   7.5564   7.5692   7.5692   7.5801   7.5801   7.5999   7.6011
     7.6011   7.6054   7.6474   7.6474   7.7431   7.7431   7.7886   7.8134
     7.8134   7.8319   7.8333   7.8333   7.8515   7.8651   7.8705   7.8705
     7.8761   7.9036   7.9036   7.9152   7.9661   7.9662   7.9982   7.9983
     8.0444   8.0444   8.0634   8.0634   8.0738   8.2426   8.2427   8.2512
     8.2513   8.2544   8.2704   8.4201   8.4202   8.4233   8.4946   8.4947
     8.7411   8.7412   8.8147   9.6271  10.1598  11.3703  11.9792  12.0464
    12.0465  12.1869  12.5678  12.5678  12.6525  12.6970  12.7011  12.7726
    12.7726  12.7971  12.8013  12.8161  12.8162  12.8724  12.9508  12.9508
    12.9817  12.9818  12.9833  13.0456  13.0456  13.0498  13.0786  13.0786
    13.0805  13.2196  13.3474  13.4511  13.4511  13.6464  13.6464  13.7049
    13.7602  13.7602  13.8101  13.8468  13.8469  13.9387  13.9587  13.9696
    13.9697  14.0703  14.1034  14.1035  14.1388  14.1389  14.2362  14.2777
    14.2777  14.3109  14.3109  14.3268  14.3269  14.3272  14.3365  14.3448
    14.3449  14.3583  14.3622  14.3636  14.3636  14.4048  14.4049  14.4121
    14.4206  14.4207  14.4210  14.5639  14.5640  14.5730  14.5826  14.7144
    14.7144  14.7192  14.7409  14.7590  14.7590  14.7796  14.7796  14.8192
    14.8241  14.8242  14.8328  14.8329  14.8418  14.8627  14.8681  14.8682
    14.8683  14.8889  14.8985  14.8986  15.0100  15.0100  15.0206  15.3812
    15.3870  15.3870  15.4847  15.6698  15.6698  15.7471  15.7582  15.7583
    15.8480  15.8540  15.8540  15.8841  15.8842  15.8843  15.9485  15.9620
    15.9620  15.9802  16.0003  16.0003  16.0195  16.0265  16.0265  16.0506
    16.0786  16.0786  16.0894  16.0894  16.1803  16.1803  16.1834  16.2233
    16.2432  16.2668  16.2668  16.2870  16.2996  16.2997  16.3279  16.3334
    16.3334  16.3821  16.3821  16.4027  16.4147  16.4147  16.4325  16.4325
    16.4358  16.4410  16.4435  16.4435  16.4739  16.4872  16.4872  16.4970
    16.5076  16.5115  16.5115  16.5119  16.5160  16.5160  16.5249  16.5414
    16.5427  16.5427  16.5565  16.5566  16.5672  16.5672  16.5739  16.5772

     occupation numbers 
     1.0000   1.0000   1.0000   1.0000   1.0000   1.0000   1.0000   1.0000
     1.0000   1.0000   1.0000   1.0000   1.0000   1.0000   1.0000   1.0000
     1.0000   1.0000   1.0000   1.0000   1.0000   1.0000   1.0000   1.0000
     1.0000   1.0000   1.0000   1.0000   1.0000   1.0000   1.0000   1.0000
     1.0000   1.0000   1.0000   1.0000   1.0000   1.0000   1.0000   1.0000
     1.0000   1.0000   1.0000   1.0000   1.0000   1.0000   1.0000   1.0000
     1.0000   1.0000   1.0000   1.0000   1.0000   1.0000   1.0000   1.0000
     1.0000   1.0000   1.0000   1.0000   1.0000   1.0000   1.0000   1.0000
     1.0000   1.0000   1.0000   1.0000   1.0000   1.0000   1.0000   1.0000
     1.0000   1.0000   1.0000   1.0000   1.0000   1.0000   1.0000   1.0000
     1.0000   1.0000   1.0000   1.0000   1.0000   1.0000   1.0000   1.0000
     1.0000   1.0000   1.0000   1.0000   1.0000   1.0000   1.0000   1.0000
     1.0000   1.0000   1.0000   1.0000   1.0000   1.0000   1.0000   1.0000
     1.0000   1.0000   1.0000   1.0000   1.0000   1.0000   1.0000   1.0000
     1.0000   1.0000   1.0000   1.0000   1.0000   1.0000   1.0000   1.0000
     1.0000   1.0000   1.0000   1.0000   1.0000   1.0000   1.0000   1.0000
     1.0000   1.0000   1.0000   1.0000   1.0000   1.0000   1.0000   1.0000
     1.0000   1.0000   1.0000   1.0000   1.0000   1.0000   1.0000   1.0000
     1.0000   1.0000   1.0000   1.0000   1.0000   1.0000   1.0000   1.0000
     1.0000   1.0000   1.0000   1.0000   1.0000   1.0000   1.0000   1.0000
     1.0000   1.0000   1.0000   1.0000   1.0000   1.0000   1.0000   1.0000
     1.0000   1.0000   1.0000   1.0000   1.0000   1.0000   1.0000   1.0000
     1.0000   1.0000   1.0000   1.0000   1.0000   1.0000   1.0000   1.0000
     1.0000   1.0000   1.0000   1.0000   1.0000   1.0000   1.0000   1.0000
     1.0000   1.0000   1.0000   1.0000   1.0000   1.0000   1.0000   1.0000
     1.0000   1.0000   1.0000   1.0000   1.0000   1.0000   1.0000   1.0000
     1.0000   1.0000   1.0000   1.0000   1.0000   1.0000   1.0000   1.0000
     1.0000   1.0000   1.0000   1.0000   1.0000   1.0000   1.0000   1.0000
     1.0000   1.0000   1.0000   1.0000   1.0000   1.0000   1.0000   1.0000
     1.0000   1.0000   1.0000   1.0000   1.0000   1.0000   1.0000   1.0000
     1.0000   1.0000   1.0000   1.0000   1.0000   1.0000   1.0000   1.0000
     1.0000   1.0000   1.0000   1.0000   1.0000   1.0000   1.0000   1.0000
     1.0000   1.0000   1.0000   1.0000   1.0000   1.0000   1.0000   1.0000
     1.0000   1.0000   1.0000   1.0000   1.0000   1.0000   1.0000   1.0000
     1.0000   1.0000   1.0000   1.0000   1.0000   1.0000   1.0000   1.0000
     1.0000   1.0000   1.0000   1.0000   1.0000   1.0000   1.0000   1.0000
     1.0000   1.0000   1.0000   1.0000   1.0000   1.0000   1.0000   1.0000
     1.0000   1.0000   1.0000   1.0000   1.0000   1.0000   1.0000   1.0000
     1.0000   1.0000   1.0000   1.0000   1.0000   1.0000   1.0000   1.0000
     1.0000   1.0000   1.0000   1.0000   1.0000   1.0000   1.0000   1.0000
     1.0000   1.0000   1.0000   1.0000   1.0000   1.0000   1.0000   1.0000
     1.0000   1.0000   1.0000   1.0000   1.0000   1.0000   1.0000   1.0000
     1.0000   1.0000   1.0000   1.0000   1.0000   1.0000   1.0000   1.0000
     1.0000   1.0000   1.0000   1.0000   1.0000   1.0000   1.0000   1.0000
     1.0000   1.0000   1.0000   1.0000   1.0000   1.0000   1.0000   1.0000
     1.0000   1.0000   1.0000   1.0000   1.0000   1.0000   1.0000   1.0000
     1.0000   1.0000   1.0000   1.0000   1.0000   1.0000   1.0000   1.0000
     1.0000   1.0000   1.0000   1.0000   1.0000   1.0000   1.0000   1.0000
     1.0000   1.0000   1.0000   1.0000   1.0000   1.0000   1.0000   1.0000
     1.0000   1.0000   1.0000   1.0000   1.0000   1.0000   1.0000   1.0000
     1.0000   1.0000   1.0000   1.0000   1.0000   1.0000   1.0000   1.0000
     1.0000   1.0000   1.0000   1.0000   1.0000   1.0000   1.0000   1.0000
     1.0000   1.0000   1.0000   1.0000   1.0000   1.0000   1.0000   1.0000
     1.0000   1.0000   1.0000   1.0000   1.0000   1.0000   1.0000   1.0000
     1.0000   1.0000   1.0000   1.0000   1.0000   1.0000   1.0000   1.0000
     1.0000   1.0000   1.0000   1.0000   1.0000   1.0000   1.0000   1.0000
     1.0000   1.0000   1.0000   1.0000   1.0000   1.0000   1.0000   1.0000
     1.0000   1.0000   1.0000   1.0000   1.0000   1.0000   1.0000   1.0000
     1.0000   1.0000   1.0000   1.0000   1.0000   1.0000   1.0000   1.0000
     1.0000   1.0000   1.0000   1.0000   1.0000   1.0000   1.0000   1.0000
     1.0000   1.0000   1.0000   1.0000   1.0000   1.0000   1.0000   1.0000
     1.0000   1.0000   1.0000   1.0000   1.0000   1.0000   1.0000   1.0000
     1.0000   1.0000   1.0000   1.0000   1.0000   1.0000   1.0000   1.0000
     1.0000   1.0000   1.0000   1.0000   1.0000   1.0000   1.0000   1.0000
     1.0000   1.0000   1.0000   1.0000   1.0000   1.0000   1.0000   1.0000
     1.0000   1.0000   1.0000   1.0000   1.0000   1.0000   1.0000   1.0000
     1.0000   1.0000   1.0000   1.0000   1.0000   1.0000   1.0000   1.0000
     1.0000   1.0000   1.0000   1.0000   1.0000   1.0000   1.0000   1.0000
     1.0000   1.0000   1.0000   1.0000   1.0000   1.0000   1.0000   1.0000
     1.0000   1.0000   1.0000   1.0000   1.0000   1.0000   1.0000   1.0000
     1.0000   1.0000   1.0000   1.0000   1.0000   1.0000   1.0000   1.0000
     1.0000   1.0000   1.0000   1.0000   1.0000   1.0000   1.0000   1.0000
     1.0000   1.0000   1.0000   1.0000   1.0000   1.0000   1.0000   1.0000
     1.0000   1.0000   1.0000   1.0000   1.0000   1.0000   1.0000   1.0000
     1.0000   1.0000   1.0000   1.0000   1.0000   1.0000   1.0000   1.0000
     1.0000   1.0000   1.0000   1.0000   1.0000   1.0000   1.0000   1.0000
     1.0000   1.0000   1.0000   1.0000   1.0000   1.0000   1.0000   1.0000
     1.0000   1.0000   1.0000   1.0000   1.0000   1.0000   1.0000   1.0000
     1.0000   1.0000   1.0000   1.0000   1.0000   1.0000   1.0000   1.0000
     1.0000   1.0000   1.0000   1.0000   1.0000   1.0000   1.0000   1.0000
     1.0000   1.0000   1.0000   1.0000   1.0000   1.0000   1.0000   1.0000
     1.0000   1.0000   1.0000   1.0000   1.0000   1.0000   1.0000   1.0000
     1.0000   1.0000   1.0000   1.0000   1.0000   1.0000   1.0000   1.0000
     1.0000   1.0000   1.0000   1.0000   1.0000   1.0000   1.0000   1.0000
     1.0000   1.0000   1.0000   1.0000   1.0000   1.0000   1.0000   1.0000
     1.0000   1.0000   1.0000   1.0000   1.0000   1.0000   1.0000   1.0000
     1.0000   1.0000   1.0000   1.0000   1.0000   1.0000   1.0000   1.0000
     1.0000   1.0000   1.0000   1.0000   1.0000   1.0000   1.0000   1.0000
     1.0000   1.0000   1.0000   1.0000   1.0000   1.0000   1.0000   1.0000
     1.0000   1.0000   1.0000   1.0000   1.0000   1.0000   1.0000   1.0000
     1.0000   1.0000   1.0000   1.0000   1.0000   1.0000   1.0000   1.0000
     1.0000   1.0000   1.0000   1.0000   1.0000   1.0000   1.0000   1.0000
     1.0000   1.0000   1.0000   1.0000   1.0000   1.0000   1.0000   1.0000
     1.0000   1.0000   1.0000   1.0000   1.0000   1.0000   1.0000   1.0000
     1.0000   1.0000   1.0000   1.0000   1.0000   1.0000   1.0000   1.0000
     1.0000   1.0000   1.0000   1.0000   1.0000   1.0000   1.0000   1.0000
     1.0000   1.0000   1.0000   1.0000   1.0000   1.0000   1.0000   1.0000
     1.0000   1.0000   1.0000   1.0000   1.0000   1.0000   1.0000   1.0000
     1.0000   1.0000   1.0000   1.0000   1.0000   1.0000   1.0000   1.0000
     1.0000   1.0000   1.0000   1.0000   1.0000   1.0000   1.0000   1.0000
     1.0000   1.0000   1.0000   1.0000   1.0000   1.0000   1.0000   1.0000
     1.0000   1.0000   1.0000   1.0000   1.0000   1.0000   1.0000   1.0000
     1.0000   1.0000   1.0000   1.0000   1.0000   1.0000   1.0000   1.0000
     1.0000   1.0000   1.0000   1.0000   1.0000   1.0000   1.0000   1.0000
     1.0000   1.0000   1.0000   1.0000   1.0000   1.0000   1.0000   1.0000
     1.0000   1.0000   1.0000   1.0000   1.0000   1.0000   1.0000   1.0000
     1.0000   1.0000   1.0000   1.0000   1.0000   1.0000   1.0000   1.0000
     1.0000   1.0000   1.0000   0.6732   0.0000   0.0000   0.0000   0.0000
     0.0000   0.0000   0.0000   0.0000   0.0000   0.0000   0.0000   0.0000
     0.0000   0.0000   0.0000   0.0000   0.0000   0.0000   0.0000   0.0000
     0.0000   0.0000   0.0000   0.0000   0.0000   0.0000   0.0000   0.0000
     0.0000   0.0000   0.0000   0.0000   0.0000   0.0000   0.0000   0.0000
     0.0000   0.0000   0.0000   0.0000   0.0000   0.0000   0.0000   0.0000
     0.0000   0.0000   0.0000   0.0000   0.0000   0.0000   0.0000   0.0000
     0.0000   0.0000   0.0000   0.0000   0.0000   0.0000   0.0000   0.0000
     0.0000   0.0000   0.0000   0.0000   0.0000   0.0000   0.0000   0.0000
     0.0000   0.0000   0.0000   0.0000   0.0000   0.0000   0.0000   0.0000
     0.0000   0.0000   0.0000   0.0000   0.0000   0.0000   0.0000   0.0000
     0.0000   0.0000   0.0000   0.0000   0.0000   0.0000   0.0000   0.0000
     0.0000   0.0000   0.0000   0.0000   0.0000   0.0000   0.0000   0.0000
     0.0000   0.0000   0.0000   0.0000   0.0000   0.0000   0.0000   0.0000
     0.0000   0.0000   0.0000   0.0000   0.0000   0.0000   0.0000   0.0000
     0.0000   0.0000   0.0000   0.0000   0.0000   0.0000   0.0000   0.0000
     0.0000   0.0000   0.0000   0.0000   0.0000   0.0000   0.0000   0.0000
     0.0000   0.0000   0.0000   0.0000   0.0000   0.0000   0.0000   0.0000
     0.0000   0.0000   0.0000   0.0000   0.0000   0.0000   0.0000   0.0000
     0.0000   0.0000   0.0000   0.0000   0.0000   0.0000   0.0000   0.0000
     0.0000   0.0000   0.0000   0.0000   0.0000   0.0000   0.0000   0.0000
     0.0000   0.0000   0.0000   0.0000   0.0000   0.0000   0.0000   0.0000

          k = 0.0000 0.0000-0.4090 (154532 PWs)   bands (ev):

   -11.0770  -6.8777  -6.8244  -6.7460  -6.7347  -6.7347  -6.6826  -6.6139
    -6.6139  -6.5751  -6.5662  -6.5598  -6.5598  -6.5575  -6.5575  -6.5499
    -6.5498  -6.5468  -6.5319  -6.5319  -6.5204  -6.5169  -6.4924  -6.4896
    -6.4896  -6.4750  -6.4673  -6.4673  -6.4593  -6.4592  -6.4592  -6.4553
    -6.4489  -6.4484  -6.4483  -6.4430  -6.4430  -6.4300  -6.4300  -6.4289
    -6.4229  -6.4152  -6.4131  -6.4131  -6.4115  -6.4030  -6.4030  -6.3986
    -6.3986  -6.3983  -6.3956  -6.3955  -6.3955  -6.3865  -6.3865  -6.3837
    -6.3837  -6.3810  -6.3781  -6.3781  -6.3736  -6.3727  -6.3657  -6.3657
    -6.3575  -6.3554  -6.3554  -6.3526  -6.3486  -6.3486  -6.3424  -6.3388
    -6.3388  -6.3347  -6.3347  -6.3343  -6.3297  -6.3232  -6.3232  -6.3198
    -6.3194  -6.3194  -6.3178  -6.3097  -6.3097  -6.3049  -6.3048  -6.3028
    -6.3019  -6.3011  -6.2977  -6.2977  -6.2663  -6.2559  -6.2559  -6.0162
    -5.6685  -5.6050  -5.6050  -5.6003  -5.5943  -5.5927  -5.5927  -5.5606
    -5.5606  -5.5482  -5.5482  -5.5391  -5.5391  -5.5376  -5.5375  -5.5310
    -5.4982  -5.4982  -5.4900  -5.4900  -5.4817  -5.4656  -5.4656  -5.4621
    -5.4457  -5.4413  -5.4413  -5.4382  -5.4230  -5.4230  -5.4123  -5.4088
    -5.4088  -5.3830  -5.3830  -5.3781  -5.3685  -5.3685  -5.3587  -5.3587
    -5.3584  -5.3416  -5.3382  -5.3382  -5.3275  -5.3265  -5.3265  -5.3232
    -5.3231  -5.3231  -5.3219  -5.3133  -5.3132  -5.3132  -5.3096  -5.3096
    -5.3094  -5.2893  -5.2838  -5.2838  -5.2766  -5.2766  -5.2750  -5.2742
    -5.2698  -5.2698  -5.2682  -5.2682  -5.2662  -5.2662  -5.2621  -5.2613
    -5.2605  -5.2605  -5.2587  -5.2549  -5.2549  -5.2513  -5.2495  -5.2495
    -5.2489  -5.2457  -5.2456  -5.2452  -5.2416  -5.2416  -5.2402  -5.2402
    -5.2378  -5.2328  -5.2328  -5.2324  -5.2309  -5.2309  -5.2284  -5.2281
    -5.2268  -5.2263  -5.2263  -5.2244  -5.2244  -5.2230  -5.2230  -5.2196
    -5.2196  -5.2166  -5.2144  -5.2144  -5.2144  -5.2126  -5.2126  -5.2115
    -5.2115  -5.2114  -5.2094  -5.2089  -5.2043  -5.2043  -5.2024  -5.2016
    -5.2016  -5.2008  -5.2008  -5.2004  -5.1991  -5.1991  -5.1978  -5.1975
    -5.1950  -5.1950  -5.1945  -5.1937  -5.1937  -5.1936  -5.1920  -5.1912
    -5.1912  -5.1900  -5.1900  -5.1875  -5.1875  -5.1859  -5.1854  -5.1854
    -5.1829  -5.1813  -5.1813  -5.1804  -5.1804  -5.1791  -5.1790  -5.1752
    -5.1752  -5.1737  -5.1724  -5.1724  -5.1700  -5.1685  -5.1685  -5.1672
    -5.1671  -5.1636  -5.1636  -5.1609  -5.1607  -5.1607  -5.1606  -5.1595
    -5.1595  -5.1585  -5.1572  -5.1572  -5.1557  -5.1557  -5.1553  -5.1551
    -5.1551  -5.1547  -5.1539  -5.1526  -5.1526  -5.1519  -5.1501  -5.1501
    -5.1486  -5.1484  -5.1478  -5.1478  -5.1461  -5.1439  -5.1439  -5.1423
    -5.1418  -5.1418  -5.1393  -5.1393  -5.1364  -5.1349  -5.1349  -5.1338
    -5.1331  -5.1310  -5.1310  -5.1299  -5.1299  -5.1292  -5.1286  -5.1286
    -5.1272  -5.1265  -5.1265  -5.1256  -5.1256  -5.1256  -5.1216  -5.1216
    -5.1213  -5.1199  -5.1199  -5.1172  -5.1167  -5.1167  -5.1149  -5.1149
    -5.1130  -5.1103  -5.1103  -5.1082  -5.1067  -5.1066  -5.1066  -5.1063
    -5.1047  -5.1047  -5.1046  -5.1029  -5.1029  -5.1016  -5.1016  -5.1016
    -5.1008  -5.0978  -5.0978  -5.0974  -5.0974  -5.0956  -5.0934  -5.0934
    -5.0896  -5.0896  -5.0885  -5.0877  -5.0877  -5.0871  -5.0838  -5.0832
    -5.0832  -5.0830  -5.0816  -5.0816  -5.0766  -5.0766  -5.0765  -5.0749
    -5.0749  -5.0738  -5.0716  -5.0715  -5.0715  -5.0696  -5.0695  -5.0691
    -5.0653  -5.0642  -5.0642  -5.0640  -5.0620  -5.0620  -5.0601  -5.0601
    -5.0593  -5.0588  -5.0581  -5.0581  -5.0577  -5.0566  -5.0566  -5.0548
    -5.0548  -5.0519  -5.0517  -5.0517  -5.0505  -5.0505  -5.0501  -5.0491
    -5.0491  -5.0482  -5.0473  -5.0464  -5.0464  -5.0448  -5.0436  -5.0436
    -5.0418  -5.0410  -5.0410  -5.0380  -5.0380  -5.0372  -5.0367  -5.0358
    -5.0358  -5.0339  -5.0320  -5.0320  -5.0291  -5.0291  -5.0276  -5.0276
    -5.0264  -5.0264  -5.0240  -5.0216  -5.0188  -5.0188  -5.0147  -5.0141
    -5.0141  -5.0129  -5.0129  -5.0110  -5.0104  -5.0092  -5.0059  -5.0059
    -5.0040  -5.0030  -5.0030  -5.0022  -5.0022  -4.9977  -4.9977  -4.9955
    -4.9952  -4.9937  -4.9937  -4.9931  -4.9905  -4.9905  -4.9850  -4.9850
    -4.9827  -4.9813  -4.9806  -4.9794  -4.9794  -4.9764  -4.9764  -4.9764
    -4.9710  -4.9710  -4.9661  -4.9656  -4.9656  -4.9627  -4.9627  -4.9562
    -4.9562  -4.9544  -4.9524  -4.9524  -4.9511  -4.9473  -4.9473  -4.9372
    -4.9252  -4.9252  -4.9118  -4.8823  -4.8823  -4.8528  -4.8526  -4.8526
    -4.8523  -4.8375  -4.8375  -4.8359  -4.8108  -4.7774  -4.7774  -4.7748
    -4.7727  -4.7686  -4.7686  -4.6697  -4.6697  -4.6135  -4.2848  -4.2847
    -4.2809  -4.2809  -4.2744  -4.2657  -4.2657  -4.2610  -4.2499  -4.2279
    -4.2279  -4.0556  -3.8395  -3.8329  -3.8247  -3.8247  -3.7462  -3.7390
    -3.7389  -3.7288  -3.7202  -3.7202  -3.7186  -3.7150  -3.7150  -3.7015
    -3.6013  -3.5889  -3.5889  -3.5663  -3.5662  -3.5298  -3.4390  -3.4390
    -3.4160  -3.4158  -3.4158  -3.4146  -3.4064  -3.4060  -3.4060  -3.3959
    -3.3959  -3.3956  -3.3927  -3.3927  -3.3849  -3.3849  -3.3757  -3.3756
    -3.3755  -3.3712  -3.3390  -3.3264  -3.3264  -3.3199  -3.3142  -3.3142
    -3.2346  -3.1709  -3.1709  -3.0959  -3.0480  -3.0480  -3.0427  -3.0372
    -3.0372  -2.9970  -2.9857  -2.9857  -2.9418  -2.9022  -2.9003  -2.9003
    -2.8823  -2.8823  -2.7397  -1.2686   1.6478   1.6478   2.1591   2.3323
     2.3323   2.3593   2.4288   2.4386   2.4386   2.4428   2.4429   2.4542
     2.5041   2.5041   2.5127   2.5330   2.6667   2.8703   2.8704   2.9123
     2.9123   2.9445   2.9612   2.9716   2.9716   2.9924   2.9924   2.9939
     3.0005   3.0044   3.0044   3.0104   3.0130   3.0130   3.0244   3.0244
     3.0299   3.0299   3.0330   3.0384   3.0384   3.0404   3.0467   3.0481
     3.0481   3.0615   3.0615   3.0664   3.0886   3.1289   3.1289   3.2529
     3.3577   3.3578   3.3598   3.4138   3.4139   3.5283   3.6142   3.6143
     3.6540   3.6851   3.6851   3.6927   3.7093   3.7093   3.7111   3.8115
     3.8116   4.0075   4.0563   4.2242   4.2243   4.2399   4.2399   4.2403
     4.2475   4.2476   4.2530   4.3273   4.3273   4.4946   4.7834   4.9245
     4.9246   4.9265   4.9476   4.9476   4.9696   4.9729   4.9785   4.9785
     4.9884   4.9958   4.9958   5.0095   5.0471   5.0700   5.0749   5.0749
     5.1093   5.1093   5.1210   5.1346   5.1346   5.1473   5.1473   5.1509
     5.2309   5.2309   5.2340   5.2340   5.2425   5.2903   5.3795   5.3795
     5.3934   5.4264   5.4430   5.4430   5.4478   5.4573   5.4573   5.4602
     5.4602   5.5005   5.5577   5.5633   5.5633   5.5688   5.5688   5.5880
     5.5880   5.5922   5.5922   5.6095   5.6095   5.6221   5.6307   5.6611
     5.6611   5.6937   5.7036   5.7037   5.7277   5.7277   5.7389   5.8871
     5.8871   6.2486   6.2662   6.2662   6.2871   6.2924   6.3255   6.3255
     6.5346   6.5346   6.5356   6.5948   6.6032   6.6032   6.6249   6.6249
     6.6263   6.6266   6.6490   6.6490   6.7420   6.7420   6.7647   6.7654
     6.7654   6.7738   6.7738   6.7774   6.7837   6.8077   6.8077   6.8257
     6.8257   6.8735   6.8748   6.8830   6.8833   6.8833   6.8907   6.8907
     6.8967   6.8967   6.9181   6.9182   6.9333   6.9560   6.9592   6.9686
     6.9743   6.9744   6.9779   6.9806   6.9807   6.9896   6.9896   6.9904
     7.0106   7.0262   7.0262   7.0605   7.0605   7.0703   7.1120   7.1120
     7.1440   7.1472   7.1472   7.1658   7.1658   7.1740   7.1752   7.1975
     7.1976   7.1976   7.2279   7.2279   7.2313   7.2313   7.2383   7.2591
     7.2889   7.2890   7.2890   7.3265   7.3265   7.4870   7.4870   7.4952
     7.5062   7.5078   7.5079   7.5085   7.5270   7.5270   7.5611   7.6038
     7.6039   7.6640   7.6916   7.6916   7.6951   7.7157   7.7158   7.8237
     7.8474   7.8475   7.8538   7.9161   7.9161   7.9693   7.9693   7.9949
     8.0070   8.0215   8.0215   8.0280   8.0281   8.0318   8.0459   8.0459
     8.0819   8.0820   8.0986   8.1414   8.1797   8.1834   8.1834   8.1935
     8.1940   8.1941   8.2160   8.2160   8.2465   8.2467   8.5799   8.5959
     8.5960   8.7153   8.7153   9.6571  10.6796  11.0202  11.7005  12.0500
    12.0500  12.5774  12.5774  12.6031  12.6639  12.6805  12.7422  12.7490
    12.7502  12.7503  12.7596  12.7596  12.7682  12.8138  12.8942  12.9599
    12.9599  13.0538  13.0538  13.1574  13.1958  13.1958  13.2792  13.3370
    13.3371  13.3447  13.4243  13.5033  13.5034  13.6094  13.6095  13.6641
    13.6641  13.7007  13.7393  13.7412  13.7412  13.7655  13.7908  13.7909
    13.8282  13.8801  13.8802  13.8939  14.0389  14.0389  14.1202  14.1272
    14.1818  14.1819  14.2601  14.2601  14.3611  14.3611  14.3664  14.4049
    14.4049  14.4176  14.4187  14.4534  14.4535  14.4598  14.4640  14.4641
    14.4725  14.4811  14.4812  14.4924  14.5508  14.5508  14.6287  14.6287
    14.6387  14.6974  14.6974  14.7052  14.7052  14.7067  14.7149  14.7342
    14.7342  14.7965  14.8437  14.8486  14.8487  14.8502  14.8570  14.8858
    14.8858  14.9328  14.9643  14.9643  15.3030  15.3030  15.3441  15.4362
    15.5038  15.5039  15.5201  15.5982  15.6501  15.6501  15.8283  15.8283
    15.8528  15.8753  15.8753  15.9659  15.9659  15.9931  16.0142  16.0198
    16.0198  16.0433  16.0510  16.0510  16.0745  16.0745  16.0752  16.0910
    16.0910  16.1082  16.1116  16.1116  16.1384  16.1464  16.1464  16.1549
    16.1934  16.1934  16.1988  16.1988  16.2087  16.2185  16.2313  16.2439
    16.2439  16.2758  16.2758  16.3092  16.3094  16.3094  16.3366  16.3932
    16.3948  16.3948  16.4353  16.4353  16.4563  16.4634  16.4634  16.4805
    16.4969  16.5132  16.5161  16.5161  16.5227  16.5227  16.5277  16.5397
    16.5513  16.5513  16.5635  16.5635  16.5801  16.5834  16.5834  16.6312

     occupation numbers 
     1.0000   1.0000   1.0000   1.0000   1.0000   1.0000   1.0000   1.0000
     1.0000   1.0000   1.0000   1.0000   1.0000   1.0000   1.0000   1.0000
     1.0000   1.0000   1.0000   1.0000   1.0000   1.0000   1.0000   1.0000
     1.0000   1.0000   1.0000   1.0000   1.0000   1.0000   1.0000   1.0000
     1.0000   1.0000   1.0000   1.0000   1.0000   1.0000   1.0000   1.0000
     1.0000   1.0000   1.0000   1.0000   1.0000   1.0000   1.0000   1.0000
     1.0000   1.0000   1.0000   1.0000   1.0000   1.0000   1.0000   1.0000
     1.0000   1.0000   1.0000   1.0000   1.0000   1.0000   1.0000   1.0000
     1.0000   1.0000   1.0000   1.0000   1.0000   1.0000   1.0000   1.0000
     1.0000   1.0000   1.0000   1.0000   1.0000   1.0000   1.0000   1.0000
     1.0000   1.0000   1.0000   1.0000   1.0000   1.0000   1.0000   1.0000
     1.0000   1.0000   1.0000   1.0000   1.0000   1.0000   1.0000   1.0000
     1.0000   1.0000   1.0000   1.0000   1.0000   1.0000   1.0000   1.0000
     1.0000   1.0000   1.0000   1.0000   1.0000   1.0000   1.0000   1.0000
     1.0000   1.0000   1.0000   1.0000   1.0000   1.0000   1.0000   1.0000
     1.0000   1.0000   1.0000   1.0000   1.0000   1.0000   1.0000   1.0000
     1.0000   1.0000   1.0000   1.0000   1.0000   1.0000   1.0000   1.0000
     1.0000   1.0000   1.0000   1.0000   1.0000   1.0000   1.0000   1.0000
     1.0000   1.0000   1.0000   1.0000   1.0000   1.0000   1.0000   1.0000
     1.0000   1.0000   1.0000   1.0000   1.0000   1.0000   1.0000   1.0000
     1.0000   1.0000   1.0000   1.0000   1.0000   1.0000   1.0000   1.0000
     1.0000   1.0000   1.0000   1.0000   1.0000   1.0000   1.0000   1.0000
     1.0000   1.0000   1.0000   1.0000   1.0000   1.0000   1.0000   1.0000
     1.0000   1.0000   1.0000   1.0000   1.0000   1.0000   1.0000   1.0000
     1.0000   1.0000   1.0000   1.0000   1.0000   1.0000   1.0000   1.0000
     1.0000   1.0000   1.0000   1.0000   1.0000   1.0000   1.0000   1.0000
     1.0000   1.0000   1.0000   1.0000   1.0000   1.0000   1.0000   1.0000
     1.0000   1.0000   1.0000   1.0000   1.0000   1.0000   1.0000   1.0000
     1.0000   1.0000   1.0000   1.0000   1.0000   1.0000   1.0000   1.0000
     1.0000   1.0000   1.0000   1.0000   1.0000   1.0000   1.0000   1.0000
     1.0000   1.0000   1.0000   1.0000   1.0000   1.0000   1.0000   1.0000
     1.0000   1.0000   1.0000   1.0000   1.0000   1.0000   1.0000   1.0000
     1.0000   1.0000   1.0000   1.0000   1.0000   1.0000   1.0000   1.0000
     1.0000   1.0000   1.0000   1.0000   1.0000   1.0000   1.0000   1.0000
     1.0000   1.0000   1.0000   1.0000   1.0000   1.0000   1.0000   1.0000
     1.0000   1.0000   1.0000   1.0000   1.0000   1.0000   1.0000   1.0000
     1.0000   1.0000   1.0000   1.0000   1.0000   1.0000   1.0000   1.0000
     1.0000   1.0000   1.0000   1.0000   1.0000   1.0000   1.0000   1.0000
     1.0000   1.0000   1.0000   1.0000   1.0000   1.0000   1.0000   1.0000
     1.0000   1.0000   1.0000   1.0000   1.0000   1.0000   1.0000   1.0000
     1.0000   1.0000   1.0000   1.0000   1.0000   1.0000   1.0000   1.0000
     1.0000   1.0000   1.0000   1.0000   1.0000   1.0000   1.0000   1.0000
     1.0000   1.0000   1.0000   1.0000   1.0000   1.0000   1.0000   1.0000
     1.0000   1.0000   1.0000   1.0000   1.0000   1.0000   1.0000   1.0000
     1.0000   1.0000   1.0000   1.0000   1.0000   1.0000   1.0000   1.0000
     1.0000   1.0000   1.0000   1.0000   1.0000   1.0000   1.0000   1.0000
     1.0000   1.0000   1.0000   1.0000   1.0000   1.0000   1.0000   1.0000
     1.0000   1.0000   1.0000   1.0000   1.0000   1.0000   1.0000   1.0000
     1.0000   1.0000   1.0000   1.0000   1.0000   1.0000   1.0000   1.0000
     1.0000   1.0000   1.0000   1.0000   1.0000   1.0000   1.0000   1.0000
     1.0000   1.0000   1.0000   1.0000   1.0000   1.0000   1.0000   1.0000
     1.0000   1.0000   1.0000   1.0000   1.0000   1.0000   1.0000   1.0000
     1.0000   1.0000   1.0000   1.0000   1.0000   1.0000   1.0000   1.0000
     1.0000   1.0000   1.0000   1.0000   1.0000   1.0000   1.0000   1.0000
     1.0000   1.0000   1.0000   1.0000   1.0000   1.0000   1.0000   1.0000
     1.0000   1.0000   1.0000   1.0000   1.0000   1.0000   1.0000   1.0000
     1.0000   1.0000   1.0000   1.0000   1.0000   1.0000   1.0000   1.0000
     1.0000   1.0000   1.0000   1.0000   1.0000   1.0000   1.0000   1.0000
     1.0000   1.0000   1.0000   1.0000   1.0000   1.0000   1.0000   1.0000
     1.0000   1.0000   1.0000   1.0000   1.0000   1.0000   1.0000   1.0000
     1.0000   1.0000   1.0000   1.0000   1.0000   1.0000   1.0000   1.0000
     1.0000   1.0000   1.0000   1.0000   1.0000   1.0000   1.0000   1.0000
     1.0000   1.0000   1.0000   1.0000   1.0000   1.0000   1.0000   1.0000
     1.0000   1.0000   1.0000   1.0000   1.0000   1.0000   1.0000   1.0000
     1.0000   1.0000   1.0000   1.0000   1.0000   1.0000   1.0000   1.0000
     1.0000   1.0000   1.0000   1.0000   1.0000   1.0000   1.0000   1.0000
     1.0000   1.0000   1.0000   1.0000   1.0000   1.0000   1.0000   1.0000
     1.0000   1.0000   1.0000   1.0000   1.0000   1.0000   1.0000   1.0000
     1.0000   1.0000   1.0000   1.0000   1.0000   1.0000   1.0000   1.0000
     1.0000   1.0000   1.0000   1.0000   1.0000   1.0000   1.0000   1.0000
     1.0000   1.0000   1.0000   1.0000   1.0000   1.0000   1.0000   1.0000
     1.0000   1.0000   1.0000   1.0000   1.0000   1.0000   1.0000   1.0000
     1.0000   1.0000   1.0000   1.0000   1.0000   1.0000   1.0000   1.0000
     1.0000   1.0000   1.0000   1.0000   1.0000   1.0000   1.0000   1.0000
     1.0000   1.0000   1.0000   1.0000   1.0000   1.0000   1.0000   1.0000
     1.0000   1.0000   1.0000   1.0000   1.0000   1.0000   1.0000   1.0000
[...]
              0.163383956331718E+03
              0.494469871284635E+01
              0.509230498871106E+03
              0.706726941021780E+02
             -0.742149211363001E+02
              0.290385282686934E+02
             -0.683048669962923E+02
              0.399890791870415E+03
             -0.240440233806231E+01
              0.764803288130022E+02
              0.277647697701131E+03
              0.745357728493213E+02
             -0.210887295574109E+03
             -0.342011870396558E+03
              0.192727274039776E+02
             -0.389118330525244E+03
              0.130468442452261E+03
             -0.674739673912523E+02
             -0.149779083076445E+03
              0.151792179960616E+03
              0.525372974796637E+02
              0.146092577890148E+03
              0.633229406467706E+01
              0.216855413946896E+03
             -0.368256857825144E+03
             -0.261824114013218E+02
             -0.323320531520310E+03
              0.721635465339455E+02
              0.177287637393637E+03
             -0.179566596360248E+02
             -0.118098749327207E+03
              0.265230383509279E+03
             -0.122713038979333E+03
              0.907300616604173E+02
             -0.779512506489802E+02
              0.209965116271794E+03
              0.220882972695721E+03
             -0.955826355109775E+02
              0.189394111139263E+03
              0.711146402419622E+02
             -0.191154230429998E+03
             -0.124869631901038E+03
              0.307092548729527E+03
              0.150642205401309E+03
             -0.130189336794072E+02
             -0.325393749276041E+02
              0.472972009543838E+03
              0.278887678236329E+03
              0.991582496943847E+02
             -0.297953735397635E+03
              0.477306654580360E+03
             -0.222861605534364E+03
             -0.275262390894549E+03
             -0.414768473939743E+03
              0.184944680479520E+03
             -0.372779508498751E+03
              0.168528402102594E+03
              0.272475631857754E+03
              0.193982293710703E+03
              0.494161890837853E+02
              0.128493199153826E+03
             -0.307248545446329E+03
             -0.110059424417608E+03
             -0.835754290431396E+02
              0.157633269312645E+03
              0.312405518583429E+03
              0.322897659952079E+03
              0.248988493350733E+03
             -0.571375658578736E+02
              0.793437818492166E+02
              0.439669223579972E+01
             -0.102449667833164E+03
              0.131605537551531E+03
              0.143341365832497E+03
             -0.181507102151897E+03
             -0.215902042057641E+03
             -0.852041508528599E+02
              0.224283320594926E+03
              0.107458009344013E+03
             -0.153891441890260E+03
             -0.235639979382589E+03
             -0.343108330808045E+03
              0.705699065060094E+01
              0.920840113371532E+02
             -0.129601722883814E+03
              0.479972017264583E+03
              0.233608734809131E+02
             -0.543918650148479E+03
              0.120354391449222E+03
              0.238470694700949E+03
             -0.109324147521778E+03
              0.131628374829129E+02
             -0.151429994840368E+03
              0.222491880243454E+03
              0.102879542006220E+03
             -0.284642408357683E+03
              0.339034875150131E+03
              0.952890133869982E+01
             -0.145482764880394E+03
             -0.172671786869763E+03
              0.674950262410000E+03
              0.300729993721111E+03
             -0.838067199376337E+02
              0.165617001001117E+03
             -0.294978249726616E+03
             -0.527785015933550E+02
             -0.299365897255787E+03
              0.119925452316863E+03
              0.203769578168823E+03
              0.242021056374663E+03
             -0.964004714957132E+02
              0.285162650005773E+02
              0.276313131916471E+03
              0.102334111342893E+03
              0.173247957654308E+03
              0.737824071996504E+02
             -0.497535877120642E+02
              0.744241386831800E+01
             -0.455887088623418E+02
              0.703964969298424E+02
              0.155607615040892E+02
             -0.251681379210328E+03
              0.383299107442928E+03
              0.153311936067664E+03
             -0.275345734124152E+03
             -0.204356348841772E+03
             -0.296120328106722E+03
             -0.140233420609121E+03
             -0.103112930585623E+03
             -0.229017412081706E+03
             -0.224178082412503E+03
              0.282702318668719E+03
              0.222916911179990E+03
             -0.278255107266109E+02
              0.324984975375237E+03
              0.616403184482933E+02
             -0.524631845686834E+03
              0.295940305523745E+03
              0.683889718774667E+02
              0.228214167203381E+03
              0.509639753464400E+02
              0.381864306140606E+02
              0.452501174905503E+02
              0.118842555190603E+03
             -0.217521536211316E+03
             -0.108612949482635E+03
             -0.199713265094621E+03
             -0.165820245781831E+03
              0.756013969552325E+02
             -0.189931586564200E+03
              0.887746017921550E+02
              0.117473465104173E+03
             -0.125105427546364E+03
             -0.659411461478918E+02
             -0.579337696108087E+01
              0.324743911681293E+03
              0.516201738840771E+02
              0.322054614271823E+03
              0.114545931191576E+03
             -0.415892644015503E+03
             -0.141616776239518E+03
              0.142169247498206E+03
              0.319903395065568E+03
              0.616102177620596E+02
              0.124988228180990E+03
              0.301684636498431E+03
             -0.175545242733722E+03
             -0.284986837306137E+03
              0.370133474965009E+03
              0.605924147543146E+01
             -0.392558536257776E+03
              0.131580626509974E+03
              0.259774521354169E+03
             -0.599721198290504E+02
             -0.245659877295103E+03
              0.436274445993467E+02
              0.160812162832744E+02
             -0.134471468414214E+03
              0.488157007900654E+02
             -0.419107529641133E+02
              0.578429263520298E+03
              0.159440781518449E+03
             -0.265483896114647E+03
              0.803636330793274E+02
              0.371454673122984E+03
             -0.237984124114262E+03
             -0.635251492243806E+02
             -0.210570942684098E+03
              0.168107396129959E+03
              0.715317182496148E+02
              0.111632312235984E+03
              0.856766524557270E+01
              0.417063010459454E+03
             -0.233282522714325E+03
             -0.177081082773114E+03
             -0.195402345969176E+03
              0.168048327093689E+03
              0.401204848704175E+03
             -0.506987660007701E+02
              0.165751113255838E+03
             -0.224326358597724E+03
              0.224054553754613E+02
             -0.664308721932850E+02
             -0.224135950496948E+02
             -0.955359043510742E+02
             -0.879265594162720E+02
             -0.648505765998661E+02
              0.693975440217503E+02
              0.116947043688203E+03
             -0.269226820094805E+03
              0.195678080643984E+03
             -0.316211144245017E+03
              0.236176174584282E+03
             -0.274211756346516E+03
              0.414935755598352E+03
              0.221204355669777E+03
              0.246757309237204E+03
              0.564876210641360E+02
              0.633913175476609E+02
             -0.556691917246799E+03
              0.955290614991840E+02
              0.253340140554510E+02
              0.437201609472286E+02
             -0.830164169902196E+02
              0.433174204119784E+03
             -0.131775810495184E+03
             -0.171035578537937E+03
             -0.429551831113576E+03
             -0.142945598902380E+03
             -0.195036756919649E+03
             -0.172994999553827E+03
             -0.474404003812049E+02
             -0.905084855348064E+02
             -0.120004598446640E+03
             -0.180373659423616E+03
              0.134415129979860E+03
              0.444425119625967E+03
              0.379007247993663E+03
             -0.754564968913560E+02
             -0.465079272763094E+03
             -0.195548249308784E+03
              0.896758567297034E+02
              0.992854250798575E+02
              0.143760495679623E+03
              0.111911418010267E+03
              0.364456239918693E+02
              0.430329735538650E+03
             -0.106760760343297E+03
              0.218381104592048E+03
              0.100203801261302E+03
             -0.140894911368506E+03
             -0.886619616329515E+02
              0.198967291647618E+03
             -0.115249108285202E+03
             -0.818205650308888E+02
             -0.530660723648105E+02
              0.248598555484253E+03
             -0.333150342457479E+03
             -0.366646742126477E+02
             -0.272838056262769E+03
             -0.589933599342856E+03
              0.224411391595800E+01
             -0.730289728695568E+02
              0.202576404634549E+03
              0.240849484748937E+03
              0.330368166483361E+03
             -0.217280924083759E+03
              0.353491391186250E+03
              0.924497208006735E+02
             -0.105397696965098E+03
              0.638540427202305E+02
             -0.112264575912420E+03
             -0.786092197060234E+02
              0.179971925737869E+03
             -0.175490449452026E+03
              0.426920175317173E+03
             -0.109168890375990E+03
             -0.228343423475114E+03
              0.434519348031456E+03
             -0.244199491038672E+03
             -0.362340639043728E+02
              0.444166423574304E+02
              0.134754339236315E+03
             -0.199060158183851E+03
             -0.149113756404490E+03
              0.226552835261518E+03
             -0.367581437115507E+03
              0.269875150032709E+03
              0.352989414389085E+02
              0.210815597747578E+03
              0.292296278337187E+03
              0.735964064913167E+02
             -0.384645218123433E+03
             -0.169868651287237E+03
             -0.284328663923484E+03
             -0.178258583037442E+03
             -0.587010554456247E+02
              0.698759915236503E+02
             -0.133349598211001E+03
              0.939688060522030E+01
             -0.432557694775370E+03
              0.106697781109160E+02
             -0.273415304785543E+03
              0.268529689093576E+03
             -0.144326111214249E+03
             -0.283615928959594E+02
              0.193249496547358E+03
              0.206936672479208E+02
              0.192394178517819E+03
             -0.344806836369429E+03
              0.756625376913767E+02
              0.238054033593866E+02
              0.138603758397755E+03
              0.248907737134468E+03
             -0.434850011944866E+02
             -0.273039489596378E+03
             -0.156238713444566E+03
             -0.107878789704220E+03
             -0.525275091926460E+02
              0.257467581013911E+03
              0.158548215781886E+03
             -0.165590887536860E+03
             -0.150997645260835E+03
              0.124807810175047E+03
              0.122129221971917E+03
             -0.338509082487314E+03
              0.948365677510100E+02
              0.248383430126155E+03
             -0.122164530017479E+02
              0.290978364411005E+03
              0.147596423257870E+03
              0.232556545678942E+03
              0.353127232023756E+03
              0.579189759399959E+02
             -0.493906790388802E+03
              0.506877158253709E+02
              0.547821565224299E+03
              0.394139197573770E+03
             -0.264285740884556E+03
              0.263583304136330E+02
              0.342925372326688E+03
              0.311754937985810E+03
              0.148291674169571E+03
             -0.785904085553197E+02
              0.142073620012526E+03
              0.298631125068449E+03
             -0.133381489983225E+03
             -0.955812583874761E+02
              0.186334962523326E+03
             -0.133737340671726E+02
              0.174881392630711E+03
             -0.436622373731759E+02
              0.360575210573582E+03
             -0.137485765644324E+03
              0.822687676405371E+02
             -0.168095955982295E+03
              0.170318178687465E+03
             -0.225002428051334E+02
              0.269173544256793E+03
              0.187953004968111E+02
              0.106262757915509E+03
             -0.178625481315451E+03
             -0.109849468471206E+03
             -0.518405333098358E+02
             -0.446438492281379E+02
              0.282572608321057E+03
              0.117025416989645E+03
              0.362803217795764E+03
              0.301728442267051E+03
              0.674401469822169E+02
              0.257536891496562E+01
              0.354462061108261E+03
              0.186578172334415E+03
              0.508185575291100E+01
              0.314909553976140E+03
             -0.282575672321799E+03
              0.927608932663486E+02
             -0.177695850071752E+03
             -0.712348462974385E+02
              0.453424099925835E+03
             -0.694547555081522E+02
             -0.333525092119407E+01
             -0.597584840420097E+02
              0.376892694510741E+03
             -0.879502739408269E+02
             -0.104459822861659E+02
              0.760845531706520E+03
             -0.245908857021966E+03
             -0.262460825517171E+03
             -0.275511995223931E+03
             -0.161438668744174E+03
              0.160747216719067E+03
             -0.687218876807442E+02
              0.445482273483963E+02
             -0.139175461540535E+02
              0.962911274778853E+02
              0.156969616240592E+03
              0.180870320847305E+03
              0.266180450350987E+03
              0.146930009700597E+03
              0.186799653850871E+03
             -0.301812786894354E+03
             -0.288789382907853E+03
             -0.731540675199255E+02
             -0.283153411017579E+03
              0.453460258808285E+03
              0.388659089524508E+03
              0.185718870169295E+03
              0.502823914225146E+03
             -0.261742261459543E+03
             -0.106689816582154E+03
             -0.148323204752715E+03
              0.415884773738742E+03
 
 BEEF-vdW xc energy contributions
            1 :    -3811.559834604331     
            2 :     3432.620061017164     
            3 :    -2797.900705070389     
            4 :     2093.370162475442     
            5 :    -1482.522935681948     
            6 :     1044.162116782815     
            7 :    -763.7153804960371     
            8 :     573.8194711039469     
            9 :    -411.4725099244579     
           10 :     254.5679493909920     
           11 :    -120.3250830779834     
           12 :     36.06698373239760     
           13 :    -9.210027425281623     
           14 :     18.67877587814064     
           15 :    -30.50332490161327     
           16 :     21.99521535109852     
           17 :     5.266729318091620     
           18 :    -32.23119387062525     
           19 :     41.31142161061962     
           20 :    -31.38735436300067     
           21 :     17.66464023184335     
           22 :    -18.17024937872247     
           23 :     38.91800198033070     
           24 :    -69.64089740474810     
           25 :     92.58005825770806     
           26 :    -96.34789743778219     
           27 :     83.62382548421101     
           28 :    -67.29315152744584     
           29 :     59.19778306677244     
           30 :    -61.08324257115146     
           31 :    -326.9680593245639     
           32 :    -224.0030920789586     

     Writing all to output data dir ./GaN.save/
 
     init_run     :      5.73s CPU     11.39s WALL (       1 calls)
     electrons    :    383.56s CPU    392.56s WALL (       1 calls)
     forces       :     10.01s CPU     10.20s WALL (       1 calls)
     stress       :    175.33s CPU    178.15s WALL (       1 calls)

     Called by init_run:
     wfcinit      :      2.68s CPU      8.00s WALL (       1 calls)
     potinit      :      1.06s CPU      1.23s WALL (       1 calls)
     hinit0       :      1.09s CPU      1.20s WALL (       1 calls)

     Called by electrons:
     c_bands      :    374.55s CPU    382.90s WALL (       2 calls)
     sum_band     :      6.80s CPU      6.95s WALL (       2 calls)
     v_of_rho     :      1.19s CPU      1.29s WALL (       2 calls)
     v_h          :      0.01s CPU      0.01s WALL (       2 calls)
     v_xc         :     19.48s CPU     19.80s WALL (      38 calls)
     newd         :      0.22s CPU      0.23s WALL (       2 calls)
     PAW_pot      :      0.52s CPU      0.53s WALL (       2 calls)
     mix_rho      :      0.00s CPU      0.00s WALL (       2 calls)
     vdW_kernel   :      0.16s CPU      0.17s WALL (       1 calls)

     Called by c_bands:
     init_us_2    :      0.29s CPU      0.31s WALL (       4 calls)
     init_us_2:cp :      0.29s CPU      0.31s WALL (       4 calls)
     cegterg      :    266.50s CPU    273.50s WALL (       2 calls)

     Called by sum_band:
     sum_band:wei :      0.01s CPU      0.01s WALL (       2 calls)
     sum_band:loo :      6.41s CPU      6.47s WALL (       2 calls)
     sum_band:buf :      0.00s CPU      0.00s WALL (       2 calls)
     sum_band:ini :      0.22s CPU      0.22s WALL (       2 calls)
     sum_band:cal :      3.86s CPU      3.88s WALL (       2 calls)
     sum_band:bec :      0.05s CPU      0.05s WALL (       2 calls)
     addusdens    :      0.20s CPU      0.22s WALL (       2 calls)
     addusd:skk   :      0.03s CPU      0.03s WALL (       4 calls)
     addusd:dgemm :      0.10s CPU      0.10s WALL (       4 calls)
     addusd:qvan2 :      0.03s CPU      0.03s WALL (       4 calls)

     Called by *egterg:
     cdiaghg      :    201.10s CPU    206.17s WALL (      15 calls)
     cegterg:over :     11.42s CPU     11.83s WALL (      15 calls)
     cegterg:upda :      6.79s CPU      6.93s WALL (      15 calls)
     cegterg:last :      3.53s CPU      3.56s WALL (       2 calls)
     h_psi        :     30.05s CPU     30.59s WALL (      17 calls)
     s_psi        :      9.19s CPU      9.35s WALL (      17 calls)
     g_psi        :      0.04s CPU      0.04s WALL (      15 calls)

     Called by h_psi:
     h_psi:calbec :      9.81s CPU      9.88s WALL (      17 calls)
     vloc_psi     :     10.87s CPU     10.98s WALL (      17 calls)
     add_vuspsi   :      9.21s CPU      9.42s WALL (      17 calls)

     General routines
     calbec       :     23.33s CPU     23.50s WALL (      24 calls)
     fft          :      8.04s CPU      8.15s WALL (    2232 calls)
     ffts         :      0.03s CPU      0.03s WALL (       4 calls)
     fftw         :     12.25s CPU     12.37s WALL (   12128 calls)
     interpolate  :      0.01s CPU      0.01s WALL (       2 calls)
 
     Parallel routines

     PAW routines
     PAW_pot      :      0.52s CPU      0.53s WALL (       2 calls)
     PAW_symme    :      0.01s CPU      0.01s WALL (       3 calls)
 
     PWSCF        :   9m54.40s CPU  10m19.23s WALL

 
   This run was terminated on:  10: 8: 6   2Mar2024            

=------------------------------------------------------------------------------=
   JOB DONE.
=------------------------------------------------------------------------------=
