
     Program PWSCF v.7.1 starts on 26Feb2024 at  7:34:27 

     This program is part of the open-source Quantum ESPRESSO suite
     for quantum simulation of materials; please cite
         "P. Giannozzi et al., J. Phys.:Condens. Matter 21 395502 (2009);
         "P. Giannozzi et al., J. Phys.:Condens. Matter 29 465901 (2017);
         "P. Giannozzi et al., J. Chem. Phys. 152 154105 (2020);
          URL http://www.quantum-espresso.org", 
     in publications or presentations arising from this work. More details at
     http://www.quantum-espresso.org/quote

     Parallel version (MPI & OpenMP), running on     256 processor cores
     Number of MPI processes:               256
     Threads/MPI process:                     1

     MPI processes distributed on     2 nodes
     1902168 MiB available memory on the printing compute node when the environment starts
 
     Reading input from espresso.pwi
Warning: card &CELL ignored
Warning: card    CELL_DYNAMICS    = 'BFGS' ignored
Warning: card / ignored

     Current dimensions of program PWSCF are:
     Max number of different atomic species (ntypx) = 10
     Max number of k-points (npk) =  40000
     Max angular momentum in pseudopotentials (lmaxx) =  4
     file C.pbe-n-kjpaw_psl.1.0.0.UPF: wavefunction(s)  2S 2P renormalized

     **************************************************************************
     Initializing libbeef V0.1.2 with the BEEF-vdW functional.
     Citation: Wellendorff et al., PRB 85, 235149 (2012).
     **************************************************************************


     IMPORTANT: XC functional enforced from input :
     Exchange-correlation= BEEF-VDW
                           (   1   4  43  14   2   0   0)
     Any further DFT definition will be discarded
     Please, verify this is what you really want

 
     R & G space division:  proc/nbgrp/npool/nimage =     256
     WARNING: too many processors for an effective parallelization!
     wavefunctions fft division:  task group distribution
                                  #TG    x Z-proc =       8     32
     Subspace diagonalization in iterative solution of the eigenvalue problem:
     a serial algorithm will be used

 
     Parallelization info
     --------------------
     sticks:   dense  smooth     PW     G-vecs:    dense   smooth      PW
     Min         124      99     24                16605    11875    1478
     Max         127     100     25                16616    11887    1491
     Sum       31757   25377   6349              4252701  3041563  379965
 
     Using Pencil Decomposition
 


     bravais-lattice index     =            1
     lattice parameter (alat)  =      33.7534  a.u.
     unit-cell volume          =   38454.8879 (a.u.)^3
     number of atoms/cell      =          999
     number of atomic types    =            1
     number of electrons       =      3995.00
     number of Kohn-Sham states=         2398
     kinetic-energy cutoff     =      70.0000  Ry
     charge density cutoff     =     350.0000  Ry
     scf convergence threshold =      1.0E-07
     mixing beta               =       0.7000
     number of iterations used =            8  plain     mixing
     Exchange-correlation= BEEF-VDW
                           (   1   4  43  14   2   0   0)

     celldm(1)=  33.753373  celldm(2)=   0.000000  celldm(3)=   0.000000
     celldm(4)=   0.000000  celldm(5)=   0.000000  celldm(6)=   0.000000

     crystal axes: (cart. coord. in units of alat)
               a(1) = (   1.000000   0.000000   0.000000 )  
               a(2) = (   0.000000   1.000000   0.000000 )  
               a(3) = (   0.000000   0.000000   1.000000 )  

     reciprocal axes: (cart. coord. in units 2 pi/alat)
               b(1) = (  1.000000  0.000000  0.000000 )  
               b(2) = (  0.000000  1.000000  0.000000 )  
               b(3) = (  0.000000  0.000000  1.000000 )  


     PseudoPot. # 1 for C  read from file:
     //group///packages/espresso/pseudo/psl_1.0.0/pslibrary.1.0.0/pbe/PSEUDOPOTENTIALS/C.pbe-n-kjpaw_psl.1.0.0.UPF
     MD5 check sum: 5459cf7f2c8c37df2f7cde8914797f4d
     Pseudo is Projector augmented-wave + core cor, Zval =  4.0
     Generated using 'atomic' code by A. Dal Corso  v.7.1
     Shape of augmentation charge: PSQ
     Using radial grid of 1073 points,  4 beta functions with: 
                l(1) =   0
                l(2) =   0
                l(3) =   1
                l(4) =   1
     Q(r) pseudized with 0 coefficients 


     atomic species   valence    mass     pseudopotential
        C              4.00    12.01100     C ( 1.00)

      2 Sym. Ops. (no inversion) found


                                    s                        frac. trans.

      isym =  1     identity                                     

 cryst.   s( 1) = (     1          0          0      )
                  (     0          1          0      )
                  (     0          0          1      )

 cart.    s( 1) = (  1.0000000  0.0000000  0.0000000 )
                  (  0.0000000  1.0000000  0.0000000 )
                  (  0.0000000  0.0000000  1.0000000 )


      isym =  2     inv. 180 deg rotation - cart. axis [-1,0,1]  

 cryst.   s( 2) = (     0          0          1      )
                  (     0          1          0      )
                  (     1          0          0      )

 cart.    s( 2) = (  0.0000000  0.0000000  1.0000000 )
                  (  0.0000000  1.0000000  0.0000000 )
                  (  1.0000000  0.0000000  0.0000000 )


     point group C_s (m)    
     there are  2 classes
     the character table:

       E     s    
A'     1.00  1.00
A''    1.00 -1.00

     the symmetry operations in each class and the name of the first element:

     E        1
          identity                                               
     s        2
          inv. 180 deg rotation - cart. axis [-1,0,1]            

   Cartesian axes

     site n.     atom                  positions (alat units)
         1           C   tau(   1) = (   0.0500012   0.1499988   0.2500012  )
         2           C   tau(   2) = (   0.0500012   0.1499988   0.4500012  )
         3           C   tau(   3) = (   0.0500012   0.1499988   0.6500012  )
         4           C   tau(   4) = (   0.0500012   0.1499988   0.8500012  )
         5           C   tau(   5) = (   0.0500012   0.3499988   0.0500012  )
         6           C   tau(   6) = (   0.0500012   0.3499988   0.2500012  )
         7           C   tau(   7) = (   0.0500012   0.3499988   0.4500012  )
         8           C   tau(   8) = (   0.0500012   0.3499988   0.6500012  )
         9           C   tau(   9) = (   0.0500012   0.3499988   0.8500012  )
        10           C   tau(  10) = (   0.0500012   0.5499988   0.0500012  )
        11           C   tau(  11) = (   0.0500012   0.5499988   0.2500012  )
        12           C   tau(  12) = (   0.0500012   0.5499988   0.4500012  )
        13           C   tau(  13) = (   0.0500012   0.5499988   0.6500012  )
        14           C   tau(  14) = (   0.0500012   0.5499988   0.8500012  )
        15           C   tau(  15) = (   0.0500012   0.7499988   0.0500012  )
        16           C   tau(  16) = (   0.0500012   0.7499988   0.2500012  )
        17           C   tau(  17) = (   0.0500012   0.7499988   0.4500012  )
        18           C   tau(  18) = (   0.0500012   0.7499988   0.6500012  )
        19           C   tau(  19) = (   0.0500012   0.7499988   0.8500012  )
        20           C   tau(  20) = (   0.0500012   0.9499988   0.0500012  )
        21           C   tau(  21) = (   0.0500012   0.9499988   0.2500012  )
        22           C   tau(  22) = (   0.0500012   0.9499988   0.4500012  )
        23           C   tau(  23) = (   0.0500012   0.9499988   0.6500012  )
        24           C   tau(  24) = (   0.0500012   0.9499988   0.8500012  )
        25           C   tau(  25) = (   0.2500012   0.1499988   0.0500012  )
        26           C   tau(  26) = (   0.2500012   0.1499988   0.2500012  )
        27           C   tau(  27) = (   0.2500012   0.1499988   0.4500012  )
        28           C   tau(  28) = (   0.2500012   0.1499988   0.6500012  )
        29           C   tau(  29) = (   0.2500012   0.1499988   0.8500012  )
        30           C   tau(  30) = (   0.2500012   0.3499988   0.0500012  )
        31           C   tau(  31) = (   0.2500012   0.3499988   0.2500012  )
        32           C   tau(  32) = (   0.2500012   0.3499988   0.4500012  )
        33           C   tau(  33) = (   0.2500012   0.3499988   0.6500012  )
        34           C   tau(  34) = (   0.2500012   0.3499988   0.8500012  )
        35           C   tau(  35) = (   0.2500012   0.5499988   0.0500012  )
        36           C   tau(  36) = (   0.2500012   0.5499988   0.2500012  )
        37           C   tau(  37) = (   0.2500012   0.5499988   0.4500012  )
        38           C   tau(  38) = (   0.2500012   0.5499988   0.6500012  )
        39           C   tau(  39) = (   0.2500012   0.5499988   0.8500012  )
        40           C   tau(  40) = (   0.2500012   0.7499988   0.0500012  )
        41           C   tau(  41) = (   0.2500012   0.7499988   0.2500012  )
        42           C   tau(  42) = (   0.2500012   0.7499988   0.4500012  )
        43           C   tau(  43) = (   0.2500012   0.7499988   0.6500012  )
        44           C   tau(  44) = (   0.2500012   0.7499988   0.8500012  )
        45           C   tau(  45) = (   0.2500012   0.9499988   0.0500012  )
        46           C   tau(  46) = (   0.2500012   0.9499988   0.2500012  )
        47           C   tau(  47) = (   0.2500012   0.9499988   0.4500012  )
        48           C   tau(  48) = (   0.2500012   0.9499988   0.6500012  )
        49           C   tau(  49) = (   0.2500012   0.9499988   0.8500012  )
        50           C   tau(  50) = (   0.4500012   0.1499988   0.0500012  )
        51           C   tau(  51) = (   0.4500012   0.1499988   0.2500012  )
        52           C   tau(  52) = (   0.4500012   0.1499988   0.4500012  )
        53           C   tau(  53) = (   0.4500012   0.1499988   0.6500012  )
        54           C   tau(  54) = (   0.4500012   0.1499988   0.8500012  )
        55           C   tau(  55) = (   0.4500012   0.3499988   0.0500012  )
        56           C   tau(  56) = (   0.4500012   0.3499988   0.2500012  )
        57           C   tau(  57) = (   0.4500012   0.3499988   0.4500012  )
        58           C   tau(  58) = (   0.4500012   0.3499988   0.6500012  )
        59           C   tau(  59) = (   0.4500012   0.3499988   0.8500012  )
        60           C   tau(  60) = (   0.4500012   0.5499988   0.0500012  )
        61           C   tau(  61) = (   0.4500012   0.5499988   0.2500012  )
        62           C   tau(  62) = (   0.4500012   0.5499988   0.4500012  )
        63           C   tau(  63) = (   0.4500012   0.5499988   0.6500012  )
        64           C   tau(  64) = (   0.4500012   0.5499988   0.8500012  )
        65           C   tau(  65) = (   0.4500012   0.7499988   0.0500012  )
        66           C   tau(  66) = (   0.4500012   0.7499988   0.2500012  )
        67           C   tau(  67) = (   0.4500012   0.7499988   0.4500012  )
        68           C   tau(  68) = (   0.4500012   0.7499988   0.6500012  )
        69           C   tau(  69) = (   0.4500012   0.7499988   0.8500012  )
        70           C   tau(  70) = (   0.4500012   0.9499988   0.0500012  )
        71           C   tau(  71) = (   0.4500012   0.9499988   0.2500012  )
        72           C   tau(  72) = (   0.4500012   0.9499988   0.4500012  )
        73           C   tau(  73) = (   0.4500012   0.9499988   0.6500012  )
        74           C   tau(  74) = (   0.4500012   0.9499988   0.8500012  )
        75           C   tau(  75) = (   0.6500012   0.1499988   0.0500012  )
        76           C   tau(  76) = (   0.6500012   0.1499988   0.2500012  )
        77           C   tau(  77) = (   0.6500012   0.1499988   0.4500012  )
        78           C   tau(  78) = (   0.6500012   0.1499988   0.6500012  )
        79           C   tau(  79) = (   0.6500012   0.1499988   0.8500012  )
        80           C   tau(  80) = (   0.6500012   0.3499988   0.0500012  )
        81           C   tau(  81) = (   0.6500012   0.3499988   0.2500012  )
        82           C   tau(  82) = (   0.6500012   0.3499988   0.4500012  )
        83           C   tau(  83) = (   0.6500012   0.3499988   0.6500012  )
        84           C   tau(  84) = (   0.6500012   0.3499988   0.8500012  )
        85           C   tau(  85) = (   0.6500012   0.5499988   0.0500012  )
        86           C   tau(  86) = (   0.6500012   0.5499988   0.2500012  )
        87           C   tau(  87) = (   0.6500012   0.5499988   0.4500012  )
        88           C   tau(  88) = (   0.6500012   0.5499988   0.6500012  )
        89           C   tau(  89) = (   0.6500012   0.5499988   0.8500012  )
        90           C   tau(  90) = (   0.6500012   0.7499988   0.0500012  )
        91           C   tau(  91) = (   0.6500012   0.7499988   0.2500012  )
        92           C   tau(  92) = (   0.6500012   0.7499988   0.4500012  )
        93           C   tau(  93) = (   0.6500012   0.7499988   0.6500012  )
        94           C   tau(  94) = (   0.6500012   0.7499988   0.8500012  )
        95           C   tau(  95) = (   0.6500012   0.9499988   0.0500012  )
        96           C   tau(  96) = (   0.6500012   0.9499988   0.2500012  )
        97           C   tau(  97) = (   0.6500012   0.9499988   0.4500012  )
        98           C   tau(  98) = (   0.6500012   0.9499988   0.6500012  )
        99           C   tau(  99) = (   0.6500012   0.9499988   0.8500012  )
       100           C   tau( 100) = (   0.8500012   0.1499988   0.0500012  )
       101           C   tau( 101) = (   0.8500012   0.1499988   0.2500012  )
       102           C   tau( 102) = (   0.8500012   0.1499988   0.4500012  )
       103           C   tau( 103) = (   0.8500012   0.1499988   0.6500012  )
       104           C   tau( 104) = (   0.8500012   0.1499988   0.8500012  )
       105           C   tau( 105) = (   0.8500012   0.3499988   0.0500012  )
       106           C   tau( 106) = (   0.8500012   0.3499988   0.2500012  )
       107           C   tau( 107) = (   0.8500012   0.3499988   0.4500012  )
       108           C   tau( 108) = (   0.8500012   0.3499988   0.6500012  )
       109           C   tau( 109) = (   0.8500012   0.3499988   0.8500012  )
       110           C   tau( 110) = (   0.8500012   0.5499988   0.0500012  )
       111           C   tau( 111) = (   0.8500012   0.5499988   0.2500012  )
       112           C   tau( 112) = (   0.8500012   0.5499988   0.4500012  )
       113           C   tau( 113) = (   0.8500012   0.5499988   0.6500012  )
       114           C   tau( 114) = (   0.8500012   0.5499988   0.8500012  )
       115           C   tau( 115) = (   0.8500012   0.7499988   0.0500012  )
       116           C   tau( 116) = (   0.8500012   0.7499988   0.2500012  )
       117           C   tau( 117) = (   0.8500012   0.7499988   0.4500012  )
       118           C   tau( 118) = (   0.8500012   0.7499988   0.6500012  )
       119           C   tau( 119) = (   0.8500012   0.7499988   0.8500012  )
       120           C   tau( 120) = (   0.8500012   0.9499988   0.0500012  )
       121           C   tau( 121) = (   0.8500012   0.9499988   0.2500012  )
       122           C   tau( 122) = (   0.8500012   0.9499988   0.4500012  )
       123           C   tau( 123) = (   0.8500012   0.9499988   0.6500012  )
       124           C   tau( 124) = (   0.8500012   0.9499988   0.8500012  )
       125           C   tau( 125) = (   0.0000000   0.0000000   0.1000000  )
       126           C   tau( 126) = (   0.0000000   0.0000000   0.3000000  )
       127           C   tau( 127) = (   0.0000000   0.0000000   0.5000000  )
       128           C   tau( 128) = (   0.0000000   0.0000000   0.7000000  )
       129           C   tau( 129) = (   0.0000000   0.0000000   0.9000000  )
       130           C   tau( 130) = (   0.0000000   0.2000000   0.1000000  )
       131           C   tau( 131) = (   0.0000000   0.2000000   0.3000000  )
       132           C   tau( 132) = (   0.0000000   0.2000000   0.5000000  )
       133           C   tau( 133) = (   0.0000000   0.2000000   0.7000000  )
       134           C   tau( 134) = (   0.0000000   0.2000000   0.9000000  )
       135           C   tau( 135) = (   0.0000000   0.4000000   0.1000000  )
       136           C   tau( 136) = (   0.0000000   0.4000000   0.3000000  )
       137           C   tau( 137) = (   0.0000000   0.4000000   0.5000000  )
       138           C   tau( 138) = (   0.0000000   0.4000000   0.7000000  )
       139           C   tau( 139) = (   0.0000000   0.4000000   0.9000000  )
       140           C   tau( 140) = (   0.0000000   0.6000000   0.1000000  )
       141           C   tau( 141) = (   0.0000000   0.6000000   0.3000000  )
       142           C   tau( 142) = (   0.0000000   0.6000000   0.5000000  )
       143           C   tau( 143) = (   0.0000000   0.6000000   0.7000000  )
       144           C   tau( 144) = (   0.0000000   0.6000000   0.9000000  )
       145           C   tau( 145) = (   0.0000000   0.8000000   0.1000000  )
       146           C   tau( 146) = (   0.0000000   0.8000000   0.3000000  )
       147           C   tau( 147) = (   0.0000000   0.8000000   0.5000000  )
       148           C   tau( 148) = (   0.0000000   0.8000000   0.7000000  )
       149           C   tau( 149) = (   0.0000000   0.8000000   0.9000000  )
       150           C   tau( 150) = (   0.2000000   0.0000000   0.1000000  )
       151           C   tau( 151) = (   0.2000000   0.0000000   0.3000000  )
       152           C   tau( 152) = (   0.2000000   0.0000000   0.5000000  )
       153           C   tau( 153) = (   0.2000000   0.0000000   0.7000000  )
       154           C   tau( 154) = (   0.2000000   0.0000000   0.9000000  )
       155           C   tau( 155) = (   0.2000000   0.2000000   0.1000000  )
       156           C   tau( 156) = (   0.2000000   0.2000000   0.3000000  )
       157           C   tau( 157) = (   0.2000000   0.2000000   0.5000000  )
       158           C   tau( 158) = (   0.2000000   0.2000000   0.7000000  )
       159           C   tau( 159) = (   0.2000000   0.2000000   0.9000000  )
       160           C   tau( 160) = (   0.2000000   0.4000000   0.1000000  )
       161           C   tau( 161) = (   0.2000000   0.4000000   0.3000000  )
       162           C   tau( 162) = (   0.2000000   0.4000000   0.5000000  )
       163           C   tau( 163) = (   0.2000000   0.4000000   0.7000000  )
       164           C   tau( 164) = (   0.2000000   0.4000000   0.9000000  )
       165           C   tau( 165) = (   0.2000000   0.6000000   0.1000000  )
       166           C   tau( 166) = (   0.2000000   0.6000000   0.3000000  )
       167           C   tau( 167) = (   0.2000000   0.6000000   0.5000000  )
       168           C   tau( 168) = (   0.2000000   0.6000000   0.7000000  )
       169           C   tau( 169) = (   0.2000000   0.6000000   0.9000000  )
       170           C   tau( 170) = (   0.2000000   0.8000000   0.1000000  )
       171           C   tau( 171) = (   0.2000000   0.8000000   0.3000000  )
       172           C   tau( 172) = (   0.2000000   0.8000000   0.5000000  )
       173           C   tau( 173) = (   0.2000000   0.8000000   0.7000000  )
       174           C   tau( 174) = (   0.2000000   0.8000000   0.9000000  )
       175           C   tau( 175) = (   0.4000000   0.0000000   0.1000000  )
       176           C   tau( 176) = (   0.4000000   0.0000000   0.3000000  )
       177           C   tau( 177) = (   0.4000000   0.0000000   0.5000000  )
       178           C   tau( 178) = (   0.4000000   0.0000000   0.7000000  )
       179           C   tau( 179) = (   0.4000000   0.0000000   0.9000000  )
       180           C   tau( 180) = (   0.4000000   0.2000000   0.1000000  )
       181           C   tau( 181) = (   0.4000000   0.2000000   0.3000000  )
       182           C   tau( 182) = (   0.4000000   0.2000000   0.5000000  )
       183           C   tau( 183) = (   0.4000000   0.2000000   0.7000000  )
       184           C   tau( 184) = (   0.4000000   0.2000000   0.9000000  )
       185           C   tau( 185) = (   0.4000000   0.4000000   0.1000000  )
       186           C   tau( 186) = (   0.4000000   0.4000000   0.3000000  )
       187           C   tau( 187) = (   0.4000000   0.4000000   0.5000000  )
       188           C   tau( 188) = (   0.4000000   0.4000000   0.7000000  )
       189           C   tau( 189) = (   0.4000000   0.4000000   0.9000000  )
       190           C   tau( 190) = (   0.4000000   0.6000000   0.1000000  )
       191           C   tau( 191) = (   0.4000000   0.6000000   0.3000000  )
       192           C   tau( 192) = (   0.4000000   0.6000000   0.5000000  )
       193           C   tau( 193) = (   0.4000000   0.6000000   0.7000000  )
       194           C   tau( 194) = (   0.4000000   0.6000000   0.9000000  )
       195           C   tau( 195) = (   0.4000000   0.8000000   0.1000000  )
       196           C   tau( 196) = (   0.4000000   0.8000000   0.3000000  )
       197           C   tau( 197) = (   0.4000000   0.8000000   0.5000000  )
       198           C   tau( 198) = (   0.4000000   0.8000000   0.7000000  )
       199           C   tau( 199) = (   0.4000000   0.8000000   0.9000000  )
       200           C   tau( 200) = (   0.6000000   0.0000000   0.1000000  )
       201           C   tau( 201) = (   0.6000000   0.0000000   0.3000000  )
       202           C   tau( 202) = (   0.6000000   0.0000000   0.5000000  )
       203           C   tau( 203) = (   0.6000000   0.0000000   0.7000000  )
       204           C   tau( 204) = (   0.6000000   0.0000000   0.9000000  )
       205           C   tau( 205) = (   0.6000000   0.2000000   0.1000000  )
       206           C   tau( 206) = (   0.6000000   0.2000000   0.3000000  )
       207           C   tau( 207) = (   0.6000000   0.2000000   0.5000000  )
       208           C   tau( 208) = (   0.6000000   0.2000000   0.7000000  )
       209           C   tau( 209) = (   0.6000000   0.2000000   0.9000000  )
       210           C   tau( 210) = (   0.6000000   0.4000000   0.1000000  )
       211           C   tau( 211) = (   0.6000000   0.4000000   0.3000000  )
       212           C   tau( 212) = (   0.6000000   0.4000000   0.5000000  )
       213           C   tau( 213) = (   0.6000000   0.4000000   0.7000000  )
       214           C   tau( 214) = (   0.6000000   0.4000000   0.9000000  )
       215           C   tau( 215) = (   0.6000000   0.6000000   0.1000000  )
       216           C   tau( 216) = (   0.6000000   0.6000000   0.3000000  )
       217           C   tau( 217) = (   0.6000000   0.6000000   0.5000000  )
       218           C   tau( 218) = (   0.6000000   0.6000000   0.7000000  )
       219           C   tau( 219) = (   0.6000000   0.6000000   0.9000000  )
       220           C   tau( 220) = (   0.6000000   0.8000000   0.1000000  )
       221           C   tau( 221) = (   0.6000000   0.8000000   0.3000000  )
       222           C   tau( 222) = (   0.6000000   0.8000000   0.5000000  )
       223           C   tau( 223) = (   0.6000000   0.8000000   0.7000000  )
       224           C   tau( 224) = (   0.6000000   0.8000000   0.9000000  )
       225           C   tau( 225) = (   0.8000000   0.0000000   0.1000000  )
       226           C   tau( 226) = (   0.8000000   0.0000000   0.3000000  )
       227           C   tau( 227) = (   0.8000000   0.0000000   0.5000000  )
       228           C   tau( 228) = (   0.8000000   0.0000000   0.7000000  )
       229           C   tau( 229) = (   0.8000000   0.0000000   0.9000000  )
       230           C   tau( 230) = (   0.8000000   0.2000000   0.1000000  )
       231           C   tau( 231) = (   0.8000000   0.2000000   0.3000000  )
       232           C   tau( 232) = (   0.8000000   0.2000000   0.5000000  )
       233           C   tau( 233) = (   0.8000000   0.2000000   0.7000000  )
       234           C   tau( 234) = (   0.8000000   0.2000000   0.9000000  )
       235           C   tau( 235) = (   0.8000000   0.4000000   0.1000000  )
       236           C   tau( 236) = (   0.8000000   0.4000000   0.3000000  )
       237           C   tau( 237) = (   0.8000000   0.4000000   0.5000000  )
       238           C   tau( 238) = (   0.8000000   0.4000000   0.7000000  )
       239           C   tau( 239) = (   0.8000000   0.4000000   0.9000000  )
       240           C   tau( 240) = (   0.8000000   0.6000000   0.1000000  )
       241           C   tau( 241) = (   0.8000000   0.6000000   0.3000000  )
       242           C   tau( 242) = (   0.8000000   0.6000000   0.5000000  )
       243           C   tau( 243) = (   0.8000000   0.6000000   0.7000000  )
       244           C   tau( 244) = (   0.8000000   0.6000000   0.9000000  )
       245           C   tau( 245) = (   0.8000000   0.8000000   0.1000000  )
       246           C   tau( 246) = (   0.8000000   0.8000000   0.3000000  )
       247           C   tau( 247) = (   0.8000000   0.8000000   0.5000000  )
       248           C   tau( 248) = (   0.8000000   0.8000000   0.7000000  )
       249           C   tau( 249) = (   0.8000000   0.8000000   0.9000000  )
       250           C   tau( 250) = (   0.0500012   0.0500012   0.1499988  )
       251           C   tau( 251) = (   0.0500012   0.0500012   0.3499988  )
       252           C   tau( 252) = (   0.0500012   0.0500012   0.5499988  )
       253           C   tau( 253) = (   0.0500012   0.0500012   0.7499988  )
       254           C   tau( 254) = (   0.0500012   0.0500012   0.9499988  )
       255           C   tau( 255) = (   0.0500012   0.2500012   0.1499988  )
       256           C   tau( 256) = (   0.0500012   0.2500012   0.3499988  )
       257           C   tau( 257) = (   0.0500012   0.2500012   0.5499988  )
       258           C   tau( 258) = (   0.0500012   0.2500012   0.7499988  )
       259           C   tau( 259) = (   0.0500012   0.2500012   0.9499988  )
       260           C   tau( 260) = (   0.0500012   0.4500012   0.1499988  )
       261           C   tau( 261) = (   0.0500012   0.4500012   0.3499988  )
       262           C   tau( 262) = (   0.0500012   0.4500012   0.5499988  )
       263           C   tau( 263) = (   0.0500012   0.4500012   0.7499988  )
       264           C   tau( 264) = (   0.0500012   0.4500012   0.9499988  )
       265           C   tau( 265) = (   0.0500012   0.6500012   0.1499988  )
       266           C   tau( 266) = (   0.0500012   0.6500012   0.3499988  )
       267           C   tau( 267) = (   0.0500012   0.6500012   0.5499988  )
       268           C   tau( 268) = (   0.0500012   0.6500012   0.7499988  )
       269           C   tau( 269) = (   0.0500012   0.6500012   0.9499988  )
       270           C   tau( 270) = (   0.0500012   0.8500012   0.1499988  )
       271           C   tau( 271) = (   0.0500012   0.8500012   0.3499988  )
       272           C   tau( 272) = (   0.0500012   0.8500012   0.5499988  )
       273           C   tau( 273) = (   0.0500012   0.8500012   0.7499988  )
       274           C   tau( 274) = (   0.0500012   0.8500012   0.9499988  )
       275           C   tau( 275) = (   0.2500012   0.0500012   0.1499988  )
       276           C   tau( 276) = (   0.2500012   0.0500012   0.3499988  )
       277           C   tau( 277) = (   0.2500012   0.0500012   0.5499988  )
       278           C   tau( 278) = (   0.2500012   0.0500012   0.7499988  )
       279           C   tau( 279) = (   0.2500012   0.0500012   0.9499988  )
       280           C   tau( 280) = (   0.2500012   0.2500012   0.1499988  )
       281           C   tau( 281) = (   0.2500012   0.2500012   0.3499988  )
       282           C   tau( 282) = (   0.2500012   0.2500012   0.5499988  )
       283           C   tau( 283) = (   0.2500012   0.2500012   0.7499988  )
       284           C   tau( 284) = (   0.2500012   0.2500012   0.9499988  )
       285           C   tau( 285) = (   0.2500012   0.4500012   0.1499988  )
       286           C   tau( 286) = (   0.2500012   0.4500012   0.3499988  )
       287           C   tau( 287) = (   0.2500012   0.4500012   0.5499988  )
       288           C   tau( 288) = (   0.2500012   0.4500012   0.7499988  )
       289           C   tau( 289) = (   0.2500012   0.4500012   0.9499988  )
       290           C   tau( 290) = (   0.2500012   0.6500012   0.1499988  )
       291           C   tau( 291) = (   0.2500012   0.6500012   0.3499988  )
       292           C   tau( 292) = (   0.2500012   0.6500012   0.5499988  )
       293           C   tau( 293) = (   0.2500012   0.6500012   0.7499988  )
       294           C   tau( 294) = (   0.2500012   0.6500012   0.9499988  )
       295           C   tau( 295) = (   0.2500012   0.8500012   0.1499988  )
       296           C   tau( 296) = (   0.2500012   0.8500012   0.3499988  )
       297           C   tau( 297) = (   0.2500012   0.8500012   0.5499988  )
       298           C   tau( 298) = (   0.2500012   0.8500012   0.7499988  )
       299           C   tau( 299) = (   0.2500012   0.8500012   0.9499988  )
       300           C   tau( 300) = (   0.4500012   0.0500012   0.1499988  )
       301           C   tau( 301) = (   0.4500012   0.0500012   0.3499988  )
       302           C   tau( 302) = (   0.4500012   0.0500012   0.5499988  )
       303           C   tau( 303) = (   0.4500012   0.0500012   0.7499988  )
       304           C   tau( 304) = (   0.4500012   0.0500012   0.9499988  )
       305           C   tau( 305) = (   0.4500012   0.2500012   0.1499988  )
       306           C   tau( 306) = (   0.4500012   0.2500012   0.3499988  )
       307           C   tau( 307) = (   0.4500012   0.2500012   0.5499988  )
       308           C   tau( 308) = (   0.4500012   0.2500012   0.7499988  )
       309           C   tau( 309) = (   0.4500012   0.2500012   0.9499988  )
       310           C   tau( 310) = (   0.4500012   0.4500012   0.1499988  )
       311           C   tau( 311) = (   0.4500012   0.4500012   0.3499988  )
       312           C   tau( 312) = (   0.4500012   0.4500012   0.5499988  )
       313           C   tau( 313) = (   0.4500012   0.4500012   0.7499988  )
       314           C   tau( 314) = (   0.4500012   0.4500012   0.9499988  )
       315           C   tau( 315) = (   0.4500012   0.6500012   0.1499988  )
       316           C   tau( 316) = (   0.4500012   0.6500012   0.3499988  )
       317           C   tau( 317) = (   0.4500012   0.6500012   0.5499988  )
       318           C   tau( 318) = (   0.4500012   0.6500012   0.7499988  )
       319           C   tau( 319) = (   0.4500012   0.6500012   0.9499988  )
       320           C   tau( 320) = (   0.4500012   0.8500012   0.1499988  )
       321           C   tau( 321) = (   0.4500012   0.8500012   0.3499988  )
       322           C   tau( 322) = (   0.4500012   0.8500012   0.5499988  )
       323           C   tau( 323) = (   0.4500012   0.8500012   0.7499988  )
       324           C   tau( 324) = (   0.4500012   0.8500012   0.9499988  )
       325           C   tau( 325) = (   0.6500012   0.0500012   0.1499988  )
       326           C   tau( 326) = (   0.6500012   0.0500012   0.3499988  )
       327           C   tau( 327) = (   0.6500012   0.0500012   0.5499988  )
       328           C   tau( 328) = (   0.6500012   0.0500012   0.7499988  )
       329           C   tau( 329) = (   0.6500012   0.0500012   0.9499988  )
       330           C   tau( 330) = (   0.6500012   0.2500012   0.1499988  )
       331           C   tau( 331) = (   0.6500012   0.2500012   0.3499988  )
       332           C   tau( 332) = (   0.6500012   0.2500012   0.5499988  )
       333           C   tau( 333) = (   0.6500012   0.2500012   0.7499988  )
       334           C   tau( 334) = (   0.6500012   0.2500012   0.9499988  )
       335           C   tau( 335) = (   0.6500012   0.4500012   0.1499988  )
       336           C   tau( 336) = (   0.6500012   0.4500012   0.3499988  )
       337           C   tau( 337) = (   0.6500012   0.4500012   0.5499988  )
       338           C   tau( 338) = (   0.6500012   0.4500012   0.7499988  )
       339           C   tau( 339) = (   0.6500012   0.4500012   0.9499988  )
       340           C   tau( 340) = (   0.6500012   0.6500012   0.1499988  )
       341           C   tau( 341) = (   0.6500012   0.6500012   0.3499988  )
       342           C   tau( 342) = (   0.6500012   0.6500012   0.5499988  )
       343           C   tau( 343) = (   0.6500012   0.6500012   0.7499988  )
       344           C   tau( 344) = (   0.6500012   0.6500012   0.9499988  )
       345           C   tau( 345) = (   0.6500012   0.8500012   0.1499988  )
       346           C   tau( 346) = (   0.6500012   0.8500012   0.3499988  )
       347           C   tau( 347) = (   0.6500012   0.8500012   0.5499988  )
       348           C   tau( 348) = (   0.6500012   0.8500012   0.7499988  )
       349           C   tau( 349) = (   0.6500012   0.8500012   0.9499988  )
       350           C   tau( 350) = (   0.8500012   0.0500012   0.1499988  )
       351           C   tau( 351) = (   0.8500012   0.0500012   0.3499988  )
       352           C   tau( 352) = (   0.8500012   0.0500012   0.5499988  )
       353           C   tau( 353) = (   0.8500012   0.0500012   0.7499988  )
       354           C   tau( 354) = (   0.8500012   0.0500012   0.9499988  )
       355           C   tau( 355) = (   0.8500012   0.2500012   0.1499988  )
       356           C   tau( 356) = (   0.8500012   0.2500012   0.3499988  )
       357           C   tau( 357) = (   0.8500012   0.2500012   0.5499988  )
       358           C   tau( 358) = (   0.8500012   0.2500012   0.7499988  )
       359           C   tau( 359) = (   0.8500012   0.2500012   0.9499988  )
       360           C   tau( 360) = (   0.8500012   0.4500012   0.1499988  )
       361           C   tau( 361) = (   0.8500012   0.4500012   0.3499988  )
       362           C   tau( 362) = (   0.8500012   0.4500012   0.5499988  )
       363           C   tau( 363) = (   0.8500012   0.4500012   0.7499988  )
       364           C   tau( 364) = (   0.8500012   0.4500012   0.9499988  )
       365           C   tau( 365) = (   0.8500012   0.6500012   0.1499988  )
       366           C   tau( 366) = (   0.8500012   0.6500012   0.3499988  )
       367           C   tau( 367) = (   0.8500012   0.6500012   0.5499988  )
       368           C   tau( 368) = (   0.8500012   0.6500012   0.7499988  )
       369           C   tau( 369) = (   0.8500012   0.6500012   0.9499988  )
       370           C   tau( 370) = (   0.8500012   0.8500012   0.1499988  )
       371           C   tau( 371) = (   0.8500012   0.8500012   0.3499988  )
       372           C   tau( 372) = (   0.8500012   0.8500012   0.5499988  )
       373           C   tau( 373) = (   0.8500012   0.8500012   0.7499988  )
       374           C   tau( 374) = (   0.8500012   0.8500012   0.9499988  )
       375           C   tau( 375) = (   0.0000000   0.1000000   0.0000000  )
       376           C   tau( 376) = (   0.0000000   0.1000000   0.2000000  )
       377           C   tau( 377) = (   0.0000000   0.1000000   0.4000000  )
       378           C   tau( 378) = (   0.0000000   0.1000000   0.6000000  )
       379           C   tau( 379) = (   0.0000000   0.1000000   0.8000000  )
       380           C   tau( 380) = (   0.0000000   0.3000000   0.0000000  )
       381           C   tau( 381) = (   0.0000000   0.3000000   0.2000000  )
       382           C   tau( 382) = (   0.0000000   0.3000000   0.4000000  )
       383           C   tau( 383) = (   0.0000000   0.3000000   0.6000000  )
       384           C   tau( 384) = (   0.0000000   0.3000000   0.8000000  )
       385           C   tau( 385) = (   0.0000000   0.5000000   0.0000000  )
       386           C   tau( 386) = (   0.0000000   0.5000000   0.2000000  )
       387           C   tau( 387) = (   0.0000000   0.5000000   0.4000000  )
       388           C   tau( 388) = (   0.0000000   0.5000000   0.6000000  )
       389           C   tau( 389) = (   0.0000000   0.5000000   0.8000000  )
       390           C   tau( 390) = (   0.0000000   0.7000000   0.0000000  )
       391           C   tau( 391) = (   0.0000000   0.7000000   0.2000000  )
       392           C   tau( 392) = (   0.0000000   0.7000000   0.4000000  )
       393           C   tau( 393) = (   0.0000000   0.7000000   0.6000000  )
       394           C   tau( 394) = (   0.0000000   0.7000000   0.8000000  )
       395           C   tau( 395) = (   0.0000000   0.9000000   0.0000000  )
       396           C   tau( 396) = (   0.0000000   0.9000000   0.2000000  )
       397           C   tau( 397) = (   0.0000000   0.9000000   0.4000000  )
       398           C   tau( 398) = (   0.0000000   0.9000000   0.6000000  )
       399           C   tau( 399) = (   0.0000000   0.9000000   0.8000000  )
       400           C   tau( 400) = (   0.2000000   0.1000000   0.0000000  )
       401           C   tau( 401) = (   0.2000000   0.1000000   0.2000000  )
       402           C   tau( 402) = (   0.2000000   0.1000000   0.4000000  )
       403           C   tau( 403) = (   0.2000000   0.1000000   0.6000000  )
       404           C   tau( 404) = (   0.2000000   0.1000000   0.8000000  )
       405           C   tau( 405) = (   0.2000000   0.3000000   0.0000000  )
       406           C   tau( 406) = (   0.2000000   0.3000000   0.2000000  )
       407           C   tau( 407) = (   0.2000000   0.3000000   0.4000000  )
       408           C   tau( 408) = (   0.2000000   0.3000000   0.6000000  )
       409           C   tau( 409) = (   0.2000000   0.3000000   0.8000000  )
       410           C   tau( 410) = (   0.2000000   0.5000000   0.0000000  )
       411           C   tau( 411) = (   0.2000000   0.5000000   0.2000000  )
       412           C   tau( 412) = (   0.2000000   0.5000000   0.4000000  )
       413           C   tau( 413) = (   0.2000000   0.5000000   0.6000000  )
       414           C   tau( 414) = (   0.2000000   0.5000000   0.8000000  )
       415           C   tau( 415) = (   0.2000000   0.7000000   0.0000000  )
       416           C   tau( 416) = (   0.2000000   0.7000000   0.2000000  )
       417           C   tau( 417) = (   0.2000000   0.7000000   0.4000000  )
       418           C   tau( 418) = (   0.2000000   0.7000000   0.6000000  )
       419           C   tau( 419) = (   0.2000000   0.7000000   0.8000000  )
       420           C   tau( 420) = (   0.2000000   0.9000000   0.0000000  )
       421           C   tau( 421) = (   0.2000000   0.9000000   0.2000000  )
       422           C   tau( 422) = (   0.2000000   0.9000000   0.4000000  )
       423           C   tau( 423) = (   0.2000000   0.9000000   0.6000000  )
       424           C   tau( 424) = (   0.2000000   0.9000000   0.8000000  )
       425           C   tau( 425) = (   0.4000000   0.1000000   0.0000000  )
       426           C   tau( 426) = (   0.4000000   0.1000000   0.2000000  )
       427           C   tau( 427) = (   0.4000000   0.1000000   0.4000000  )
       428           C   tau( 428) = (   0.4000000   0.1000000   0.6000000  )
       429           C   tau( 429) = (   0.4000000   0.1000000   0.8000000  )
       430           C   tau( 430) = (   0.4000000   0.3000000   0.0000000  )
       431           C   tau( 431) = (   0.4000000   0.3000000   0.2000000  )
       432           C   tau( 432) = (   0.4000000   0.3000000   0.4000000  )
       433           C   tau( 433) = (   0.4000000   0.3000000   0.6000000  )
       434           C   tau( 434) = (   0.4000000   0.3000000   0.8000000  )
       435           C   tau( 435) = (   0.4000000   0.5000000   0.0000000  )
       436           C   tau( 436) = (   0.4000000   0.5000000   0.2000000  )
       437           C   tau( 437) = (   0.4000000   0.5000000   0.4000000  )
       438           C   tau( 438) = (   0.4000000   0.5000000   0.6000000  )
       439           C   tau( 439) = (   0.4000000   0.5000000   0.8000000  )
       440           C   tau( 440) = (   0.4000000   0.7000000   0.0000000  )
       441           C   tau( 441) = (   0.4000000   0.7000000   0.2000000  )
       442           C   tau( 442) = (   0.4000000   0.7000000   0.4000000  )
       443           C   tau( 443) = (   0.4000000   0.7000000   0.6000000  )
       444           C   tau( 444) = (   0.4000000   0.7000000   0.8000000  )
       445           C   tau( 445) = (   0.4000000   0.9000000   0.0000000  )
       446           C   tau( 446) = (   0.4000000   0.9000000   0.2000000  )
       447           C   tau( 447) = (   0.4000000   0.9000000   0.4000000  )
       448           C   tau( 448) = (   0.4000000   0.9000000   0.6000000  )
       449           C   tau( 449) = (   0.4000000   0.9000000   0.8000000  )
       450           C   tau( 450) = (   0.6000000   0.1000000   0.0000000  )
       451           C   tau( 451) = (   0.6000000   0.1000000   0.2000000  )
       452           C   tau( 452) = (   0.6000000   0.1000000   0.4000000  )
       453           C   tau( 453) = (   0.6000000   0.1000000   0.6000000  )
       454           C   tau( 454) = (   0.6000000   0.1000000   0.8000000  )
       455           C   tau( 455) = (   0.6000000   0.3000000   0.0000000  )
       456           C   tau( 456) = (   0.6000000   0.3000000   0.2000000  )
       457           C   tau( 457) = (   0.6000000   0.3000000   0.4000000  )
       458           C   tau( 458) = (   0.6000000   0.3000000   0.6000000  )
       459           C   tau( 459) = (   0.6000000   0.3000000   0.8000000  )
       460           C   tau( 460) = (   0.6000000   0.5000000   0.0000000  )
       461           C   tau( 461) = (   0.6000000   0.5000000   0.2000000  )
       462           C   tau( 462) = (   0.6000000   0.5000000   0.4000000  )
       463           C   tau( 463) = (   0.6000000   0.5000000   0.6000000  )
       464           C   tau( 464) = (   0.6000000   0.5000000   0.8000000  )
       465           C   tau( 465) = (   0.6000000   0.7000000   0.0000000  )
       466           C   tau( 466) = (   0.6000000   0.7000000   0.2000000  )
       467           C   tau( 467) = (   0.6000000   0.7000000   0.4000000  )
       468           C   tau( 468) = (   0.6000000   0.7000000   0.6000000  )
       469           C   tau( 469) = (   0.6000000   0.7000000   0.8000000  )
       470           C   tau( 470) = (   0.6000000   0.9000000   0.0000000  )
       471           C   tau( 471) = (   0.6000000   0.9000000   0.2000000  )
       472           C   tau( 472) = (   0.6000000   0.9000000   0.4000000  )
       473           C   tau( 473) = (   0.6000000   0.9000000   0.6000000  )
       474           C   tau( 474) = (   0.6000000   0.9000000   0.8000000  )
       475           C   tau( 475) = (   0.8000000   0.1000000   0.0000000  )
       476           C   tau( 476) = (   0.8000000   0.1000000   0.2000000  )
       477           C   tau( 477) = (   0.8000000   0.1000000   0.4000000  )
       478           C   tau( 478) = (   0.8000000   0.1000000   0.6000000  )
       479           C   tau( 479) = (   0.8000000   0.1000000   0.8000000  )
       480           C   tau( 480) = (   0.8000000   0.3000000   0.0000000  )
       481           C   tau( 481) = (   0.8000000   0.3000000   0.2000000  )
       482           C   tau( 482) = (   0.8000000   0.3000000   0.4000000  )
       483           C   tau( 483) = (   0.8000000   0.3000000   0.6000000  )
       484           C   tau( 484) = (   0.8000000   0.3000000   0.8000000  )
       485           C   tau( 485) = (   0.8000000   0.5000000   0.0000000  )
       486           C   tau( 486) = (   0.8000000   0.5000000   0.2000000  )
       487           C   tau( 487) = (   0.8000000   0.5000000   0.4000000  )
       488           C   tau( 488) = (   0.8000000   0.5000000   0.6000000  )
       489           C   tau( 489) = (   0.8000000   0.5000000   0.8000000  )
       490           C   tau( 490) = (   0.8000000   0.7000000   0.0000000  )
       491           C   tau( 491) = (   0.8000000   0.7000000   0.2000000  )
       492           C   tau( 492) = (   0.8000000   0.7000000   0.4000000  )
       493           C   tau( 493) = (   0.8000000   0.7000000   0.6000000  )
       494           C   tau( 494) = (   0.8000000   0.7000000   0.8000000  )
       495           C   tau( 495) = (   0.8000000   0.9000000   0.0000000  )
       496           C   tau( 496) = (   0.8000000   0.9000000   0.2000000  )
       497           C   tau( 497) = (   0.8000000   0.9000000   0.4000000  )
       498           C   tau( 498) = (   0.8000000   0.9000000   0.6000000  )
       499           C   tau( 499) = (   0.8000000   0.9000000   0.8000000  )
       500           C   tau( 500) = (   0.1499988   0.1499988   0.1499988  )
       501           C   tau( 501) = (   0.1499988   0.1499988   0.3499988  )
       502           C   tau( 502) = (   0.1499988   0.1499988   0.5499988  )
       503           C   tau( 503) = (   0.1499988   0.1499988   0.7499988  )
       504           C   tau( 504) = (   0.1499988   0.1499988   0.9499988  )
       505           C   tau( 505) = (   0.1499988   0.3499988   0.1499988  )
       506           C   tau( 506) = (   0.1499988   0.3499988   0.3499988  )
       507           C   tau( 507) = (   0.1499988   0.3499988   0.5499988  )
       508           C   tau( 508) = (   0.1499988   0.3499988   0.7499988  )
       509           C   tau( 509) = (   0.1499988   0.3499988   0.9499988  )
       510           C   tau( 510) = (   0.1499988   0.5499988   0.1499988  )
       511           C   tau( 511) = (   0.1499988   0.5499988   0.3499988  )
       512           C   tau( 512) = (   0.1499988   0.5499988   0.5499988  )
       513           C   tau( 513) = (   0.1499988   0.5499988   0.7499988  )
       514           C   tau( 514) = (   0.1499988   0.5499988   0.9499988  )
       515           C   tau( 515) = (   0.1499988   0.7499988   0.1499988  )
       516           C   tau( 516) = (   0.1499988   0.7499988   0.3499988  )
       517           C   tau( 517) = (   0.1499988   0.7499988   0.5499988  )
       518           C   tau( 518) = (   0.1499988   0.7499988   0.7499988  )
       519           C   tau( 519) = (   0.1499988   0.7499988   0.9499988  )
       520           C   tau( 520) = (   0.1499988   0.9499988   0.1499988  )
       521           C   tau( 521) = (   0.1499988   0.9499988   0.3499988  )
       522           C   tau( 522) = (   0.1499988   0.9499988   0.5499988  )
       523           C   tau( 523) = (   0.1499988   0.9499988   0.7499988  )
       524           C   tau( 524) = (   0.1499988   0.9499988   0.9499988  )
       525           C   tau( 525) = (   0.3499988   0.1499988   0.1499988  )
       526           C   tau( 526) = (   0.3499988   0.1499988   0.3499988  )
       527           C   tau( 527) = (   0.3499988   0.1499988   0.5499988  )
       528           C   tau( 528) = (   0.3499988   0.1499988   0.7499988  )
       529           C   tau( 529) = (   0.3499988   0.1499988   0.9499988  )
       530           C   tau( 530) = (   0.3499988   0.3499988   0.1499988  )
       531           C   tau( 531) = (   0.3499988   0.3499988   0.3499988  )
       532           C   tau( 532) = (   0.3499988   0.3499988   0.5499988  )
       533           C   tau( 533) = (   0.3499988   0.3499988   0.7499988  )
       534           C   tau( 534) = (   0.3499988   0.3499988   0.9499988  )
       535           C   tau( 535) = (   0.3499988   0.5499988   0.1499988  )
       536           C   tau( 536) = (   0.3499988   0.5499988   0.3499988  )
       537           C   tau( 537) = (   0.3499988   0.5499988   0.5499988  )
       538           C   tau( 538) = (   0.3499988   0.5499988   0.7499988  )
       539           C   tau( 539) = (   0.3499988   0.5499988   0.9499988  )
       540           C   tau( 540) = (   0.3499988   0.7499988   0.1499988  )
       541           C   tau( 541) = (   0.3499988   0.7499988   0.3499988  )
       542           C   tau( 542) = (   0.3499988   0.7499988   0.5499988  )
       543           C   tau( 543) = (   0.3499988   0.7499988   0.7499988  )
       544           C   tau( 544) = (   0.3499988   0.7499988   0.9499988  )
       545           C   tau( 545) = (   0.3499988   0.9499988   0.1499988  )
       546           C   tau( 546) = (   0.3499988   0.9499988   0.3499988  )
       547           C   tau( 547) = (   0.3499988   0.9499988   0.5499988  )
       548           C   tau( 548) = (   0.3499988   0.9499988   0.7499988  )
       549           C   tau( 549) = (   0.3499988   0.9499988   0.9499988  )
       550           C   tau( 550) = (   0.5499988   0.1499988   0.1499988  )
       551           C   tau( 551) = (   0.5499988   0.1499988   0.3499988  )
       552           C   tau( 552) = (   0.5499988   0.1499988   0.5499988  )
       553           C   tau( 553) = (   0.5499988   0.1499988   0.7499988  )
       554           C   tau( 554) = (   0.5499988   0.1499988   0.9499988  )
       555           C   tau( 555) = (   0.5499988   0.3499988   0.1499988  )
       556           C   tau( 556) = (   0.5499988   0.3499988   0.3499988  )
       557           C   tau( 557) = (   0.5499988   0.3499988   0.5499988  )
       558           C   tau( 558) = (   0.5499988   0.3499988   0.7499988  )
       559           C   tau( 559) = (   0.5499988   0.3499988   0.9499988  )
       560           C   tau( 560) = (   0.5499988   0.5499988   0.1499988  )
       561           C   tau( 561) = (   0.5499988   0.5499988   0.3499988  )
       562           C   tau( 562) = (   0.5499988   0.5499988   0.5499988  )
       563           C   tau( 563) = (   0.5499988   0.5499988   0.7499988  )
       564           C   tau( 564) = (   0.5499988   0.5499988   0.9499988  )
       565           C   tau( 565) = (   0.5499988   0.7499988   0.1499988  )
       566           C   tau( 566) = (   0.5499988   0.7499988   0.3499988  )
       567           C   tau( 567) = (   0.5499988   0.7499988   0.5499988  )
       568           C   tau( 568) = (   0.5499988   0.7499988   0.7499988  )
       569           C   tau( 569) = (   0.5499988   0.7499988   0.9499988  )
       570           C   tau( 570) = (   0.5499988   0.9499988   0.1499988  )
       571           C   tau( 571) = (   0.5499988   0.9499988   0.3499988  )
       572           C   tau( 572) = (   0.5499988   0.9499988   0.5499988  )
       573           C   tau( 573) = (   0.5499988   0.9499988   0.7499988  )
       574           C   tau( 574) = (   0.5499988   0.9499988   0.9499988  )
       575           C   tau( 575) = (   0.7499988   0.1499988   0.1499988  )
       576           C   tau( 576) = (   0.7499988   0.1499988   0.3499988  )
       577           C   tau( 577) = (   0.7499988   0.1499988   0.5499988  )
       578           C   tau( 578) = (   0.7499988   0.1499988   0.7499988  )
       579           C   tau( 579) = (   0.7499988   0.1499988   0.9499988  )
       580           C   tau( 580) = (   0.7499988   0.3499988   0.1499988  )
       581           C   tau( 581) = (   0.7499988   0.3499988   0.3499988  )
       582           C   tau( 582) = (   0.7499988   0.3499988   0.5499988  )
       583           C   tau( 583) = (   0.7499988   0.3499988   0.7499988  )
       584           C   tau( 584) = (   0.7499988   0.3499988   0.9499988  )
       585           C   tau( 585) = (   0.7499988   0.5499988   0.1499988  )
       586           C   tau( 586) = (   0.7499988   0.5499988   0.3499988  )
       587           C   tau( 587) = (   0.7499988   0.5499988   0.5499988  )
       588           C   tau( 588) = (   0.7499988   0.5499988   0.7499988  )
       589           C   tau( 589) = (   0.7499988   0.5499988   0.9499988  )
       590           C   tau( 590) = (   0.7499988   0.7499988   0.1499988  )
       591           C   tau( 591) = (   0.7499988   0.7499988   0.3499988  )
       592           C   tau( 592) = (   0.7499988   0.7499988   0.5499988  )
       593           C   tau( 593) = (   0.7499988   0.7499988   0.7499988  )
       594           C   tau( 594) = (   0.7499988   0.7499988   0.9499988  )
       595           C   tau( 595) = (   0.7499988   0.9499988   0.1499988  )
       596           C   tau( 596) = (   0.7499988   0.9499988   0.3499988  )
       597           C   tau( 597) = (   0.7499988   0.9499988   0.5499988  )
       598           C   tau( 598) = (   0.7499988   0.9499988   0.7499988  )
       599           C   tau( 599) = (   0.7499988   0.9499988   0.9499988  )
       600           C   tau( 600) = (   0.9499988   0.1499988   0.1499988  )
       601           C   tau( 601) = (   0.9499988   0.1499988   0.3499988  )
       602           C   tau( 602) = (   0.9499988   0.1499988   0.5499988  )
       603           C   tau( 603) = (   0.9499988   0.1499988   0.7499988  )
       604           C   tau( 604) = (   0.9499988   0.1499988   0.9499988  )
       605           C   tau( 605) = (   0.9499988   0.3499988   0.1499988  )
       606           C   tau( 606) = (   0.9499988   0.3499988   0.3499988  )
       607           C   tau( 607) = (   0.9499988   0.3499988   0.5499988  )
       608           C   tau( 608) = (   0.9499988   0.3499988   0.7499988  )
       609           C   tau( 609) = (   0.9499988   0.3499988   0.9499988  )
       610           C   tau( 610) = (   0.9499988   0.5499988   0.1499988  )
       611           C   tau( 611) = (   0.9499988   0.5499988   0.3499988  )
       612           C   tau( 612) = (   0.9499988   0.5499988   0.5499988  )
       613           C   tau( 613) = (   0.9499988   0.5499988   0.7499988  )
       614           C   tau( 614) = (   0.9499988   0.5499988   0.9499988  )
       615           C   tau( 615) = (   0.9499988   0.7499988   0.1499988  )
       616           C   tau( 616) = (   0.9499988   0.7499988   0.3499988  )
       617           C   tau( 617) = (   0.9499988   0.7499988   0.5499988  )
       618           C   tau( 618) = (   0.9499988   0.7499988   0.7499988  )
       619           C   tau( 619) = (   0.9499988   0.7499988   0.9499988  )
       620           C   tau( 620) = (   0.9499988   0.9499988   0.1499988  )
       621           C   tau( 621) = (   0.9499988   0.9499988   0.3499988  )
       622           C   tau( 622) = (   0.9499988   0.9499988   0.5499988  )
       623           C   tau( 623) = (   0.9499988   0.9499988   0.7499988  )
       624           C   tau( 624) = (   0.9499988   0.9499988   0.9499988  )
       625           C   tau( 625) = (   0.1000000   0.0000000   0.0000000  )
       626           C   tau( 626) = (   0.1000000   0.0000000   0.2000000  )
       627           C   tau( 627) = (   0.1000000   0.0000000   0.4000000  )
       628           C   tau( 628) = (   0.1000000   0.0000000   0.6000000  )
       629           C   tau( 629) = (   0.1000000   0.0000000   0.8000000  )
       630           C   tau( 630) = (   0.1000000   0.2000000   0.0000000  )
       631           C   tau( 631) = (   0.1000000   0.2000000   0.2000000  )
       632           C   tau( 632) = (   0.1000000   0.2000000   0.4000000  )
       633           C   tau( 633) = (   0.1000000   0.2000000   0.6000000  )
       634           C   tau( 634) = (   0.1000000   0.2000000   0.8000000  )
       635           C   tau( 635) = (   0.1000000   0.4000000   0.0000000  )
       636           C   tau( 636) = (   0.1000000   0.4000000   0.2000000  )
       637           C   tau( 637) = (   0.1000000   0.4000000   0.4000000  )
       638           C   tau( 638) = (   0.1000000   0.4000000   0.6000000  )
       639           C   tau( 639) = (   0.1000000   0.4000000   0.8000000  )
       640           C   tau( 640) = (   0.1000000   0.6000000   0.0000000  )
       641           C   tau( 641) = (   0.1000000   0.6000000   0.2000000  )
       642           C   tau( 642) = (   0.1000000   0.6000000   0.4000000  )
       643           C   tau( 643) = (   0.1000000   0.6000000   0.6000000  )
       644           C   tau( 644) = (   0.1000000   0.6000000   0.8000000  )
       645           C   tau( 645) = (   0.1000000   0.8000000   0.0000000  )
       646           C   tau( 646) = (   0.1000000   0.8000000   0.2000000  )
       647           C   tau( 647) = (   0.1000000   0.8000000   0.4000000  )
       648           C   tau( 648) = (   0.1000000   0.8000000   0.6000000  )
       649           C   tau( 649) = (   0.1000000   0.8000000   0.8000000  )
       650           C   tau( 650) = (   0.3000000   0.0000000   0.0000000  )
       651           C   tau( 651) = (   0.3000000   0.0000000   0.2000000  )
       652           C   tau( 652) = (   0.3000000   0.0000000   0.4000000  )
       653           C   tau( 653) = (   0.3000000   0.0000000   0.6000000  )
       654           C   tau( 654) = (   0.3000000   0.0000000   0.8000000  )
       655           C   tau( 655) = (   0.3000000   0.2000000   0.0000000  )
       656           C   tau( 656) = (   0.3000000   0.2000000   0.2000000  )
       657           C   tau( 657) = (   0.3000000   0.2000000   0.4000000  )
       658           C   tau( 658) = (   0.3000000   0.2000000   0.6000000  )
       659           C   tau( 659) = (   0.3000000   0.2000000   0.8000000  )
       660           C   tau( 660) = (   0.3000000   0.4000000   0.0000000  )
       661           C   tau( 661) = (   0.3000000   0.4000000   0.2000000  )
       662           C   tau( 662) = (   0.3000000   0.4000000   0.4000000  )
       663           C   tau( 663) = (   0.3000000   0.4000000   0.6000000  )
       664           C   tau( 664) = (   0.3000000   0.4000000   0.8000000  )
       665           C   tau( 665) = (   0.3000000   0.6000000   0.0000000  )
       666           C   tau( 666) = (   0.3000000   0.6000000   0.2000000  )
       667           C   tau( 667) = (   0.3000000   0.6000000   0.4000000  )
       668           C   tau( 668) = (   0.3000000   0.6000000   0.6000000  )
       669           C   tau( 669) = (   0.3000000   0.6000000   0.8000000  )
       670           C   tau( 670) = (   0.3000000   0.8000000   0.0000000  )
       671           C   tau( 671) = (   0.3000000   0.8000000   0.2000000  )
       672           C   tau( 672) = (   0.3000000   0.8000000   0.4000000  )
       673           C   tau( 673) = (   0.3000000   0.8000000   0.6000000  )
       674           C   tau( 674) = (   0.3000000   0.8000000   0.8000000  )
       675           C   tau( 675) = (   0.5000000   0.0000000   0.0000000  )
       676           C   tau( 676) = (   0.5000000   0.0000000   0.2000000  )
       677           C   tau( 677) = (   0.5000000   0.0000000   0.4000000  )
       678           C   tau( 678) = (   0.5000000   0.0000000   0.6000000  )
       679           C   tau( 679) = (   0.5000000   0.0000000   0.8000000  )
       680           C   tau( 680) = (   0.5000000   0.2000000   0.0000000  )
       681           C   tau( 681) = (   0.5000000   0.2000000   0.2000000  )
       682           C   tau( 682) = (   0.5000000   0.2000000   0.4000000  )
       683           C   tau( 683) = (   0.5000000   0.2000000   0.6000000  )
       684           C   tau( 684) = (   0.5000000   0.2000000   0.8000000  )
       685           C   tau( 685) = (   0.5000000   0.4000000   0.0000000  )
       686           C   tau( 686) = (   0.5000000   0.4000000   0.2000000  )
       687           C   tau( 687) = (   0.5000000   0.4000000   0.4000000  )
       688           C   tau( 688) = (   0.5000000   0.4000000   0.6000000  )
       689           C   tau( 689) = (   0.5000000   0.4000000   0.8000000  )
       690           C   tau( 690) = (   0.5000000   0.6000000   0.0000000  )
       691           C   tau( 691) = (   0.5000000   0.6000000   0.2000000  )
       692           C   tau( 692) = (   0.5000000   0.6000000   0.4000000  )
       693           C   tau( 693) = (   0.5000000   0.6000000   0.6000000  )
       694           C   tau( 694) = (   0.5000000   0.6000000   0.8000000  )
       695           C   tau( 695) = (   0.5000000   0.8000000   0.0000000  )
       696           C   tau( 696) = (   0.5000000   0.8000000   0.2000000  )
       697           C   tau( 697) = (   0.5000000   0.8000000   0.4000000  )
       698           C   tau( 698) = (   0.5000000   0.8000000   0.6000000  )
       699           C   tau( 699) = (   0.5000000   0.8000000   0.8000000  )
       700           C   tau( 700) = (   0.7000000   0.0000000   0.0000000  )
       701           C   tau( 701) = (   0.7000000   0.0000000   0.2000000  )
       702           C   tau( 702) = (   0.7000000   0.0000000   0.4000000  )
       703           C   tau( 703) = (   0.7000000   0.0000000   0.6000000  )
       704           C   tau( 704) = (   0.7000000   0.0000000   0.8000000  )
       705           C   tau( 705) = (   0.7000000   0.2000000   0.0000000  )
       706           C   tau( 706) = (   0.7000000   0.2000000   0.2000000  )
       707           C   tau( 707) = (   0.7000000   0.2000000   0.4000000  )
       708           C   tau( 708) = (   0.7000000   0.2000000   0.6000000  )
       709           C   tau( 709) = (   0.7000000   0.2000000   0.8000000  )
       710           C   tau( 710) = (   0.7000000   0.4000000   0.0000000  )
       711           C   tau( 711) = (   0.7000000   0.4000000   0.2000000  )
       712           C   tau( 712) = (   0.7000000   0.4000000   0.4000000  )
       713           C   tau( 713) = (   0.7000000   0.4000000   0.6000000  )
       714           C   tau( 714) = (   0.7000000   0.4000000   0.8000000  )
       715           C   tau( 715) = (   0.7000000   0.6000000   0.0000000  )
       716           C   tau( 716) = (   0.7000000   0.6000000   0.2000000  )
       717           C   tau( 717) = (   0.7000000   0.6000000   0.4000000  )
       718           C   tau( 718) = (   0.7000000   0.6000000   0.6000000  )
       719           C   tau( 719) = (   0.7000000   0.6000000   0.8000000  )
       720           C   tau( 720) = (   0.7000000   0.8000000   0.0000000  )
       721           C   tau( 721) = (   0.7000000   0.8000000   0.2000000  )
       722           C   tau( 722) = (   0.7000000   0.8000000   0.4000000  )
       723           C   tau( 723) = (   0.7000000   0.8000000   0.6000000  )
       724           C   tau( 724) = (   0.7000000   0.8000000   0.8000000  )
       725           C   tau( 725) = (   0.9000000   0.0000000   0.0000000  )
       726           C   tau( 726) = (   0.9000000   0.0000000   0.2000000  )
       727           C   tau( 727) = (   0.9000000   0.0000000   0.4000000  )
       728           C   tau( 728) = (   0.9000000   0.0000000   0.6000000  )
       729           C   tau( 729) = (   0.9000000   0.0000000   0.8000000  )
       730           C   tau( 730) = (   0.9000000   0.2000000   0.0000000  )
       731           C   tau( 731) = (   0.9000000   0.2000000   0.2000000  )
       732           C   tau( 732) = (   0.9000000   0.2000000   0.4000000  )
       733           C   tau( 733) = (   0.9000000   0.2000000   0.6000000  )
       734           C   tau( 734) = (   0.9000000   0.2000000   0.8000000  )
       735           C   tau( 735) = (   0.9000000   0.4000000   0.0000000  )
       736           C   tau( 736) = (   0.9000000   0.4000000   0.2000000  )
       737           C   tau( 737) = (   0.9000000   0.4000000   0.4000000  )
       738           C   tau( 738) = (   0.9000000   0.4000000   0.6000000  )
       739           C   tau( 739) = (   0.9000000   0.4000000   0.8000000  )
       740           C   tau( 740) = (   0.9000000   0.6000000   0.0000000  )
       741           C   tau( 741) = (   0.9000000   0.6000000   0.2000000  )
       742           C   tau( 742) = (   0.9000000   0.6000000   0.4000000  )
       743           C   tau( 743) = (   0.9000000   0.6000000   0.6000000  )
       744           C   tau( 744) = (   0.9000000   0.6000000   0.8000000  )
       745           C   tau( 745) = (   0.9000000   0.8000000   0.0000000  )
       746           C   tau( 746) = (   0.9000000   0.8000000   0.2000000  )
       747           C   tau( 747) = (   0.9000000   0.8000000   0.4000000  )
       748           C   tau( 748) = (   0.9000000   0.8000000   0.6000000  )
       749           C   tau( 749) = (   0.9000000   0.8000000   0.8000000  )
       750           C   tau( 750) = (   0.1499988   0.0500012   0.0500012  )
       751           C   tau( 751) = (   0.1499988   0.0500012   0.2500012  )
       752           C   tau( 752) = (   0.1499988   0.0500012   0.4500012  )
       753           C   tau( 753) = (   0.1499988   0.0500012   0.6500012  )
       754           C   tau( 754) = (   0.1499988   0.0500012   0.8500012  )
       755           C   tau( 755) = (   0.1499988   0.2500012   0.0500012  )
       756           C   tau( 756) = (   0.1499988   0.2500012   0.2500012  )
       757           C   tau( 757) = (   0.1499988   0.2500012   0.4500012  )
       758           C   tau( 758) = (   0.1499988   0.2500012   0.6500012  )
       759           C   tau( 759) = (   0.1499988   0.2500012   0.8500012  )
       760           C   tau( 760) = (   0.1499988   0.4500012   0.0500012  )
       761           C   tau( 761) = (   0.1499988   0.4500012   0.2500012  )
       762           C   tau( 762) = (   0.1499988   0.4500012   0.4500012  )
       763           C   tau( 763) = (   0.1499988   0.4500012   0.6500012  )
       764           C   tau( 764) = (   0.1499988   0.4500012   0.8500012  )
       765           C   tau( 765) = (   0.1499988   0.6500012   0.0500012  )
       766           C   tau( 766) = (   0.1499988   0.6500012   0.2500012  )
       767           C   tau( 767) = (   0.1499988   0.6500012   0.4500012  )
       768           C   tau( 768) = (   0.1499988   0.6500012   0.6500012  )
       769           C   tau( 769) = (   0.1499988   0.6500012   0.8500012  )
       770           C   tau( 770) = (   0.1499988   0.8500012   0.0500012  )
       771           C   tau( 771) = (   0.1499988   0.8500012   0.2500012  )
       772           C   tau( 772) = (   0.1499988   0.8500012   0.4500012  )
       773           C   tau( 773) = (   0.1499988   0.8500012   0.6500012  )
       774           C   tau( 774) = (   0.1499988   0.8500012   0.8500012  )
       775           C   tau( 775) = (   0.3499988   0.0500012   0.0500012  )
       776           C   tau( 776) = (   0.3499988   0.0500012   0.2500012  )
       777           C   tau( 777) = (   0.3499988   0.0500012   0.4500012  )
       778           C   tau( 778) = (   0.3499988   0.0500012   0.6500012  )
       779           C   tau( 779) = (   0.3499988   0.0500012   0.8500012  )
       780           C   tau( 780) = (   0.3499988   0.2500012   0.0500012  )
       781           C   tau( 781) = (   0.3499988   0.2500012   0.2500012  )
       782           C   tau( 782) = (   0.3499988   0.2500012   0.4500012  )
       783           C   tau( 783) = (   0.3499988   0.2500012   0.6500012  )
       784           C   tau( 784) = (   0.3499988   0.2500012   0.8500012  )
       785           C   tau( 785) = (   0.3499988   0.4500012   0.0500012  )
       786           C   tau( 786) = (   0.3499988   0.4500012   0.2500012  )
       787           C   tau( 787) = (   0.3499988   0.4500012   0.4500012  )
       788           C   tau( 788) = (   0.3499988   0.4500012   0.6500012  )
       789           C   tau( 789) = (   0.3499988   0.4500012   0.8500012  )
       790           C   tau( 790) = (   0.3499988   0.6500012   0.0500012  )
       791           C   tau( 791) = (   0.3499988   0.6500012   0.2500012  )
       792           C   tau( 792) = (   0.3499988   0.6500012   0.4500012  )
       793           C   tau( 793) = (   0.3499988   0.6500012   0.6500012  )
       794           C   tau( 794) = (   0.3499988   0.6500012   0.8500012  )
       795           C   tau( 795) = (   0.3499988   0.8500012   0.0500012  )
       796           C   tau( 796) = (   0.3499988   0.8500012   0.2500012  )
       797           C   tau( 797) = (   0.3499988   0.8500012   0.4500012  )
       798           C   tau( 798) = (   0.3499988   0.8500012   0.6500012  )
       799           C   tau( 799) = (   0.3499988   0.8500012   0.8500012  )
       800           C   tau( 800) = (   0.5499988   0.0500012   0.0500012  )
       801           C   tau( 801) = (   0.5499988   0.0500012   0.2500012  )
       802           C   tau( 802) = (   0.5499988   0.0500012   0.4500012  )
       803           C   tau( 803) = (   0.5499988   0.0500012   0.6500012  )
       804           C   tau( 804) = (   0.5499988   0.0500012   0.8500012  )
       805           C   tau( 805) = (   0.5499988   0.2500012   0.0500012  )
       806           C   tau( 806) = (   0.5499988   0.2500012   0.2500012  )
       807           C   tau( 807) = (   0.5499988   0.2500012   0.4500012  )
       808           C   tau( 808) = (   0.5499988   0.2500012   0.6500012  )
       809           C   tau( 809) = (   0.5499988   0.2500012   0.8500012  )
       810           C   tau( 810) = (   0.5499988   0.4500012   0.0500012  )
       811           C   tau( 811) = (   0.5499988   0.4500012   0.2500012  )
       812           C   tau( 812) = (   0.5499988   0.4500012   0.4500012  )
       813           C   tau( 813) = (   0.5499988   0.4500012   0.6500012  )
       814           C   tau( 814) = (   0.5499988   0.4500012   0.8500012  )
       815           C   tau( 815) = (   0.5499988   0.6500012   0.0500012  )
       816           C   tau( 816) = (   0.5499988   0.6500012   0.2500012  )
       817           C   tau( 817) = (   0.5499988   0.6500012   0.4500012  )
       818           C   tau( 818) = (   0.5499988   0.6500012   0.6500012  )
       819           C   tau( 819) = (   0.5499988   0.6500012   0.8500012  )
       820           C   tau( 820) = (   0.5499988   0.8500012   0.0500012  )
       821           C   tau( 821) = (   0.5499988   0.8500012   0.2500012  )
       822           C   tau( 822) = (   0.5499988   0.8500012   0.4500012  )
       823           C   tau( 823) = (   0.5499988   0.8500012   0.6500012  )
       824           C   tau( 824) = (   0.5499988   0.8500012   0.8500012  )
       825           C   tau( 825) = (   0.7499988   0.0500012   0.0500012  )
       826           C   tau( 826) = (   0.7499988   0.0500012   0.2500012  )
       827           C   tau( 827) = (   0.7499988   0.0500012   0.4500012  )
       828           C   tau( 828) = (   0.7499988   0.0500012   0.6500012  )
       829           C   tau( 829) = (   0.7499988   0.0500012   0.8500012  )
       830           C   tau( 830) = (   0.7499988   0.2500012   0.0500012  )
       831           C   tau( 831) = (   0.7499988   0.2500012   0.2500012  )
       832           C   tau( 832) = (   0.7499988   0.2500012   0.4500012  )
       833           C   tau( 833) = (   0.7499988   0.2500012   0.6500012  )
       834           C   tau( 834) = (   0.7499988   0.2500012   0.8500012  )
       835           C   tau( 835) = (   0.7499988   0.4500012   0.0500012  )
       836           C   tau( 836) = (   0.7499988   0.4500012   0.2500012  )
       837           C   tau( 837) = (   0.7499988   0.4500012   0.4500012  )
       838           C   tau( 838) = (   0.7499988   0.4500012   0.6500012  )
       839           C   tau( 839) = (   0.7499988   0.4500012   0.8500012  )
       840           C   tau( 840) = (   0.7499988   0.6500012   0.0500012  )
       841           C   tau( 841) = (   0.7499988   0.6500012   0.2500012  )
       842           C   tau( 842) = (   0.7499988   0.6500012   0.4500012  )
       843           C   tau( 843) = (   0.7499988   0.6500012   0.6500012  )
       844           C   tau( 844) = (   0.7499988   0.6500012   0.8500012  )
       845           C   tau( 845) = (   0.7499988   0.8500012   0.0500012  )
       846           C   tau( 846) = (   0.7499988   0.8500012   0.2500012  )
       847           C   tau( 847) = (   0.7499988   0.8500012   0.4500012  )
       848           C   tau( 848) = (   0.7499988   0.8500012   0.6500012  )
       849           C   tau( 849) = (   0.7499988   0.8500012   0.8500012  )
       850           C   tau( 850) = (   0.9499988   0.0500012   0.0500012  )
       851           C   tau( 851) = (   0.9499988   0.0500012   0.2500012  )
       852           C   tau( 852) = (   0.9499988   0.0500012   0.4500012  )
       853           C   tau( 853) = (   0.9499988   0.0500012   0.6500012  )
       854           C   tau( 854) = (   0.9499988   0.0500012   0.8500012  )
       855           C   tau( 855) = (   0.9499988   0.2500012   0.0500012  )
       856           C   tau( 856) = (   0.9499988   0.2500012   0.2500012  )
       857           C   tau( 857) = (   0.9499988   0.2500012   0.4500012  )
       858           C   tau( 858) = (   0.9499988   0.2500012   0.6500012  )
       859           C   tau( 859) = (   0.9499988   0.2500012   0.8500012  )
       860           C   tau( 860) = (   0.9499988   0.4500012   0.0500012  )
       861           C   tau( 861) = (   0.9499988   0.4500012   0.2500012  )
       862           C   tau( 862) = (   0.9499988   0.4500012   0.4500012  )
       863           C   tau( 863) = (   0.9499988   0.4500012   0.6500012  )
       864           C   tau( 864) = (   0.9499988   0.4500012   0.8500012  )
       865           C   tau( 865) = (   0.9499988   0.6500012   0.0500012  )
       866           C   tau( 866) = (   0.9499988   0.6500012   0.2500012  )
       867           C   tau( 867) = (   0.9499988   0.6500012   0.4500012  )
       868           C   tau( 868) = (   0.9499988   0.6500012   0.6500012  )
       869           C   tau( 869) = (   0.9499988   0.6500012   0.8500012  )
       870           C   tau( 870) = (   0.9499988   0.8500012   0.0500012  )
       871           C   tau( 871) = (   0.9499988   0.8500012   0.2500012  )
       872           C   tau( 872) = (   0.9499988   0.8500012   0.4500012  )
       873           C   tau( 873) = (   0.9499988   0.8500012   0.6500012  )
       874           C   tau( 874) = (   0.9499988   0.8500012   0.8500012  )
       875           C   tau( 875) = (   0.1000000   0.1000000   0.1000000  )
       876           C   tau( 876) = (   0.1000000   0.1000000   0.3000000  )
       877           C   tau( 877) = (   0.1000000   0.1000000   0.5000000  )
       878           C   tau( 878) = (   0.1000000   0.1000000   0.7000000  )
       879           C   tau( 879) = (   0.1000000   0.1000000   0.9000000  )
       880           C   tau( 880) = (   0.1000000   0.3000000   0.1000000  )
       881           C   tau( 881) = (   0.1000000   0.3000000   0.3000000  )
       882           C   tau( 882) = (   0.1000000   0.3000000   0.5000000  )
       883           C   tau( 883) = (   0.1000000   0.3000000   0.7000000  )
       884           C   tau( 884) = (   0.1000000   0.3000000   0.9000000  )
       885           C   tau( 885) = (   0.1000000   0.5000000   0.1000000  )
       886           C   tau( 886) = (   0.1000000   0.5000000   0.3000000  )
       887           C   tau( 887) = (   0.1000000   0.5000000   0.5000000  )
       888           C   tau( 888) = (   0.1000000   0.5000000   0.7000000  )
       889           C   tau( 889) = (   0.1000000   0.5000000   0.9000000  )
       890           C   tau( 890) = (   0.1000000   0.7000000   0.1000000  )
       891           C   tau( 891) = (   0.1000000   0.7000000   0.3000000  )
       892           C   tau( 892) = (   0.1000000   0.7000000   0.5000000  )
       893           C   tau( 893) = (   0.1000000   0.7000000   0.7000000  )
       894           C   tau( 894) = (   0.1000000   0.7000000   0.9000000  )
       895           C   tau( 895) = (   0.1000000   0.9000000   0.1000000  )
       896           C   tau( 896) = (   0.1000000   0.9000000   0.3000000  )
       897           C   tau( 897) = (   0.1000000   0.9000000   0.5000000  )
       898           C   tau( 898) = (   0.1000000   0.9000000   0.7000000  )
       899           C   tau( 899) = (   0.1000000   0.9000000   0.9000000  )
       900           C   tau( 900) = (   0.3000000   0.1000000   0.1000000  )
       901           C   tau( 901) = (   0.3000000   0.1000000   0.3000000  )
       902           C   tau( 902) = (   0.3000000   0.1000000   0.5000000  )
       903           C   tau( 903) = (   0.3000000   0.1000000   0.7000000  )
       904           C   tau( 904) = (   0.3000000   0.1000000   0.9000000  )
       905           C   tau( 905) = (   0.3000000   0.3000000   0.1000000  )
       906           C   tau( 906) = (   0.3000000   0.3000000   0.3000000  )
       907           C   tau( 907) = (   0.3000000   0.3000000   0.5000000  )
       908           C   tau( 908) = (   0.3000000   0.3000000   0.7000000  )
       909           C   tau( 909) = (   0.3000000   0.3000000   0.9000000  )
       910           C   tau( 910) = (   0.3000000   0.5000000   0.1000000  )
       911           C   tau( 911) = (   0.3000000   0.5000000   0.3000000  )
       912           C   tau( 912) = (   0.3000000   0.5000000   0.5000000  )
       913           C   tau( 913) = (   0.3000000   0.5000000   0.7000000  )
       914           C   tau( 914) = (   0.3000000   0.5000000   0.9000000  )
       915           C   tau( 915) = (   0.3000000   0.7000000   0.1000000  )
       916           C   tau( 916) = (   0.3000000   0.7000000   0.3000000  )
       917           C   tau( 917) = (   0.3000000   0.7000000   0.5000000  )
       918           C   tau( 918) = (   0.3000000   0.7000000   0.7000000  )
       919           C   tau( 919) = (   0.3000000   0.7000000   0.9000000  )
       920           C   tau( 920) = (   0.3000000   0.9000000   0.1000000  )
       921           C   tau( 921) = (   0.3000000   0.9000000   0.3000000  )
       922           C   tau( 922) = (   0.3000000   0.9000000   0.5000000  )
       923           C   tau( 923) = (   0.3000000   0.9000000   0.7000000  )
       924           C   tau( 924) = (   0.3000000   0.9000000   0.9000000  )
       925           C   tau( 925) = (   0.5000000   0.1000000   0.1000000  )
       926           C   tau( 926) = (   0.5000000   0.1000000   0.3000000  )
       927           C   tau( 927) = (   0.5000000   0.1000000   0.5000000  )
       928           C   tau( 928) = (   0.5000000   0.1000000   0.7000000  )
       929           C   tau( 929) = (   0.5000000   0.1000000   0.9000000  )
       930           C   tau( 930) = (   0.5000000   0.3000000   0.1000000  )
       931           C   tau( 931) = (   0.5000000   0.3000000   0.3000000  )
       932           C   tau( 932) = (   0.5000000   0.3000000   0.5000000  )
       933           C   tau( 933) = (   0.5000000   0.3000000   0.7000000  )
       934           C   tau( 934) = (   0.5000000   0.3000000   0.9000000  )
       935           C   tau( 935) = (   0.5000000   0.5000000   0.1000000  )
       936           C   tau( 936) = (   0.5000000   0.5000000   0.3000000  )
       937           C   tau( 937) = (   0.5000000   0.5000000   0.5000000  )
       938           C   tau( 938) = (   0.5000000   0.5000000   0.7000000  )
       939           C   tau( 939) = (   0.5000000   0.5000000   0.9000000  )
       940           C   tau( 940) = (   0.5000000   0.7000000   0.1000000  )
       941           C   tau( 941) = (   0.5000000   0.7000000   0.3000000  )
       942           C   tau( 942) = (   0.5000000   0.7000000   0.5000000  )
       943           C   tau( 943) = (   0.5000000   0.7000000   0.7000000  )
       944           C   tau( 944) = (   0.5000000   0.7000000   0.9000000  )
       945           C   tau( 945) = (   0.5000000   0.9000000   0.1000000  )
       946           C   tau( 946) = (   0.5000000   0.9000000   0.3000000  )
       947           C   tau( 947) = (   0.5000000   0.9000000   0.5000000  )
       948           C   tau( 948) = (   0.5000000   0.9000000   0.7000000  )
       949           C   tau( 949) = (   0.5000000   0.9000000   0.9000000  )
[...]
              0.426803001688386E+03
              0.265274626114763E+02
              0.673943904463462E+02
              0.308621354440056E+03
              0.101214819622689E+03
             -0.193025536086878E+03
             -0.361752469179143E+03
              0.201832779571032E+01
             -0.424394567266587E+03
              0.144768952671749E+03
             -0.475999407227129E+02
             -0.146007985146632E+03
              0.133557923181329E+03
              0.644949289713227E+02
              0.152416848363088E+03
             -0.424162730408523E+01
              0.224630454668569E+03
             -0.409948565566648E+03
             -0.192743092897852E+02
             -0.372228053568792E+03
              0.119476477587539E+03
              0.181889544187394E+03
             -0.348312775746708E+02
             -0.108218280278660E+03
              0.317578909836569E+03
             -0.143208469347209E+03
              0.999929747355293E+02
             -0.668869058151895E+02
              0.249977919229608E+03
              0.207579994057366E+03
             -0.943196615154811E+02
              0.214175213491820E+03
              0.801794440329063E+02
             -0.219866915022174E+03
             -0.109465151328405E+03
              0.336301223652398E+03
              0.159396435538539E+03
              0.939402375381860E+00
             -0.439730923986040E+02
              0.532909712504294E+03
              0.305454930609198E+03
              0.986095461229650E+02
             -0.379368290261884E+03
              0.526982946392436E+03
             -0.277454523319229E+03
             -0.325791963455592E+03
             -0.442762610208921E+03
              0.219958975296158E+03
             -0.391213256690551E+03
              0.175067103399057E+03
              0.341813844542061E+03
              0.216981593271964E+03
              0.107002508240052E+03
              0.137802204504386E+03
             -0.348195827217127E+03
             -0.115727816846549E+03
             -0.980969181782164E+02
              0.187520840474225E+03
              0.317649333963682E+03
              0.369815350828515E+03
              0.309155771115627E+03
             -0.756641667000463E+02
              0.748410690486085E+02
             -0.296835880698427E+02
             -0.113174391647517E+03
              0.122622310692194E+03
              0.128227458359559E+03
             -0.179747954421083E+03
             -0.241426081901317E+03
             -0.849770320727009E+02
              0.306467740161058E+03
              0.152424759103556E+03
             -0.198801592052864E+03
             -0.263693881133368E+03
             -0.344055199058775E+03
             -0.153387777931241E+02
              0.738726012633524E+02
             -0.145093925488464E+03
              0.519213833028556E+03
              0.447059321082384E+02
             -0.620306014078194E+03
              0.138813783623757E+03
              0.302329504200559E+03
             -0.130768339386194E+03
              0.285380056815853E+02
             -0.198916275037784E+03
              0.244190232960418E+03
              0.925879740385989E+02
             -0.312749188423400E+03
              0.382353113166124E+03
             -0.342350303733634E+02
             -0.207755763481384E+03
             -0.198870781134659E+03
              0.721094963698784E+03
              0.348979129016638E+03
             -0.769792238035948E+02
              0.206385686730781E+03
             -0.272101770065552E+03
             -0.419796394866821E+02
             -0.325484682791766E+03
              0.140253140547749E+03
              0.186489273531336E+03
              0.252986751604481E+03
             -0.108280727412742E+03
              0.322760532364887E+02
              0.280406258254432E+03
              0.139360761086320E+03
              0.182530193578242E+03
              0.850834570070292E+02
             -0.692014097085951E+02
             -0.761258792198146E+01
             -0.488562701706552E+02
              0.722909188975082E+02
              0.290325989854755E+02
             -0.230151936831495E+03
              0.428468882468377E+03
              0.181711975698721E+03
             -0.278661643861194E+03
             -0.190876018038669E+03
             -0.312376593647391E+03
             -0.158610087342495E+03
             -0.100140472570217E+03
             -0.245205168787632E+03
             -0.248350963484114E+03
              0.383136826780561E+03
              0.259448395938005E+03
             -0.608860985966271E+02
              0.338506765629970E+03
              0.912785297229411E+02
             -0.588831371296558E+03
              0.303129736394273E+03
              0.895650897154239E+02
              0.276811404092238E+03
              0.712517345712257E+02
              0.749436433500376E+02
              0.644707621122823E+02
              0.168695847121248E+03
             -0.218458560684580E+03
             -0.125671893119584E+03
             -0.191029544938034E+03
             -0.134546709598063E+03
              0.812461443963537E+02
             -0.209434707975895E+03
              0.819082670373441E+02
              0.119267508165499E+03
             -0.142885948039844E+03
             -0.575783422357226E+02
             -0.159214203383629E+02
              0.369121531206413E+03
              0.280815060089544E+02
              0.399860855672726E+03
              0.103607758654727E+03
             -0.456116843151754E+03
             -0.176867050625558E+03
              0.154972655151189E+03
              0.301997635845349E+03
              0.113700159777324E+03
              0.118806688360212E+03
              0.321126103469661E+03
             -0.219125928815363E+03
             -0.340383605876136E+03
              0.399015576412819E+03
             -0.410583186681206E+02
             -0.454578541214054E+03
              0.152708661283359E+03
              0.294419139197114E+03
             -0.466443356981149E+02
             -0.231542322268091E+03
             -0.116376959802747E+02
              0.364409440209556E+02
             -0.139530313267744E+03
              0.756895189267570E+02
             -0.546089428224455E+02
              0.604248916966693E+03
              0.137350113990336E+03
             -0.302976159419242E+03
              0.883730304623540E+02
              0.404323750562156E+03
             -0.225635916419612E+03
             -0.119406172078097E+03
             -0.218227900017516E+03
              0.142287958820488E+03
              0.976040913785075E+02
              0.894937037711677E+02
             -0.377476230884781E+01
              0.431240734972761E+03
             -0.282071450702047E+03
             -0.214163881675583E+03
             -0.204708288360787E+03
              0.212577772286549E+03
              0.409896056222969E+03
             -0.129228697969403E+02
              0.176125211051329E+03
             -0.218490846835557E+03
             -0.211477316844166E+02
             -0.594847899704169E+02
             -0.877515716488838E+02
             -0.108644839518691E+03
             -0.112935242065846E+03
             -0.729892411571874E+02
              0.110681535017764E+03
              0.108267353052109E+03
             -0.307022655579465E+03
              0.214838587863700E+03
             -0.341223329192287E+03
              0.247294836919887E+03
             -0.336501827432548E+03
              0.505663072915330E+03
              0.249739723999616E+03
              0.247675901102768E+03
              0.519637507938112E+02
              0.301547909938176E+02
             -0.634423763239015E+03
              0.123537408179066E+03
              0.356279070465603E+02
              0.135325049851372E+02
             -0.791156850515714E+02
              0.453908983739389E+03
             -0.205644248467172E+03
             -0.164158917384117E+03
             -0.496202911494407E+03
             -0.168252168745457E+03
             -0.197725955637863E+03
             -0.208948121962488E+03
             -0.502335560087224E+02
             -0.896855178883261E+02
             -0.129957413654396E+03
             -0.209658778420239E+03
              0.157792833117223E+03
              0.496725118703193E+03
              0.431081174105498E+03
             -0.144039170167006E+03
             -0.537433953227636E+03
             -0.212858513002135E+03
              0.136041561681110E+03
              0.948366057524696E+02
              0.129824378362880E+03
              0.135186229526850E+03
              0.416891672643860E+02
              0.437263063830360E+03
             -0.115020861847906E+03
              0.260225346155242E+03
              0.844043025350782E+02
             -0.163278800820870E+03
             -0.114316387883719E+03
              0.220392236012940E+03
             -0.942492209966699E+02
             -0.109588697626948E+03
             -0.593232809241658E+02
              0.281161358503620E+03
             -0.350864088709713E+03
             -0.812023657658751E+02
             -0.306363053828523E+03
             -0.665102730604889E+03
              0.316833990076284E+02
             -0.680153876823916E+02
              0.233171610644662E+03
              0.248774024255400E+03
              0.377145371561440E+03
             -0.229982883407760E+03
              0.391526734797307E+03
              0.918662711630909E+02
             -0.742544127185204E+02
              0.816747993862123E+02
             -0.155326114143778E+03
             -0.100700387929996E+03
              0.191414025196415E+03
             -0.213963507336435E+03
              0.492186318536175E+03
             -0.121299008608337E+03
             -0.268718178178145E+03
              0.485957229270316E+03
             -0.284062534766604E+03
             -0.671528982619047E+02
              0.502186503495495E+02
              0.140956601072847E+03
             -0.226520287030226E+03
             -0.175468693119927E+03
              0.229449770526679E+03
             -0.438840722655699E+03
              0.289935206140461E+03
              0.520963286037221E+02
              0.229043376770715E+03
              0.316222927755424E+03
              0.420672758700055E+02
             -0.371882775765015E+03
             -0.186613316803715E+03
             -0.316155091699478E+03
             -0.186914708868779E+03
             -0.120689716971971E+03
              0.494634806350080E+02
             -0.103189162820326E+03
              0.276157782362579E+02
             -0.539379898634823E+03
             -0.193897884544314E+02
             -0.314787847179296E+03
              0.287074435414648E+03
             -0.122391970258242E+03
             -0.382023476093630E+02
              0.218551345420683E+03
              0.107893239829619E+02
              0.238056247829188E+03
             -0.370655864816813E+03
              0.916926821203242E+02
              0.518662863094863E+02
              0.122642551323233E+03
              0.298174815961370E+03
             -0.230479748026546E+02
             -0.348510724909549E+03
             -0.174081991080373E+03
             -0.125116123036855E+03
             -0.698316660376649E+02
              0.287547580167787E+03
              0.193275663691840E+03
             -0.150703087676890E+03
             -0.194873129259362E+03
              0.162077961020037E+03
              0.146498118866498E+03
             -0.372354268915261E+03
              0.117591691583567E+03
              0.279751334526136E+03
             -0.219494674493105E+02
              0.317176003353343E+03
              0.186385103497631E+03
              0.242907493131424E+03
              0.345360663766655E+03
              0.124863336980218E+02
             -0.567215565822908E+03
              0.516398153920414E+02
              0.616080289878084E+03
              0.410327966090064E+03
             -0.289308418399251E+03
              0.217271489675212E+02
              0.341659504496635E+03
              0.315443361956043E+03
              0.134778451564796E+03
             -0.968950641951172E+02
              0.149714697928490E+03
              0.370720291883124E+03
             -0.127096534315395E+03
             -0.122458263127016E+03
              0.212668791407747E+03
             -0.321336949699516E+02
              0.171600225351911E+03
              0.614311368637004E+00
              0.408282677155234E+03
             -0.137859627930026E+03
              0.570486593489647E+02
             -0.221184335466488E+03
              0.199089884829779E+03
             -0.246698362305813E+02
              0.317892025582099E+03
              0.222832923847018E+02
              0.884370232136102E+02
             -0.212213191864149E+03
             -0.116012917353933E+03
             -0.650565089583649E+02
             -0.266166886278776E+02
              0.335049179236531E+03
              0.954586422851878E+02
              0.442694322871751E+03
              0.261562642133015E+03
              0.411272900471090E+02
             -0.196777473823147E+00
              0.401996657854379E+03
              0.210361824852281E+03
              0.262978988290015E+02
              0.371663980009514E+03
             -0.330858542822154E+03
              0.138479622064018E+03
             -0.175959436130554E+03
             -0.133650741016682E+03
              0.482163526652282E+03
             -0.783349635600853E+02
              0.461562421014969E+01
             -0.765866001013735E+02
              0.402684259600233E+03
             -0.112707775334164E+03
             -0.113274093318705E+02
              0.834523188059330E+03
             -0.300495736516638E+03
             -0.244220389978522E+03
             -0.313328029832123E+03
             -0.147401603534115E+03
              0.171464996172108E+03
             -0.782471178045175E+02
              0.724797298794210E+02
              0.303562651584798E+01
              0.104969615438381E+03
              0.169010055493548E+03
              0.159722694022394E+03
              0.340076840467318E+03
              0.139067995265463E+03
              0.237096188820925E+03
             -0.339456914054757E+03
             -0.264523506514635E+03
             -0.107671146844604E+03
             -0.290922626466130E+03
              0.524346482163603E+03
              0.449741270310284E+03
              0.195458635472787E+03
              0.530232326786584E+03
             -0.284436200065774E+03
             -0.136811449100504E+03
             -0.141235380612731E+03
              0.418381051636950E+03
 
 BEEF-vdW xc energy contributions
            1 :    -4088.976021901819     
            2 :     3607.761895275545     
            3 :    -2777.958712542845     
            4 :     1814.759296426194     
            5 :    -937.8573737824117     
            6 :     298.8554462596821     
            7 :     56.74689694400240     
            8 :    -181.3287243293262     
            9 :     180.4939109080169     
           10 :    -156.7328796581451     
           11 :     167.9531101511402     
           12 :    -216.5232196048728     
           13 :     267.5615701348506     
           14 :    -281.3424501363643     
           15 :     240.4323590548656     
           16 :    -158.3841845151701     
           17 :     68.85110825147240     
           18 :    -4.701633021100861     
           19 :    -19.40486307267020     
           20 :     11.61356722967139     
           21 :     6.037782087197229     
           22 :    -12.90596898532931     
           23 :     1.627432676012177     
           24 :     19.82822148762898     
           25 :    -35.72636528913426     
           26 :     33.88666394306892     
           27 :    -13.39903012838113     
           28 :    -15.54443555927901     
           29 :     38.70135627511627     
           30 :    -46.63183981198745     
           31 :    -534.9512413730499     
           32 :    -388.1605835591772     

     Writing all to output data dir ./diamond.save/
 
     init_run     :     39.63s CPU     68.60s WALL (       1 calls)
     electrons    :  19871.15s CPU  20075.68s WALL (       1 calls)
     forces       :     46.17s CPU     47.92s WALL (       1 calls)
     stress       :    746.97s CPU    768.32s WALL (       1 calls)

     Called by init_run:
     wfcinit      :     33.46s CPU     61.75s WALL (       1 calls)
     potinit      :      1.26s CPU      1.49s WALL (       1 calls)
     hinit0       :      1.81s CPU      1.94s WALL (       1 calls)

     Called by electrons:
     c_bands      :  19742.63s CPU  19942.65s WALL (       5 calls)
     sum_band     :    106.61s CPU    109.81s WALL (       5 calls)
     v_of_rho     :      3.79s CPU      3.88s WALL (       5 calls)
     v_h          :      0.07s CPU      0.07s WALL (       5 calls)
     v_xc         :     29.29s CPU     29.68s WALL (      41 calls)
     newd         :      1.52s CPU      2.54s WALL (       5 calls)
     PAW_pot      :      1.20s CPU      1.21s WALL (       5 calls)
     mix_rho      :      0.12s CPU      0.12s WALL (       5 calls)
     vdW_kernel   :      0.14s CPU      0.15s WALL (       1 calls)

     Called by c_bands:
     init_us_2    :      1.44s CPU      1.54s WALL (      10 calls)
     init_us_2:cp :      1.44s CPU      1.54s WALL (      10 calls)
     cegterg      :  19733.63s CPU  19929.79s WALL (       5 calls)

     Called by sum_band:
     sum_band:wei :      0.01s CPU      0.01s WALL (       5 calls)
     sum_band:loo :    104.52s CPU    105.39s WALL (       5 calls)
     sum_band:buf :      0.00s CPU      0.00s WALL (       5 calls)
     sum_band:ini :      1.07s CPU      1.08s WALL (       5 calls)
     sum_band:cal :     50.80s CPU     51.18s WALL (       5 calls)
     sum_band:bec :      0.81s CPU      0.82s WALL (       5 calls)
     addusdens    :      1.44s CPU      2.49s WALL (       5 calls)
     addusd:skk   :      0.44s CPU      1.44s WALL (       5 calls)
     addusd:dgemm :      0.95s CPU      0.97s WALL (       5 calls)
     addusd:qvan2 :      0.03s CPU      0.03s WALL (       5 calls)

     Called by *egterg:
     cdiaghg      :  18635.11s CPU  18779.71s WALL (      77 calls)
     cegterg:over :    166.05s CPU    174.85s WALL (      74 calls)
     cegterg:upda :     97.96s CPU     99.28s WALL (      74 calls)
     cegterg:last :     37.38s CPU     37.67s WALL (       5 calls)
     h_psi        :    618.00s CPU    628.08s WALL (      79 calls)
     s_psi        :    134.87s CPU    139.38s WALL (      79 calls)
     g_psi        :      0.12s CPU      0.12s WALL (      74 calls)

     Called by h_psi:
     h_psi:calbec :    149.65s CPU    150.88s WALL (      79 calls)
     vloc_psi     :    332.42s CPU    335.76s WALL (      79 calls)
     vloc_psi:tg_ :      0.03s CPU      0.03s WALL (      79 calls)
     add_vuspsi   :    135.20s CPU    140.12s WALL (      79 calls)

     General routines
     calbec       :    250.01s CPU    251.99s WALL (      89 calls)
     fft          :     24.49s CPU     24.75s WALL (    2421 calls)
     ffts         :      0.14s CPU      0.14s WALL (      10 calls)
     fftw         :    377.42s CPU    381.12s WALL (   84588 calls)
     interpolate  :      0.13s CPU      0.14s WALL (       5 calls)
 
     Parallel routines
     fft_scatt_xy :      7.25s CPU      7.30s WALL (   87019 calls)
     fft_scatt_yz :    346.83s CPU    350.02s WALL (   87019 calls)
     fft_scatt_tg :      0.51s CPU      0.53s WALL (   84588 calls)

     PAW routines
     PAW_pot      :      1.20s CPU      1.21s WALL (       5 calls)
     PAW_symme    :      0.02s CPU      0.02s WALL (       9 calls)
 
     PWSCF        :      5h46m CPU      5h50m WALL

 
   This run was terminated on:  13:25: 3  26Feb2024            

=------------------------------------------------------------------------------=
   JOB DONE.
=------------------------------------------------------------------------------=
