
     Program PWSCF v.7.1 starts on 26Mar2024 at  3:34: 8 

     This program is part of the open-source Quantum ESPRESSO suite
     for quantum simulation of materials; please cite
         "P. Giannozzi et al., J. Phys.:Condens. Matter 21 395502 (2009);
         "P. Giannozzi et al., J. Phys.:Condens. Matter 29 465901 (2017);
         "P. Giannozzi et al., J. Chem. Phys. 152 154105 (2020);
          URL http://www.quantum-espresso.org", 
     in publications or presentations arising from this work. More details at
     http://www.quantum-espresso.org/quote

     Parallel version (MPI & OpenMP), running on     180 processor cores
     Number of MPI processes:               180
     Threads/MPI process:                     1

     MPI processes distributed on     2 nodes
     1922107 MiB available memory on the printing compute node when the environment starts
 
     Reading input from espresso.pwi
Warning: card &CELL ignored
Warning: card    CELL_DYNAMICS    = 'BFGS' ignored
Warning: card / ignored

     Current dimensions of program PWSCF are:
     Max number of different atomic species (ntypx) = 10
     Max number of k-points (npk) =  40000
     Max angular momentum in pseudopotentials (lmaxx) =  4
     file Ga.pbe-dn-kjpaw_psl.1.0.0.UPF: wavefunction(s)  4S renormalized
     file N.pbe-n-kjpaw_psl.1.0.0.UPF: wavefunction(s)  2S renormalized

     **************************************************************************
     Initializing libbeef V0.1.2 with the BEEF-vdW functional.
     Citation: Wellendorff et al., PRB 85, 235149 (2012).
     **************************************************************************


     IMPORTANT: XC functional enforced from input :
     Exchange-correlation= BEEF-VDW
                           (   1   4  43  14   2   0   0)
     Any further DFT definition will be discarded
     Please, verify this is what you really want

 
     K-points division:     npool     =       3
     R & G space division:  proc/nbgrp/npool/nimage =      60
     Subspace diagonalization in iterative solution of the eigenvalue problem:
     a serial algorithm will be used

 
     Parallelization info
     --------------------
     sticks:   dense  smooth     PW     G-vecs:    dense   smooth      PW
     Min         378     302     78                44970    32176    4254
     Max         379     303     79                44974    32181    4259
     Sum       22693   18145   4705              2698283  1930731  255309
 
     Using Slab Decomposition
 


     bravais-lattice index     =            4
     lattice parameter (alat)  =      30.6565  a.u.
     unit-cell volume          =   24400.9461 (a.u.)^3
     number of atoms/cell      =          299
     number of atomic types    =            2
     number of electrons       =      2693.00
     number of Kohn-Sham states=         1616
     kinetic-energy cutoff     =      70.0000  Ry
     charge density cutoff     =     350.0000  Ry
     scf convergence threshold =      1.0E-07
     mixing beta               =       0.7000
     number of iterations used =            8  plain     mixing
     energy convergence thresh.=      1.0E-04
     force convergence thresh. =      1.0E-03
     Exchange-correlation= BEEF-VDW
                           (   1   4  43  14   2   0   0)
     nstep                     =           50


     celldm(1)=  30.656540  celldm(2)=   0.000000  celldm(3)=   0.977927
     celldm(4)=   0.000000  celldm(5)=   0.000000  celldm(6)=   0.000000

     crystal axes: (cart. coord. in units of alat)
               a(1) = (   1.000000   0.000000   0.000000 )  
               a(2) = (  -0.500000   0.866025   0.000000 )  
               a(3) = (   0.000000   0.000000   0.977927 )  

     reciprocal axes: (cart. coord. in units 2 pi/alat)
               b(1) = (  1.000000  0.577350 -0.000000 )  
               b(2) = (  0.000000  1.154701  0.000000 )  
               b(3) = (  0.000000 -0.000000  1.022571 )  


     PseudoPot. # 1 for Ga read from file:
     //group///packages/espresso/pseudo/psl_1.0.0/pslibrary.1.0.0/pbe/PSEUDOPOTENTIALS/Ga.pbe-dn-kjpaw_psl.1.0.0.UPF
     MD5 check sum: cd2a01e492f15b435d17032472d8505c
     Pseudo is Projector augmented-wave + core cor, Zval = 13.0
     Generated using 'atomic' code by A. Dal Corso  v.7.1
     Shape of augmentation charge: PSQ
     Using radial grid of 1205 points,  6 beta functions with: 
                l(1) =   0
                l(2) =   0
                l(3) =   1
                l(4) =   1
                l(5) =   2
                l(6) =   2
     Q(r) pseudized with 0 coefficients 


     PseudoPot. # 2 for N  read from file:
     //group///packages/espresso/pseudo/psl_1.0.0/pslibrary.1.0.0/pbe/PSEUDOPOTENTIALS/N.pbe-n-kjpaw_psl.1.0.0.UPF
     MD5 check sum: f77f775694dac7e2c3fe1c82443d1a16
     Pseudo is Projector augmented-wave + core cor, Zval =  5.0
     Generated using 'atomic' code by A. Dal Corso  v.7.1
     Shape of augmentation charge: PSQ
     Using radial grid of 1085 points,  4 beta functions with: 
                l(1) =   0
                l(2) =   0
                l(3) =   1
                l(4) =   1
     Q(r) pseudized with 0 coefficients 


     atomic species   valence    mass     pseudopotential
        Ga            13.00    69.72300     Ga( 1.00)
        N              5.00    14.00700     N ( 1.00)

      2 Sym. Ops. (no inversion) found


                                    s                        frac. trans.

      isym =  1     identity                                     

 cryst.   s( 1) = (     1          0          0      )
                  (     0          1          0      )
                  (     0          0          1      )

 cart.    s( 1) = (  1.0000000  0.0000000  0.0000000 )
                  (  0.0000000  1.0000000  0.0000000 )
                  (  0.0000000  0.0000000  1.0000000 )


      isym =  2     inv. 180 deg rotation - cryst. axis [0,1,0]  

 cryst.   s( 2) = (     1          1          0      )
                  (     0         -1          0      )
                  (     0          0          1      )

 cart.    s( 2) = (  0.5000000  0.8660254  0.0000000 )
                  (  0.8660254 -0.5000000  0.0000000 )
                  (  0.0000000  0.0000000  1.0000000 )


     point group C_s (m)    
     there are  2 classes
     the character table:

       E     s    
A'     1.00  1.00
A''    1.00 -1.00

     the symmetry operations in each class and the name of the first element:

     E        1
          identity                                               
     s        2
          inv. 180 deg rotation - cryst. axis [0,1,0]            

   Cartesian axes

     site n.     atom                  positions (alat units)
         1           Ga  tau(   1) = (   0.1000001   0.0577350   0.1627148  )
         2           Ga  tau(   2) = (   0.1000001   0.0577350   0.4886906  )
         3           Ga  tau(   3) = (   0.1000001   0.0577350   0.8146665  )
         4           Ga  tau(   4) = (   0.0000001   0.2309401   0.1627148  )
         5           Ga  tau(   5) = (   0.0000001   0.2309401   0.4886906  )
         6           Ga  tau(   6) = (   0.0000001   0.2309401   0.8146665  )
         7           Ga  tau(   7) = (  -0.0999999   0.4041451   0.1627148  )
         8           Ga  tau(   8) = (  -0.0999999   0.4041451   0.4886906  )
         9           Ga  tau(   9) = (  -0.0999999   0.4041451   0.8146665  )
        10           Ga  tau(  10) = (  -0.1999999   0.5773502   0.1627148  )
        11           Ga  tau(  11) = (  -0.1999999   0.5773502   0.4886906  )
        12           Ga  tau(  12) = (  -0.1999999   0.5773502   0.8146665  )
        13           Ga  tau(  13) = (  -0.2999999   0.7505553   0.1627148  )
        14           Ga  tau(  14) = (  -0.2999999   0.7505553   0.4886906  )
        15           Ga  tau(  15) = (  -0.2999999   0.7505553   0.8146665  )
        16           Ga  tau(  16) = (   0.3000001   0.0577350   0.1627148  )
        17           Ga  tau(  17) = (   0.3000001   0.0577350   0.4886906  )
        18           Ga  tau(  18) = (   0.3000001   0.0577350   0.8146665  )
        19           Ga  tau(  19) = (   0.2000001   0.2309401   0.1627148  )
        20           Ga  tau(  20) = (   0.2000001   0.2309401   0.4886906  )
        21           Ga  tau(  21) = (   0.2000001   0.2309401   0.8146665  )
        22           Ga  tau(  22) = (   0.1000001   0.4041451   0.1627148  )
        23           Ga  tau(  23) = (   0.1000001   0.4041451   0.4886906  )
        24           Ga  tau(  24) = (   0.1000001   0.4041451   0.8146665  )
        25           Ga  tau(  25) = (   0.0000001   0.5773502   0.1627148  )
        26           Ga  tau(  26) = (   0.0000001   0.5773502   0.4886906  )
        27           Ga  tau(  27) = (   0.0000001   0.5773502   0.8146665  )
        28           Ga  tau(  28) = (  -0.0999999   0.7505553   0.1627148  )
        29           Ga  tau(  29) = (  -0.0999999   0.7505553   0.4886906  )
        30           Ga  tau(  30) = (  -0.0999999   0.7505553   0.8146665  )
        31           Ga  tau(  31) = (   0.5000001   0.0577350   0.1627148  )
        32           Ga  tau(  32) = (   0.5000001   0.0577350   0.4886906  )
        33           Ga  tau(  33) = (   0.5000001   0.0577350   0.8146665  )
        34           Ga  tau(  34) = (   0.4000001   0.2309401   0.1627148  )
        35           Ga  tau(  35) = (   0.4000001   0.2309401   0.4886906  )
        36           Ga  tau(  36) = (   0.4000001   0.2309401   0.8146665  )
        37           Ga  tau(  37) = (   0.3000001   0.4041451   0.1627148  )
        38           Ga  tau(  38) = (   0.3000001   0.4041451   0.4886906  )
        39           Ga  tau(  39) = (   0.3000001   0.4041451   0.8146665  )
        40           Ga  tau(  40) = (   0.2000001   0.5773502   0.1627148  )
        41           Ga  tau(  41) = (   0.2000001   0.5773502   0.4886906  )
        42           Ga  tau(  42) = (   0.2000001   0.5773502   0.8146665  )
        43           Ga  tau(  43) = (   0.1000001   0.7505553   0.1627148  )
        44           Ga  tau(  44) = (   0.1000001   0.7505553   0.4886906  )
        45           Ga  tau(  45) = (   0.1000001   0.7505553   0.8146665  )
        46           Ga  tau(  46) = (   0.7000001   0.0577350   0.1627148  )
        47           Ga  tau(  47) = (   0.7000001   0.0577350   0.4886906  )
        48           Ga  tau(  48) = (   0.7000001   0.0577350   0.8146665  )
        49           Ga  tau(  49) = (   0.6000001   0.2309401   0.1627148  )
        50           Ga  tau(  50) = (   0.6000001   0.2309401   0.4886906  )
        51           Ga  tau(  51) = (   0.6000001   0.2309401   0.8146665  )
        52           Ga  tau(  52) = (   0.5000001   0.4041451   0.1627148  )
        53           Ga  tau(  53) = (   0.5000001   0.4041451   0.4886906  )
        54           Ga  tau(  54) = (   0.5000001   0.4041451   0.8146665  )
        55           Ga  tau(  55) = (   0.4000001   0.5773502   0.1627148  )
        56           Ga  tau(  56) = (   0.4000001   0.5773502   0.4886906  )
        57           Ga  tau(  57) = (   0.4000001   0.5773502   0.8146665  )
        58           Ga  tau(  58) = (   0.3000001   0.7505553   0.1627148  )
        59           Ga  tau(  59) = (   0.3000001   0.7505553   0.4886906  )
        60           Ga  tau(  60) = (   0.3000001   0.7505553   0.8146665  )
        61           Ga  tau(  61) = (   0.9000001   0.0577350   0.1627148  )
        62           Ga  tau(  62) = (   0.9000001   0.0577350   0.4886906  )
        63           Ga  tau(  63) = (   0.9000001   0.0577350   0.8146665  )
        64           Ga  tau(  64) = (   0.8000001   0.2309401   0.1627148  )
        65           Ga  tau(  65) = (   0.8000001   0.2309401   0.4886906  )
        66           Ga  tau(  66) = (   0.8000001   0.2309401   0.8146665  )
        67           Ga  tau(  67) = (   0.7000001   0.4041451   0.1627148  )
        68           Ga  tau(  68) = (   0.7000001   0.4041451   0.4886906  )
        69           Ga  tau(  69) = (   0.7000001   0.4041451   0.8146665  )
        70           Ga  tau(  70) = (   0.6000001   0.5773502   0.1627148  )
        71           Ga  tau(  71) = (   0.6000001   0.5773502   0.4886906  )
        72           Ga  tau(  72) = (   0.6000001   0.5773502   0.8146665  )
        73           Ga  tau(  73) = (   0.5000001   0.7505553   0.1627148  )
        74           Ga  tau(  74) = (   0.5000001   0.7505553   0.4886906  )
        75           Ga  tau(  75) = (   0.5000001   0.7505553   0.8146665  )
        76           Ga  tau(  76) = (  -0.0000001   0.1154701   0.3257027  )
        77           Ga  tau(  77) = (  -0.0000001   0.1154701   0.6516786  )
        78           Ga  tau(  78) = (  -0.0000001   0.1154701   0.9776544  )
        79           Ga  tau(  79) = (  -0.1000001   0.2886752   0.3257027  )
        80           Ga  tau(  80) = (  -0.1000001   0.2886752   0.6516786  )
        81           Ga  tau(  81) = (  -0.1000001   0.2886752   0.9776544  )
        82           Ga  tau(  82) = (  -0.2000001   0.4618803   0.3257027  )
        83           Ga  tau(  83) = (  -0.2000001   0.4618803   0.6516786  )
        84           Ga  tau(  84) = (  -0.2000001   0.4618803   0.9776544  )
        85           Ga  tau(  85) = (  -0.3000001   0.6350854   0.3257027  )
        86           Ga  tau(  86) = (  -0.3000001   0.6350854   0.6516786  )
        87           Ga  tau(  87) = (  -0.3000001   0.6350854   0.9776544  )
        88           Ga  tau(  88) = (  -0.4000001   0.8082905   0.3257027  )
        89           Ga  tau(  89) = (  -0.4000001   0.8082905   0.6516786  )
        90           Ga  tau(  90) = (  -0.4000001   0.8082905   0.9776544  )
        91           Ga  tau(  91) = (   0.1999999   0.1154701   0.3257027  )
        92           Ga  tau(  92) = (   0.1999999   0.1154701   0.6516786  )
        93           Ga  tau(  93) = (   0.1999999   0.1154701   0.9776544  )
        94           Ga  tau(  94) = (   0.0999999   0.2886752   0.3257027  )
        95           Ga  tau(  95) = (   0.0999999   0.2886752   0.6516786  )
        96           Ga  tau(  96) = (   0.0999999   0.2886752   0.9776544  )
        97           Ga  tau(  97) = (  -0.0000001   0.4618803   0.3257027  )
        98           Ga  tau(  98) = (  -0.0000001   0.4618803   0.6516786  )
        99           Ga  tau(  99) = (  -0.0000001   0.4618803   0.9776544  )
       100           Ga  tau( 100) = (  -0.1000001   0.6350854   0.3257027  )
       101           Ga  tau( 101) = (  -0.1000001   0.6350854   0.6516786  )
       102           Ga  tau( 102) = (  -0.1000001   0.6350854   0.9776544  )
       103           Ga  tau( 103) = (  -0.2000001   0.8082905   0.3257027  )
       104           Ga  tau( 104) = (  -0.2000001   0.8082905   0.6516786  )
       105           Ga  tau( 105) = (  -0.2000001   0.8082905   0.9776544  )
       106           Ga  tau( 106) = (   0.3999999   0.1154701   0.3257027  )
       107           Ga  tau( 107) = (   0.3999999   0.1154701   0.6516786  )
       108           Ga  tau( 108) = (   0.3999999   0.1154701   0.9776544  )
       109           Ga  tau( 109) = (   0.2999999   0.2886752   0.3257027  )
       110           Ga  tau( 110) = (   0.2999999   0.2886752   0.6516786  )
       111           Ga  tau( 111) = (   0.2999999   0.2886752   0.9776544  )
       112           Ga  tau( 112) = (   0.1999999   0.4618803   0.3257027  )
       113           Ga  tau( 113) = (   0.1999999   0.4618803   0.6516786  )
       114           Ga  tau( 114) = (   0.1999999   0.4618803   0.9776544  )
       115           Ga  tau( 115) = (   0.0999999   0.6350854   0.3257027  )
       116           Ga  tau( 116) = (   0.0999999   0.6350854   0.6516786  )
       117           Ga  tau( 117) = (   0.0999999   0.6350854   0.9776544  )
       118           Ga  tau( 118) = (  -0.0000001   0.8082905   0.3257027  )
       119           Ga  tau( 119) = (  -0.0000001   0.8082905   0.6516786  )
       120           Ga  tau( 120) = (  -0.0000001   0.8082905   0.9776544  )
       121           Ga  tau( 121) = (   0.5999999   0.1154701   0.3257027  )
       122           Ga  tau( 122) = (   0.5999999   0.1154701   0.6516786  )
       123           Ga  tau( 123) = (   0.5999999   0.1154701   0.9776544  )
       124           Ga  tau( 124) = (   0.4999999   0.2886752   0.3257027  )
       125           Ga  tau( 125) = (   0.4999999   0.2886752   0.6516786  )
       126           Ga  tau( 126) = (   0.4999999   0.2886752   0.9776544  )
       127           Ga  tau( 127) = (   0.3999999   0.4618803   0.3257027  )
       128           Ga  tau( 128) = (   0.3999999   0.4618803   0.6516786  )
       129           Ga  tau( 129) = (   0.3999999   0.4618803   0.9776544  )
       130           Ga  tau( 130) = (   0.2999999   0.6350854   0.3257027  )
       131           Ga  tau( 131) = (   0.2999999   0.6350854   0.6516786  )
       132           Ga  tau( 132) = (   0.2999999   0.6350854   0.9776544  )
       133           Ga  tau( 133) = (   0.1999999   0.8082905   0.3257027  )
       134           Ga  tau( 134) = (   0.1999999   0.8082905   0.6516786  )
       135           Ga  tau( 135) = (   0.1999999   0.8082905   0.9776544  )
       136           Ga  tau( 136) = (   0.7999999   0.1154701   0.3257027  )
       137           Ga  tau( 137) = (   0.7999999   0.1154701   0.6516786  )
       138           Ga  tau( 138) = (   0.7999999   0.1154701   0.9776544  )
       139           Ga  tau( 139) = (   0.6999999   0.2886752   0.3257027  )
       140           Ga  tau( 140) = (   0.6999999   0.2886752   0.6516786  )
       141           Ga  tau( 141) = (   0.6999999   0.2886752   0.9776544  )
       142           Ga  tau( 142) = (   0.5999999   0.4618803   0.3257027  )
       143           Ga  tau( 143) = (   0.5999999   0.4618803   0.6516786  )
       144           Ga  tau( 144) = (   0.5999999   0.4618803   0.9776544  )
       145           Ga  tau( 145) = (   0.4999999   0.6350854   0.3257027  )
       146           Ga  tau( 146) = (   0.4999999   0.6350854   0.6516786  )
       147           Ga  tau( 147) = (   0.4999999   0.6350854   0.9776544  )
       148           Ga  tau( 148) = (   0.3999999   0.8082905   0.3257027  )
       149           Ga  tau( 149) = (   0.3999999   0.8082905   0.6516786  )
       150           Ga  tau( 150) = (   0.3999999   0.8082905   0.9776544  )
       151           N   tau( 151) = (   0.1000001   0.0577350   0.6114777  )
       152           N   tau( 152) = (   0.1000001   0.0577350   0.9374535  )
       153           N   tau( 153) = (   0.0000001   0.2309401   0.2855019  )
       154           N   tau( 154) = (   0.0000001   0.2309401   0.6114777  )
       155           N   tau( 155) = (   0.0000001   0.2309401   0.9374535  )
       156           N   tau( 156) = (  -0.0999999   0.4041451   0.2855019  )
       157           N   tau( 157) = (  -0.0999999   0.4041451   0.6114777  )
       158           N   tau( 158) = (  -0.0999999   0.4041451   0.9374535  )
       159           N   tau( 159) = (  -0.1999999   0.5773502   0.2855019  )
       160           N   tau( 160) = (  -0.1999999   0.5773502   0.6114777  )
       161           N   tau( 161) = (  -0.1999999   0.5773502   0.9374535  )
       162           N   tau( 162) = (  -0.2999999   0.7505553   0.2855019  )
       163           N   tau( 163) = (  -0.2999999   0.7505553   0.6114777  )
       164           N   tau( 164) = (  -0.2999999   0.7505553   0.9374535  )
       165           N   tau( 165) = (   0.3000001   0.0577350   0.2855019  )
       166           N   tau( 166) = (   0.3000001   0.0577350   0.6114777  )
       167           N   tau( 167) = (   0.3000001   0.0577350   0.9374535  )
       168           N   tau( 168) = (   0.2000001   0.2309401   0.2855019  )
       169           N   tau( 169) = (   0.2000001   0.2309401   0.6114777  )
       170           N   tau( 170) = (   0.2000001   0.2309401   0.9374535  )
       171           N   tau( 171) = (   0.1000001   0.4041451   0.2855019  )
       172           N   tau( 172) = (   0.1000001   0.4041451   0.6114777  )
       173           N   tau( 173) = (   0.1000001   0.4041451   0.9374535  )
       174           N   tau( 174) = (   0.0000001   0.5773502   0.2855019  )
       175           N   tau( 175) = (   0.0000001   0.5773502   0.6114777  )
       176           N   tau( 176) = (   0.0000001   0.5773502   0.9374535  )
       177           N   tau( 177) = (  -0.0999999   0.7505553   0.2855019  )
       178           N   tau( 178) = (  -0.0999999   0.7505553   0.6114777  )
       179           N   tau( 179) = (  -0.0999999   0.7505553   0.9374535  )
       180           N   tau( 180) = (   0.5000001   0.0577350   0.2855019  )
       181           N   tau( 181) = (   0.5000001   0.0577350   0.6114777  )
       182           N   tau( 182) = (   0.5000001   0.0577350   0.9374535  )
       183           N   tau( 183) = (   0.4000001   0.2309401   0.2855019  )
       184           N   tau( 184) = (   0.4000001   0.2309401   0.6114777  )
       185           N   tau( 185) = (   0.4000001   0.2309401   0.9374535  )
       186           N   tau( 186) = (   0.3000001   0.4041451   0.2855019  )
       187           N   tau( 187) = (   0.3000001   0.4041451   0.6114777  )
       188           N   tau( 188) = (   0.3000001   0.4041451   0.9374535  )
       189           N   tau( 189) = (   0.2000001   0.5773502   0.2855019  )
       190           N   tau( 190) = (   0.2000001   0.5773502   0.6114777  )
       191           N   tau( 191) = (   0.2000001   0.5773502   0.9374535  )
       192           N   tau( 192) = (   0.1000001   0.7505553   0.2855019  )
       193           N   tau( 193) = (   0.1000001   0.7505553   0.6114777  )
       194           N   tau( 194) = (   0.1000001   0.7505553   0.9374535  )
       195           N   tau( 195) = (   0.7000001   0.0577350   0.2855019  )
       196           N   tau( 196) = (   0.7000001   0.0577350   0.6114777  )
       197           N   tau( 197) = (   0.7000001   0.0577350   0.9374535  )
       198           N   tau( 198) = (   0.6000001   0.2309401   0.2855019  )
       199           N   tau( 199) = (   0.6000001   0.2309401   0.6114777  )
       200           N   tau( 200) = (   0.6000001   0.2309401   0.9374535  )
       201           N   tau( 201) = (   0.5000001   0.4041451   0.2855019  )
       202           N   tau( 202) = (   0.5000001   0.4041451   0.6114777  )
       203           N   tau( 203) = (   0.5000001   0.4041451   0.9374535  )
       204           N   tau( 204) = (   0.4000001   0.5773502   0.2855019  )
       205           N   tau( 205) = (   0.4000001   0.5773502   0.6114777  )
       206           N   tau( 206) = (   0.4000001   0.5773502   0.9374535  )
       207           N   tau( 207) = (   0.3000001   0.7505553   0.2855019  )
       208           N   tau( 208) = (   0.3000001   0.7505553   0.6114777  )
       209           N   tau( 209) = (   0.3000001   0.7505553   0.9374535  )
       210           N   tau( 210) = (   0.9000001   0.0577350   0.2855019  )
       211           N   tau( 211) = (   0.9000001   0.0577350   0.6114777  )
       212           N   tau( 212) = (   0.9000001   0.0577350   0.9374535  )
       213           N   tau( 213) = (   0.8000001   0.2309401   0.2855019  )
       214           N   tau( 214) = (   0.8000001   0.2309401   0.6114777  )
       215           N   tau( 215) = (   0.8000001   0.2309401   0.9374535  )
       216           N   tau( 216) = (   0.7000001   0.4041451   0.2855019  )
       217           N   tau( 217) = (   0.7000001   0.4041451   0.6114777  )
       218           N   tau( 218) = (   0.7000001   0.4041451   0.9374535  )
       219           N   tau( 219) = (   0.6000001   0.5773502   0.2855019  )
       220           N   tau( 220) = (   0.6000001   0.5773502   0.6114777  )
       221           N   tau( 221) = (   0.6000001   0.5773502   0.9374535  )
       222           N   tau( 222) = (   0.5000001   0.7505553   0.2855019  )
       223           N   tau( 223) = (   0.5000001   0.7505553   0.6114777  )
       224           N   tau( 224) = (   0.5000001   0.7505553   0.9374535  )
       225           N   tau( 225) = (  -0.0000001   0.1154701   0.1225140  )
       226           N   tau( 226) = (  -0.0000001   0.1154701   0.4484898  )
       227           N   tau( 227) = (  -0.0000001   0.1154701   0.7744656  )
       228           N   tau( 228) = (  -0.1000001   0.2886752   0.1225140  )
       229           N   tau( 229) = (  -0.1000001   0.2886752   0.4484898  )
       230           N   tau( 230) = (  -0.1000001   0.2886752   0.7744656  )
       231           N   tau( 231) = (  -0.2000001   0.4618803   0.1225140  )
       232           N   tau( 232) = (  -0.2000001   0.4618803   0.4484898  )
       233           N   tau( 233) = (  -0.2000001   0.4618803   0.7744656  )
       234           N   tau( 234) = (  -0.3000001   0.6350854   0.1225140  )
       235           N   tau( 235) = (  -0.3000001   0.6350854   0.4484898  )
       236           N   tau( 236) = (  -0.3000001   0.6350854   0.7744656  )
       237           N   tau( 237) = (  -0.4000001   0.8082905   0.1225140  )
       238           N   tau( 238) = (  -0.4000001   0.8082905   0.4484898  )
       239           N   tau( 239) = (  -0.4000001   0.8082905   0.7744656  )
       240           N   tau( 240) = (   0.1999999   0.1154701   0.1225140  )
       241           N   tau( 241) = (   0.1999999   0.1154701   0.4484898  )
       242           N   tau( 242) = (   0.1999999   0.1154701   0.7744656  )
       243           N   tau( 243) = (   0.0999999   0.2886752   0.1225140  )
       244           N   tau( 244) = (   0.0999999   0.2886752   0.4484898  )
       245           N   tau( 245) = (   0.0999999   0.2886752   0.7744656  )
       246           N   tau( 246) = (  -0.0000001   0.4618803   0.1225140  )
       247           N   tau( 247) = (  -0.0000001   0.4618803   0.4484898  )
       248           N   tau( 248) = (  -0.0000001   0.4618803   0.7744656  )
       249           N   tau( 249) = (  -0.1000001   0.6350854   0.1225140  )
       250           N   tau( 250) = (  -0.1000001   0.6350854   0.4484898  )
       251           N   tau( 251) = (  -0.1000001   0.6350854   0.7744656  )
       252           N   tau( 252) = (  -0.2000001   0.8082905   0.1225140  )
       253           N   tau( 253) = (  -0.2000001   0.8082905   0.4484898  )
       254           N   tau( 254) = (  -0.2000001   0.8082905   0.7744656  )
       255           N   tau( 255) = (   0.3999999   0.1154701   0.1225140  )
       256           N   tau( 256) = (   0.3999999   0.1154701   0.4484898  )
       257           N   tau( 257) = (   0.3999999   0.1154701   0.7744656  )
       258           N   tau( 258) = (   0.2999999   0.2886752   0.1225140  )
       259           N   tau( 259) = (   0.2999999   0.2886752   0.4484898  )
       260           N   tau( 260) = (   0.2999999   0.2886752   0.7744656  )
       261           N   tau( 261) = (   0.1999999   0.4618803   0.1225140  )
       262           N   tau( 262) = (   0.1999999   0.4618803   0.4484898  )
       263           N   tau( 263) = (   0.1999999   0.4618803   0.7744656  )
       264           N   tau( 264) = (   0.0999999   0.6350854   0.1225140  )
       265           N   tau( 265) = (   0.0999999   0.6350854   0.4484898  )
       266           N   tau( 266) = (   0.0999999   0.6350854   0.7744656  )
       267           N   tau( 267) = (  -0.0000001   0.8082905   0.1225140  )
       268           N   tau( 268) = (  -0.0000001   0.8082905   0.4484898  )
       269           N   tau( 269) = (  -0.0000001   0.8082905   0.7744656  )
       270           N   tau( 270) = (   0.5999999   0.1154701   0.1225140  )
       271           N   tau( 271) = (   0.5999999   0.1154701   0.4484898  )
       272           N   tau( 272) = (   0.5999999   0.1154701   0.7744656  )
       273           N   tau( 273) = (   0.4999999   0.2886752   0.1225140  )
       274           N   tau( 274) = (   0.4999999   0.2886752   0.4484898  )
       275           N   tau( 275) = (   0.4999999   0.2886752   0.7744656  )
       276           N   tau( 276) = (   0.3999999   0.4618803   0.1225140  )
       277           N   tau( 277) = (   0.3999999   0.4618803   0.4484898  )
       278           N   tau( 278) = (   0.3999999   0.4618803   0.7744656  )
       279           N   tau( 279) = (   0.2999999   0.6350854   0.1225140  )
       280           N   tau( 280) = (   0.2999999   0.6350854   0.4484898  )
       281           N   tau( 281) = (   0.2999999   0.6350854   0.7744656  )
       282           N   tau( 282) = (   0.1999999   0.8082905   0.1225140  )
       283           N   tau( 283) = (   0.1999999   0.8082905   0.4484898  )
       284           N   tau( 284) = (   0.1999999   0.8082905   0.7744656  )
       285           N   tau( 285) = (   0.7999999   0.1154701   0.1225140  )
       286           N   tau( 286) = (   0.7999999   0.1154701   0.4484898  )
       287           N   tau( 287) = (   0.7999999   0.1154701   0.7744656  )
       288           N   tau( 288) = (   0.6999999   0.2886752   0.1225140  )
       289           N   tau( 289) = (   0.6999999   0.2886752   0.4484898  )
       290           N   tau( 290) = (   0.6999999   0.2886752   0.7744656  )
       291           N   tau( 291) = (   0.5999999   0.4618803   0.1225140  )
       292           N   tau( 292) = (   0.5999999   0.4618803   0.4484898  )
       293           N   tau( 293) = (   0.5999999   0.4618803   0.7744656  )
       294           N   tau( 294) = (   0.4999999   0.6350854   0.1225140  )
       295           N   tau( 295) = (   0.4999999   0.6350854   0.4484898  )
       296           N   tau( 296) = (   0.4999999   0.6350854   0.7744656  )
       297           N   tau( 297) = (   0.3999999   0.8082905   0.1225140  )
       298           N   tau( 298) = (   0.3999999   0.8082905   0.4484898  )
       299           N   tau( 299) = (   0.3999999   0.8082905   0.7744656  )

   Crystallographic axes

     site n.     atom                  positions (cryst. coord.)
         1           Ga  tau(   1) = (  0.1333334  0.0666666  0.1663874  )
         2           Ga  tau(   2) = (  0.1333334  0.0666666  0.4997208  )
         3           Ga  tau(   3) = (  0.1333334  0.0666666  0.8330541  )
         4           Ga  tau(   4) = (  0.1333334  0.2666666  0.1663874  )
         5           Ga  tau(   5) = (  0.1333334  0.2666666  0.4997208  )
         6           Ga  tau(   6) = (  0.1333334  0.2666666  0.8330541  )
         7           Ga  tau(   7) = (  0.1333334  0.4666666  0.1663874  )
         8           Ga  tau(   8) = (  0.1333334  0.4666666  0.4997208  )
         9           Ga  tau(   9) = (  0.1333334  0.4666666  0.8330541  )
        10           Ga  tau(  10) = (  0.1333334  0.6666666  0.1663874  )
        11           Ga  tau(  11) = (  0.1333334  0.6666666  0.4997208  )
        12           Ga  tau(  12) = (  0.1333334  0.6666666  0.8330541  )
        13           Ga  tau(  13) = (  0.1333334  0.8666666  0.1663874  )
        14           Ga  tau(  14) = (  0.1333334  0.8666666  0.4997208  )
        15           Ga  tau(  15) = (  0.1333334  0.8666666  0.8330541  )
        16           Ga  tau(  16) = (  0.3333334  0.0666666  0.1663874  )
        17           Ga  tau(  17) = (  0.3333334  0.0666666  0.4997208  )
        18           Ga  tau(  18) = (  0.3333334  0.0666666  0.8330541  )
        19           Ga  tau(  19) = (  0.3333334  0.2666666  0.1663874  )
        20           Ga  tau(  20) = (  0.3333334  0.2666666  0.4997208  )
        21           Ga  tau(  21) = (  0.3333334  0.2666666  0.8330541  )
        22           Ga  tau(  22) = (  0.3333334  0.4666666  0.1663874  )
        23           Ga  tau(  23) = (  0.3333334  0.4666666  0.4997208  )
        24           Ga  tau(  24) = (  0.3333334  0.4666666  0.8330541  )
        25           Ga  tau(  25) = (  0.3333334  0.6666666  0.1663874  )
        26           Ga  tau(  26) = (  0.3333334  0.6666666  0.4997208  )
        27           Ga  tau(  27) = (  0.3333334  0.6666666  0.8330541  )
        28           Ga  tau(  28) = (  0.3333334  0.8666666  0.1663874  )
        29           Ga  tau(  29) = (  0.3333334  0.8666666  0.4997208  )
        30           Ga  tau(  30) = (  0.3333334  0.8666666  0.8330541  )
        31           Ga  tau(  31) = (  0.5333334  0.0666666  0.1663874  )
        32           Ga  tau(  32) = (  0.5333334  0.0666666  0.4997208  )
        33           Ga  tau(  33) = (  0.5333334  0.0666666  0.8330541  )
        34           Ga  tau(  34) = (  0.5333334  0.2666666  0.1663874  )
        35           Ga  tau(  35) = (  0.5333334  0.2666666  0.4997208  )
        36           Ga  tau(  36) = (  0.5333334  0.2666666  0.8330541  )
        37           Ga  tau(  37) = (  0.5333334  0.4666666  0.1663874  )
        38           Ga  tau(  38) = (  0.5333334  0.4666666  0.4997208  )
        39           Ga  tau(  39) = (  0.5333334  0.4666666  0.8330541  )
        40           Ga  tau(  40) = (  0.5333334  0.6666666  0.1663874  )
        41           Ga  tau(  41) = (  0.5333334  0.6666666  0.4997208  )
        42           Ga  tau(  42) = (  0.5333334  0.6666666  0.8330541  )
        43           Ga  tau(  43) = (  0.5333334  0.8666666  0.1663874  )
        44           Ga  tau(  44) = (  0.5333334  0.8666666  0.4997208  )
        45           Ga  tau(  45) = (  0.5333334  0.8666666  0.8330541  )
        46           Ga  tau(  46) = (  0.7333334  0.0666666  0.1663874  )
        47           Ga  tau(  47) = (  0.7333334  0.0666666  0.4997208  )
        48           Ga  tau(  48) = (  0.7333334  0.0666666  0.8330541  )
        49           Ga  tau(  49) = (  0.7333334  0.2666666  0.1663874  )
        50           Ga  tau(  50) = (  0.7333334  0.2666666  0.4997208  )
        51           Ga  tau(  51) = (  0.7333334  0.2666666  0.8330541  )
        52           Ga  tau(  52) = (  0.7333334  0.4666666  0.1663874  )
        53           Ga  tau(  53) = (  0.7333334  0.4666666  0.4997208  )
        54           Ga  tau(  54) = (  0.7333334  0.4666666  0.8330541  )
        55           Ga  tau(  55) = (  0.7333334  0.6666666  0.1663874  )
        56           Ga  tau(  56) = (  0.7333334  0.6666666  0.4997208  )
        57           Ga  tau(  57) = (  0.7333334  0.6666666  0.8330541  )
        58           Ga  tau(  58) = (  0.7333334  0.8666666  0.1663874  )
        59           Ga  tau(  59) = (  0.7333334  0.8666666  0.4997208  )
        60           Ga  tau(  60) = (  0.7333334  0.8666666  0.8330541  )
        61           Ga  tau(  61) = (  0.9333334  0.0666666  0.1663874  )
        62           Ga  tau(  62) = (  0.9333334  0.0666666  0.4997208  )
        63           Ga  tau(  63) = (  0.9333334  0.0666666  0.8330541  )
        64           Ga  tau(  64) = (  0.9333334  0.2666666  0.1663874  )
        65           Ga  tau(  65) = (  0.9333334  0.2666666  0.4997208  )
        66           Ga  tau(  66) = (  0.9333334  0.2666666  0.8330541  )
        67           Ga  tau(  67) = (  0.9333334  0.4666666  0.1663874  )
        68           Ga  tau(  68) = (  0.9333334  0.4666666  0.4997208  )
        69           Ga  tau(  69) = (  0.9333334  0.4666666  0.8330541  )
        70           Ga  tau(  70) = (  0.9333334  0.6666666  0.1663874  )
        71           Ga  tau(  71) = (  0.9333334  0.6666666  0.4997208  )
        72           Ga  tau(  72) = (  0.9333334  0.6666666  0.8330541  )
        73           Ga  tau(  73) = (  0.9333334  0.8666666  0.1663874  )
        74           Ga  tau(  74) = (  0.9333334  0.8666666  0.4997208  )
        75           Ga  tau(  75) = (  0.9333334  0.8666666  0.8330541  )
        76           Ga  tau(  76) = (  0.0666666  0.1333334  0.3330541  )
        77           Ga  tau(  77) = (  0.0666666  0.1333334  0.6663874  )
        78           Ga  tau(  78) = (  0.0666666  0.1333334  0.9997208  )
        79           Ga  tau(  79) = (  0.0666666  0.3333334  0.3330541  )
        80           Ga  tau(  80) = (  0.0666666  0.3333334  0.6663874  )
        81           Ga  tau(  81) = (  0.0666666  0.3333334  0.9997208  )
        82           Ga  tau(  82) = (  0.0666666  0.5333334  0.3330541  )
        83           Ga  tau(  83) = (  0.0666666  0.5333334  0.6663874  )
        84           Ga  tau(  84) = (  0.0666666  0.5333334  0.9997208  )
        85           Ga  tau(  85) = (  0.0666666  0.7333334  0.3330541  )
        86           Ga  tau(  86) = (  0.0666666  0.7333334  0.6663874  )
        87           Ga  tau(  87) = (  0.0666666  0.7333334  0.9997208  )
        88           Ga  tau(  88) = (  0.0666666  0.9333334  0.3330541  )
        89           Ga  tau(  89) = (  0.0666666  0.9333334  0.6663874  )
        90           Ga  tau(  90) = (  0.0666666  0.9333334  0.9997208  )
        91           Ga  tau(  91) = (  0.2666666  0.1333334  0.3330541  )
        92           Ga  tau(  92) = (  0.2666666  0.1333334  0.6663874  )
        93           Ga  tau(  93) = (  0.2666666  0.1333334  0.9997208  )
        94           Ga  tau(  94) = (  0.2666666  0.3333334  0.3330541  )
        95           Ga  tau(  95) = (  0.2666666  0.3333334  0.6663874  )
        96           Ga  tau(  96) = (  0.2666666  0.3333334  0.9997208  )
        97           Ga  tau(  97) = (  0.2666666  0.5333334  0.3330541  )
        98           Ga  tau(  98) = (  0.2666666  0.5333334  0.6663874  )
        99           Ga  tau(  99) = (  0.2666666  0.5333334  0.9997208  )
       100           Ga  tau( 100) = (  0.2666666  0.7333334  0.3330541  )
       101           Ga  tau( 101) = (  0.2666666  0.7333334  0.6663874  )
       102           Ga  tau( 102) = (  0.2666666  0.7333334  0.9997208  )
       103           Ga  tau( 103) = (  0.2666666  0.9333334  0.3330541  )
       104           Ga  tau( 104) = (  0.2666666  0.9333334  0.6663874  )
       105           Ga  tau( 105) = (  0.2666666  0.9333334  0.9997208  )
       106           Ga  tau( 106) = (  0.4666666  0.1333334  0.3330541  )
       107           Ga  tau( 107) = (  0.4666666  0.1333334  0.6663874  )
       108           Ga  tau( 108) = (  0.4666666  0.1333334  0.9997208  )
       109           Ga  tau( 109) = (  0.4666666  0.3333334  0.3330541  )
       110           Ga  tau( 110) = (  0.4666666  0.3333334  0.6663874  )
       111           Ga  tau( 111) = (  0.4666666  0.3333334  0.9997208  )
       112           Ga  tau( 112) = (  0.4666666  0.5333334  0.3330541  )
       113           Ga  tau( 113) = (  0.4666666  0.5333334  0.6663874  )
       114           Ga  tau( 114) = (  0.4666666  0.5333334  0.9997208  )
       115           Ga  tau( 115) = (  0.4666666  0.7333334  0.3330541  )
       116           Ga  tau( 116) = (  0.4666666  0.7333334  0.6663874  )
       117           Ga  tau( 117) = (  0.4666666  0.7333334  0.9997208  )
       118           Ga  tau( 118) = (  0.4666666  0.9333334  0.3330541  )
       119           Ga  tau( 119) = (  0.4666666  0.9333334  0.6663874  )
       120           Ga  tau( 120) = (  0.4666666  0.9333334  0.9997208  )
       121           Ga  tau( 121) = (  0.6666666  0.1333334  0.3330541  )
       122           Ga  tau( 122) = (  0.6666666  0.1333334  0.6663874  )
       123           Ga  tau( 123) = (  0.6666666  0.1333334  0.9997208  )
       124           Ga  tau( 124) = (  0.6666666  0.3333334  0.3330541  )
       125           Ga  tau( 125) = (  0.6666666  0.3333334  0.6663874  )
       126           Ga  tau( 126) = (  0.6666666  0.3333334  0.9997208  )
       127           Ga  tau( 127) = (  0.6666666  0.5333334  0.3330541  )
       128           Ga  tau( 128) = (  0.6666666  0.5333334  0.6663874  )
       129           Ga  tau( 129) = (  0.6666666  0.5333334  0.9997208  )
       130           Ga  tau( 130) = (  0.6666666  0.7333334  0.3330541  )
       131           Ga  tau( 131) = (  0.6666666  0.7333334  0.6663874  )
       132           Ga  tau( 132) = (  0.6666666  0.7333334  0.9997208  )
       133           Ga  tau( 133) = (  0.6666666  0.9333334  0.3330541  )
       134           Ga  tau( 134) = (  0.6666666  0.9333334  0.6663874  )
       135           Ga  tau( 135) = (  0.6666666  0.9333334  0.9997208  )
       136           Ga  tau( 136) = (  0.8666666  0.1333334  0.3330541  )
       137           Ga  tau( 137) = (  0.8666666  0.1333334  0.6663874  )
       138           Ga  tau( 138) = (  0.8666666  0.1333334  0.9997208  )
       139           Ga  tau( 139) = (  0.8666666  0.3333334  0.3330541  )
       140           Ga  tau( 140) = (  0.8666666  0.3333334  0.6663874  )
       141           Ga  tau( 141) = (  0.8666666  0.3333334  0.9997208  )
       142           Ga  tau( 142) = (  0.8666666  0.5333334  0.3330541  )
       143           Ga  tau( 143) = (  0.8666666  0.5333334  0.6663874  )
       144           Ga  tau( 144) = (  0.8666666  0.5333334  0.9997208  )
       145           Ga  tau( 145) = (  0.8666666  0.7333334  0.3330541  )
       146           Ga  tau( 146) = (  0.8666666  0.7333334  0.6663874  )
       147           Ga  tau( 147) = (  0.8666666  0.7333334  0.9997208  )
       148           Ga  tau( 148) = (  0.8666666  0.9333334  0.3330541  )
       149           Ga  tau( 149) = (  0.8666666  0.9333334  0.6663874  )
       150           Ga  tau( 150) = (  0.8666666  0.9333334  0.9997208  )
       151           N   tau( 151) = (  0.1333334  0.0666666  0.6252792  )
       152           N   tau( 152) = (  0.1333334  0.0666666  0.9586126  )
       153           N   tau( 153) = (  0.1333334  0.2666666  0.2919459  )
       154           N   tau( 154) = (  0.1333334  0.2666666  0.6252792  )
       155           N   tau( 155) = (  0.1333334  0.2666666  0.9586126  )
       156           N   tau( 156) = (  0.1333334  0.4666666  0.2919459  )
       157           N   tau( 157) = (  0.1333334  0.4666666  0.6252792  )
       158           N   tau( 158) = (  0.1333334  0.4666666  0.9586126  )
       159           N   tau( 159) = (  0.1333334  0.6666666  0.2919459  )
       160           N   tau( 160) = (  0.1333334  0.6666666  0.6252792  )
       161           N   tau( 161) = (  0.1333334  0.6666666  0.9586126  )
       162           N   tau( 162) = (  0.1333334  0.8666666  0.2919459  )
       163           N   tau( 163) = (  0.1333334  0.8666666  0.6252792  )
       164           N   tau( 164) = (  0.1333334  0.8666666  0.9586126  )
       165           N   tau( 165) = (  0.3333334  0.0666666  0.2919459  )
       166           N   tau( 166) = (  0.3333334  0.0666666  0.6252792  )
       167           N   tau( 167) = (  0.3333334  0.0666666  0.9586126  )
       168           N   tau( 168) = (  0.3333334  0.2666666  0.2919459  )
       169           N   tau( 169) = (  0.3333334  0.2666666  0.6252792  )
       170           N   tau( 170) = (  0.3333334  0.2666666  0.9586126  )
       171           N   tau( 171) = (  0.3333334  0.4666666  0.2919459  )
       172           N   tau( 172) = (  0.3333334  0.4666666  0.6252792  )
       173           N   tau( 173) = (  0.3333334  0.4666666  0.9586126  )
       174           N   tau( 174) = (  0.3333334  0.6666666  0.2919459  )
       175           N   tau( 175) = (  0.3333334  0.6666666  0.6252792  )
       176           N   tau( 176) = (  0.3333334  0.6666666  0.9586126  )
       177           N   tau( 177) = (  0.3333334  0.8666666  0.2919459  )
       178           N   tau( 178) = (  0.3333334  0.8666666  0.6252792  )
       179           N   tau( 179) = (  0.3333334  0.8666666  0.9586126  )
       180           N   tau( 180) = (  0.5333334  0.0666666  0.2919459  )
       181           N   tau( 181) = (  0.5333334  0.0666666  0.6252792  )
       182           N   tau( 182) = (  0.5333334  0.0666666  0.9586126  )
       183           N   tau( 183) = (  0.5333334  0.2666666  0.2919459  )
       184           N   tau( 184) = (  0.5333334  0.2666666  0.6252792  )
       185           N   tau( 185) = (  0.5333334  0.2666666  0.9586126  )
       186           N   tau( 186) = (  0.5333334  0.4666666  0.2919459  )
       187           N   tau( 187) = (  0.5333334  0.4666666  0.6252792  )
       188           N   tau( 188) = (  0.5333334  0.4666666  0.9586126  )
       189           N   tau( 189) = (  0.5333334  0.6666666  0.2919459  )
       190           N   tau( 190) = (  0.5333334  0.6666666  0.6252792  )
       191           N   tau( 191) = (  0.5333334  0.6666666  0.9586126  )
       192           N   tau( 192) = (  0.5333334  0.8666666  0.2919459  )
       193           N   tau( 193) = (  0.5333334  0.8666666  0.6252792  )
       194           N   tau( 194) = (  0.5333334  0.8666666  0.9586126  )
       195           N   tau( 195) = (  0.7333334  0.0666666  0.2919459  )
       196           N   tau( 196) = (  0.7333334  0.0666666  0.6252792  )
       197           N   tau( 197) = (  0.7333334  0.0666666  0.9586126  )
       198           N   tau( 198) = (  0.7333334  0.2666666  0.2919459  )
       199           N   tau( 199) = (  0.7333334  0.2666666  0.6252792  )
       200           N   tau( 200) = (  0.7333334  0.2666666  0.9586126  )
       201           N   tau( 201) = (  0.7333334  0.4666666  0.2919459  )
       202           N   tau( 202) = (  0.7333334  0.4666666  0.6252792  )
       203           N   tau( 203) = (  0.7333334  0.4666666  0.9586126  )
       204           N   tau( 204) = (  0.7333334  0.6666666  0.2919459  )
       205           N   tau( 205) = (  0.7333334  0.6666666  0.6252792  )
       206           N   tau( 206) = (  0.7333334  0.6666666  0.9586126  )
       207           N   tau( 207) = (  0.7333334  0.8666666  0.2919459  )
       208           N   tau( 208) = (  0.7333334  0.8666666  0.6252792  )
       209           N   tau( 209) = (  0.7333334  0.8666666  0.9586126  )
       210           N   tau( 210) = (  0.9333334  0.0666666  0.2919459  )
       211           N   tau( 211) = (  0.9333334  0.0666666  0.6252792  )
       212           N   tau( 212) = (  0.9333334  0.0666666  0.9586126  )
       213           N   tau( 213) = (  0.9333334  0.2666666  0.2919459  )
       214           N   tau( 214) = (  0.9333334  0.2666666  0.6252792  )
       215           N   tau( 215) = (  0.9333334  0.2666666  0.9586126  )
       216           N   tau( 216) = (  0.9333334  0.4666666  0.2919459  )
       217           N   tau( 217) = (  0.9333334  0.4666666  0.6252792  )
       218           N   tau( 218) = (  0.9333334  0.4666666  0.9586126  )
       219           N   tau( 219) = (  0.9333334  0.6666666  0.2919459  )
       220           N   tau( 220) = (  0.9333334  0.6666666  0.6252792  )
       221           N   tau( 221) = (  0.9333334  0.6666666  0.9586126  )
       222           N   tau( 222) = (  0.9333334  0.8666666  0.2919459  )
       223           N   tau( 223) = (  0.9333334  0.8666666  0.6252792  )
       224           N   tau( 224) = (  0.9333334  0.8666666  0.9586126  )
       225           N   tau( 225) = (  0.0666666  0.1333334  0.1252792  )
       226           N   tau( 226) = (  0.0666666  0.1333334  0.4586126  )
       227           N   tau( 227) = (  0.0666666  0.1333334  0.7919459  )
       228           N   tau( 228) = (  0.0666666  0.3333334  0.1252792  )
       229           N   tau( 229) = (  0.0666666  0.3333334  0.4586126  )
       230           N   tau( 230) = (  0.0666666  0.3333334  0.7919459  )
       231           N   tau( 231) = (  0.0666666  0.5333334  0.1252792  )
       232           N   tau( 232) = (  0.0666666  0.5333334  0.4586126  )
       233           N   tau( 233) = (  0.0666666  0.5333334  0.7919459  )
       234           N   tau( 234) = (  0.0666666  0.7333334  0.1252792  )
       235           N   tau( 235) = (  0.0666666  0.7333334  0.4586126  )
       236           N   tau( 236) = (  0.0666666  0.7333334  0.7919459  )
       237           N   tau( 237) = (  0.0666666  0.9333334  0.1252792  )
       238           N   tau( 238) = (  0.0666666  0.9333334  0.4586126  )
       239           N   tau( 239) = (  0.0666666  0.9333334  0.7919459  )
       240           N   tau( 240) = (  0.2666666  0.1333334  0.1252792  )
       241           N   tau( 241) = (  0.2666666  0.1333334  0.4586126  )
       242           N   tau( 242) = (  0.2666666  0.1333334  0.7919459  )
       243           N   tau( 243) = (  0.2666666  0.3333334  0.1252792  )
       244           N   tau( 244) = (  0.2666666  0.3333334  0.4586126  )
       245           N   tau( 245) = (  0.2666666  0.3333334  0.7919459  )
       246           N   tau( 246) = (  0.2666666  0.5333334  0.1252792  )
       247           N   tau( 247) = (  0.2666666  0.5333334  0.4586126  )
       248           N   tau( 248) = (  0.2666666  0.5333334  0.7919459  )
       249           N   tau( 249) = (  0.2666666  0.7333334  0.1252792  )
       250           N   tau( 250) = (  0.2666666  0.7333334  0.4586126  )
       251           N   tau( 251) = (  0.2666666  0.7333334  0.7919459  )
       252           N   tau( 252) = (  0.2666666  0.9333334  0.1252792  )
       253           N   tau( 253) = (  0.2666666  0.9333334  0.4586126  )
       254           N   tau( 254) = (  0.2666666  0.9333334  0.7919459  )
       255           N   tau( 255) = (  0.4666666  0.1333334  0.1252792  )
       256           N   tau( 256) = (  0.4666666  0.1333334  0.4586126  )
       257           N   tau( 257) = (  0.4666666  0.1333334  0.7919459  )
       258           N   tau( 258) = (  0.4666666  0.3333334  0.1252792  )
       259           N   tau( 259) = (  0.4666666  0.3333334  0.4586126  )
       260           N   tau( 260) = (  0.4666666  0.3333334  0.7919459  )
       261           N   tau( 261) = (  0.4666666  0.5333334  0.1252792  )
       262           N   tau( 262) = (  0.4666666  0.5333334  0.4586126  )
       263           N   tau( 263) = (  0.4666666  0.5333334  0.7919459  )
       264           N   tau( 264) = (  0.4666666  0.7333334  0.1252792  )
       265           N   tau( 265) = (  0.4666666  0.7333334  0.4586126  )
       266           N   tau( 266) = (  0.4666666  0.7333334  0.7919459  )
       267           N   tau( 267) = (  0.4666666  0.9333334  0.1252792  )
       268           N   tau( 268) = (  0.4666666  0.9333334  0.4586126  )
       269           N   tau( 269) = (  0.4666666  0.9333334  0.7919459  )
       270           N   tau( 270) = (  0.6666666  0.1333334  0.1252792  )
       271           N   tau( 271) = (  0.6666666  0.1333334  0.4586126  )
       272           N   tau( 272) = (  0.6666666  0.1333334  0.7919459  )
       273           N   tau( 273) = (  0.6666666  0.3333334  0.1252792  )
       274           N   tau( 274) = (  0.6666666  0.3333334  0.4586126  )
       275           N   tau( 275) = (  0.6666666  0.3333334  0.7919459  )
       276           N   tau( 276) = (  0.6666666  0.5333334  0.1252792  )
       277           N   tau( 277) = (  0.6666666  0.5333334  0.4586126  )
       278           N   tau( 278) = (  0.6666666  0.5333334  0.7919459  )
       279           N   tau( 279) = (  0.6666666  0.7333334  0.1252792  )
       280           N   tau( 280) = (  0.6666666  0.7333334  0.4586126  )
       281           N   tau( 281) = (  0.6666666  0.7333334  0.7919459  )
       282           N   tau( 282) = (  0.6666666  0.9333334  0.1252792  )
       283           N   tau( 283) = (  0.6666666  0.9333334  0.4586126  )
       284           N   tau( 284) = (  0.6666666  0.9333334  0.7919459  )
       285           N   tau( 285) = (  0.8666666  0.1333334  0.1252792  )
       286           N   tau( 286) = (  0.8666666  0.1333334  0.4586126  )
       287           N   tau( 287) = (  0.8666666  0.1333334  0.7919459  )
       288           N   tau( 288) = (  0.8666666  0.3333334  0.1252792  )
       289           N   tau( 289) = (  0.8666666  0.3333334  0.4586126  )
       290           N   tau( 290) = (  0.8666666  0.3333334  0.7919459  )
       291           N   tau( 291) = (  0.8666666  0.5333334  0.1252792  )
       292           N   tau( 292) = (  0.8666666  0.5333334  0.4586126  )
       293           N   tau( 293) = (  0.8666666  0.5333334  0.7919459  )
       294           N   tau( 294) = (  0.8666666  0.7333334  0.1252792  )
       295           N   tau( 295) = (  0.8666666  0.7333334  0.4586126  )
       296           N   tau( 296) = (  0.8666666  0.7333334  0.7919459  )
       297           N   tau( 297) = (  0.8666666  0.9333334  0.1252792  )
       298           N   tau( 298) = (  0.8666666  0.9333334  0.4586126  )
       299           N   tau( 299) = (  0.8666666  0.9333334  0.7919459  )

     number of k points=     6  Gaussian smearing, width (Ry)=  0.0100
                       cart. coord. in units 2pi/alat
        k(    1) = (   0.0000000   0.0000000   0.0000000), wk =   0.2500000
        k(    2) = (   0.0000000   0.0000000  -0.5112854), wk =   0.2500000
        k(    3) = (   0.0000000  -0.5773503   0.0000000), wk =   0.5000000
        k(    4) = (   0.0000000  -0.5773503  -0.5112854), wk =   0.5000000
        k(    5) = (  -0.5000000  -0.2886751   0.0000000), wk =   0.2500000
        k(    6) = (  -0.5000000  -0.2886751  -0.5112854), wk =   0.2500000

                       cryst. coord.
        k(    1) = (   0.0000000   0.0000000   0.0000000), wk =   0.2500000
        k(    2) = (   0.0000000   0.0000000  -0.5000000), wk =   0.2500000
        k(    3) = (   0.0000000  -0.5000000   0.0000000), wk =   0.5000000
        k(    4) = (   0.0000000  -0.5000000  -0.5000000), wk =   0.5000000
        k(    5) = (  -0.5000000  -0.0000000   0.0000000), wk =   0.2500000
        k(    6) = (  -0.5000000  -0.0000000  -0.5000000), wk =   0.2500000

     Dense  grid:  2698283 G-vectors     FFT dimensions: ( 192, 192, 180)

     Smooth grid:  1930731 G-vectors     FFT dimensions: ( 180, 180, 160)

     Dynamical RAM for                 wfc:      99.18 MB

     Dynamical RAM for     wfc (w. buffer):     297.53 MB

     Dynamical RAM for           str. fact:       1.37 MB

     Dynamical RAM for           local pot:       0.00 MB

     Dynamical RAM for          nlocal pot:     238.86 MB

     Dynamical RAM for                qrad:       3.00 MB

     Dynamical RAM for          rho,v,vnew:       4.59 MB

     Dynamical RAM for               rhoin:       1.53 MB

     Dynamical RAM for            rho*nmix:      10.98 MB

     Dynamical RAM for           G-vectors:       2.82 MB

     Dynamical RAM for          h,s,v(r/c):    1912.69 MB

     Dynamical RAM for          <psi|beta>:      95.97 MB

     Dynamical RAM for                 psi:     396.70 MB

     Dynamical RAM for                hpsi:     396.70 MB

     Dynamical RAM for                spsi:     396.70 MB

     Dynamical RAM for      wfcinit/wfcrot:     258.13 MB

     Dynamical RAM for           addusdens:      77.31 MB

     Dynamical RAM for          addusforce:     145.94 MB

     Dynamical RAM for         addusstress:      46.20 MB

     Estimated static dynamical RAM per process >     555.97 MB

     Estimated max dynamical RAM per process >       3.68 GB

     Estimated total dynamical RAM >     660.65 GB

     Atomic positions and unit cell read from directory:
     ./GaN.save/
     Atomic positions from file used, from input discarded
 

     Check: negative core charge=   -0.000003

     The initial density is read from file :
     ./GaN.save/charge-density



     %%%%%%%%%%%%%%%%%%%%%%%%%%%%%%%%%%%%%%%%%%%%%%%%%%%%%%%%%%%%%%%%%%%%%%%%
     %                                                                      %
     % You are using vdW-DF, which was implemented by the Thonhauser group. %
     % Please cite the following two papers that made this development      %
     % possible and the two reviews that describe the various versions:     %
     %                                                                      %
     %   T. Thonhauser et al., PRL 115, 136402 (2015).                      %
     %   T. Thonhauser et al., PRB 76, 125112 (2007).                       %
     %   K. Berland et al., Rep. Prog. Phys. 78, 066501 (2015).             %
     %   D.C. Langreth et al., J. Phys.: Condens. Matter 21, 084203 (2009). %
     %                                                                      %
     % If you are calculating stress with vdW-DF, please also cite:         %
     %                                                                      %
     %   R. Sabatini et al., J. Phys.: Condens. Matter 24, 424209 (2012).   %
     %                                                                      %
     %%%%%%%%%%%%%%%%%%%%%%%%%%%%%%%%%%%%%%%%%%%%%%%%%%%%%%%%%%%%%%%%%%%%%%%%

     %%%%%%%%%%%%%%%%%%%%%%%%%%%%%%%%%%%%%%%%%%%%%%%%%%%%%%%%%%%%%%%%%%%%%%%%
     %                                                                      %
     %  vdW-DF NEWS:                                                        %
     %                                                                      %
     %  * vdW-DF3 is now available. DOI: 10.1021/acs.jctc.0c00471           %
     %    use with input_dft = 'vdW-DF3-opt1' or 'vdW-DF3-opt2'             %
     %                                                                      %
     %  * Unscreened and range-separated vdW-DF hybrid functionals          %
     %    DOI: 10.1063/1.4986522 and 10.1088/1361-648X/ac2ad2               %
     %    use with input_dft = 'vdW-DF-cx0' (etc) and 'vdW-DF-ahcx'         %
     %                                                                      %
     %%%%%%%%%%%%%%%%%%%%%%%%%%%%%%%%%%%%%%%%%%%%%%%%%%%%%%%%%%%%%%%%%%%%%%%%


     Carrying out vdW-DF run using the following parameters:
     Nqs    =  20  Npoints =  1024  r_max =  100.000
     q_mesh =  0.00001000  0.04494208  0.09755937  0.15916263
               0.23128650  0.31572767  0.41458969  0.53033537
               0.66584808  0.82450364  1.01025438  1.22772762
               1.48234092  1.78043706  2.12944203  2.53805004
               3.01644009  3.57652955  4.23227104  5.00000000


     -----------------------------------------------
     Non-local corr. energy    =      81.68528506 Ry
     -----------------------------------------------

     Starting wfcs from file
     Checking if some PAW data can be deallocated... 
       PAW data deallocated on  105 nodes for type:  1
       PAW data deallocated on   75 nodes for type:  2
     Calculation restarted from scf iteration #    15

     total cpu time spent up to now is        7.3 secs

     Self-consistent Calculation

     iteration # 15     ecut=    70.00 Ry     beta= 0.70
     Calculation restarted from end of k-point loop
     Davidson diagonalization with overlap

---- Real-time Memory Report at c_bands before calling an iterative solver
           537 MiB given to the printing process from OS
             0 MiB allocation reported by mallinfo(arena+hblkhd)
       1873004 MiB available memory on the node where the printing process lives
------------------
     ethr =  1.00E-13,  avg # of iterations = 18.2


     -----------------------------------------------
     Non-local corr. energy    =      81.68528402 Ry
     -----------------------------------------------


     total cpu time spent up to now is       38.9 secs

     End of self-consistent calculation

          k = 0.0000 0.0000 0.0000 (241213 PWs)   bands (ev):

    -6.8824  -6.7028  -6.6911  -6.6905  -6.6881  -6.6653  -6.6375  -6.6365
    -6.6085  -6.5931  -6.5921  -6.5770  -6.5690  -6.5688  -6.5676  -6.5510
    -6.5488  -6.5472  -6.5410  -6.5406  -6.5265  -6.4920  -6.4917  -6.4751
    -6.4750  -6.4747  -6.4745  -6.4742  -6.4729  -6.4697  -6.4644  -6.4642
    -6.4529  -6.4392  -6.4387  -6.4258  -6.4236  -6.4220  -6.4207  -6.4131
    -6.4124  -6.4048  -6.4028  -6.3998  -6.3994  -6.3956  -6.3955  -6.3942
    -6.3932  -6.3929  -6.3904  -6.3852  -6.3848  -6.3826  -6.3824  -6.3801
    -6.3780  -6.3765  -6.3763  -6.3730  -6.3730  -6.3703  -6.3671  -6.3671
    -6.3655  -6.3647  -6.3641  -6.3639  -6.3605  -6.3597  -6.3590  -6.3583
    -6.3560  -6.3553  -6.3550  -6.3545  -6.3539  -6.3506  -6.3480  -6.3476
    -6.3455  -6.3453  -6.3452  -6.3444  -6.3429  -6.3427  -6.3424  -6.3404
    -6.3398  -6.3389  -6.3383  -6.3378  -6.3377  -6.3374  -6.3362  -6.3349
    -6.3346  -6.3315  -6.3308  -6.3303  -6.3275  -6.3273  -6.3255  -6.3251
    -6.3241  -6.3238  -6.3227  -6.3192  -6.3181  -6.3173  -6.3170  -6.3164
    -6.3161  -6.3157  -6.3154  -6.3143  -6.3138  -6.3127  -6.3121  -6.3113
    -6.3109  -6.3069  -6.3067  -6.3065  -6.3062  -6.3062  -6.3044  -6.3043
    -6.3022  -6.3016  -6.3014  -6.3004  -6.2990  -6.2986  -6.2974  -6.2942
    -6.2936  -6.2935  -6.2918  -6.2915  -6.2911  -6.2905  -6.2899  -6.2880
    -6.2874  -6.2867  -6.2852  -6.2845  -6.2842  -5.6941  -5.6847  -5.6846
    -5.6516  -5.6357  -5.6350  -5.6265  -5.6135  -5.6125  -5.6064  -5.6056
    -5.5969  -5.5271  -5.5271  -5.4984  -5.4965  -5.4964  -5.4929  -5.4912
    -5.4911  -5.2971  -5.2923  -5.2923  -5.2874  -5.2874  -5.2839  -5.2838
    -5.2803  -5.2802  -5.2771  -5.2732  -5.2719  -5.2693  -5.2692  -5.2642
    -5.2635  -5.2618  -5.2618  -5.2607  -5.2607  -5.2596  -5.2565  -5.2565
    -5.2540  -5.2539  -5.2533  -5.2512  -5.2503  -5.2503  -5.2471  -5.2470
    -5.2450  -5.2431  -5.2431  -5.2428  -5.2402  -5.2401  -5.2397  -5.2374
    -5.2374  -5.2366  -5.2364  -5.2363  -5.2352  -5.2351  -5.2338  -5.2338
    -5.2335  -5.2302  -5.2302  -5.2288  -5.2285  -5.2285  -5.2281  -5.2261
    -5.2246  -5.2246  -5.2240  -5.2239  -5.2228  -5.2224  -5.2224  -5.2217
    -5.2203  -5.2190  -5.2189  -5.2188  -5.2158  -5.2158  -5.2157  -5.2147
    -5.2147  -5.2129  -5.2129  -5.2117  -5.2117  -5.2105  -5.2098  -5.2098
    -5.2096  -5.2090  -5.2090  -5.2076  -5.2074  -5.2067  -5.2067  -5.2059
    -5.2059  -5.2035  -5.2035  -5.2031  -5.2015  -5.2000  -5.2000  -5.1989
    -5.1989  -5.1980  -5.1979  -5.1977  -5.1977  -5.1971  -5.1964  -5.1964
    -5.1955  -5.1945  -5.1945  -5.1942  -5.1938  -5.1938  -5.1921  -5.1921
    -5.1919  -5.1904  -5.1903  -5.1901  -5.1896  -5.1882  -5.1882  -5.1882
    -5.1878  -5.1871  -5.1871  -5.1860  -5.1859  -5.1859  -5.1844  -5.1844
    -5.1844  -5.1839  -5.1825  -5.1811  -5.1811  -5.1810  -5.1802  -5.1802
    -5.1789  -5.1787  -5.1783  -5.1782  -5.1778  -5.1778  -5.1765  -5.1765
    -5.1758  -5.1755  -5.1745  -5.1745  -5.1740  -5.1735  -5.1733  -5.1733
    -5.1728  -5.1719  -5.1719  -5.1713  -5.1713  -5.1689  -5.1688  -5.1681
    -5.1681  -5.1675  -5.1673  -5.1673  -5.1654  -5.1654  -5.1650  -5.1645
    -5.1645  -5.1640  -5.1636  -5.1635  -5.1635  -5.1622  -5.1622  -5.1620
    -5.1612  -5.1612  -5.1606  -5.1602  -5.1599  -5.1599  -5.1584  -5.1582
    -5.1582  -5.1581  -5.1578  -5.1578  -5.1555  -5.1555  -5.1542  -5.1524
    -5.1524  -5.1518  -5.1516  -5.1512  -5.1505  -5.1505  -5.1501  -5.1501
    -5.1500  -5.1496  -5.1484  -5.1484  -5.1476  -5.1475  -5.1475  -5.1460
    -5.1460  -5.1457  -5.1457  -5.1443  -5.1442  -5.1442  -5.1434  -5.1434
    -5.1428  -5.1428  -5.1428  -5.1406  -5.1405  -5.1402  -5.1401  -5.1391
    -5.1382  -5.1381  -5.1378  -5.1378  -5.1371  -5.1368  -5.1366  -5.1366
    -5.1362  -5.1362  -5.1356  -5.1356  -5.1335  -5.1334  -5.1334  -5.1323
    -5.1322  -5.1311  -5.1293  -5.1283  -5.1283  -5.1282  -5.1276  -5.1276
    -5.1260  -5.1259  -5.1258  -5.1227  -5.1225  -5.1225  -5.1216  -5.1216
    -5.1205  -5.1205  -5.1203  -5.1198  -5.1183  -5.1176  -5.1166  -5.1166
    -5.1162  -5.1161  -5.1160  -5.1149  -5.1149  -5.1143  -5.1117  -5.1117
    -5.1107  -5.1106  -5.1093  -5.1077  -5.1077  -5.1065  -5.1059  -5.1057
    -5.1057  -5.1044  -5.1044  -5.1028  -5.1013  -5.1012  -5.1010  -5.1001
    -5.1001  -5.0996  -5.0993  -5.0993  -5.0984  -5.0972  -5.0972  -5.0951
    -5.0950  -5.0950  -5.0934  -5.0934  -5.0925  -5.0922  -5.0911  -5.0910
    -5.0910  -5.0895  -5.0883  -5.0883  -5.0883  -5.0865  -5.0865  -5.0855
    -5.0849  -5.0844  -5.0833  -5.0833  -5.0816  -5.0815  -5.0814  -5.0805
    -5.0801  -5.0797  -5.0797  -5.0789  -5.0789  -5.0780  -5.0776  -5.0776
    -5.0766  -5.0766  -5.0758  -5.0755  -5.0754  -5.0751  -5.0751  -5.0748
    -5.0727  -5.0727  -5.0725  -5.0723  -5.0722  -5.0707  -5.0707  -5.0705
    -5.0701  -5.0701  -5.0701  -5.0693  -5.0685  -5.0684  -5.0683  -5.0673
    -5.0673  -5.0665  -5.0665  -5.0660  -5.0660  -5.0652  -5.0644  -5.0643
    -5.0638  -5.0622  -5.0618  -5.0618  -5.0600  -5.0598  -5.0598  -5.0593
    -5.0593  -5.0583  -5.0579  -5.0579  -5.0578  -5.0578  -5.0565  -5.0565
    -5.0560  -5.0560  -5.0544  -5.0542  -5.0539  -5.0539  -5.0532  -5.0532
    -5.0525  -5.0523  -5.0522  -5.0512  -5.0509  -5.0509  -5.0509  -5.0501
    -5.0500  -5.0499  -5.0486  -5.0486  -5.0481  -5.0481  -5.0478  -5.0478
    -5.0477  -5.0465  -5.0459  -5.0459  -5.0459  -5.0458  -5.0438  -5.0435
    -5.0435  -5.0433  -5.0433  -5.0431  -5.0423  -5.0423  -5.0423  -5.0415
    -5.0415  -5.0415  -5.0415  -5.0396  -5.0396  -5.0392  -5.0392  -5.0390
    -5.0390  -5.0378  -5.0378  -5.0377  -5.0369  -5.0367  -5.0367  -5.0364
    -5.0357  -5.0357  -5.0351  -5.0334  -5.0334  -5.0324  -5.0324  -5.0317
    -5.0316  -5.0316  -5.0315  -5.0311  -5.0302  -5.0292  -5.0292  -5.0286
    -5.0271  -5.0267  -5.0267  -5.0259  -5.0259  -5.0235  -5.0225  -5.0225
    -5.0216  -5.0211  -5.0211  -5.0203  -5.0203  -5.0195  -5.0192  -5.0192
    -5.0179  -5.0163  -5.0163  -5.0152  -5.0151  -5.0140  -5.0132  -5.0132
    -5.0128  -5.0127  -5.0124  -5.0117  -5.0116  -5.0112  -5.0111  -5.0104
    -5.0099  -5.0099  -5.0095  -5.0089  -5.0089  -5.0076  -5.0076  -5.0069
    -5.0059  -5.0058  -5.0039  -5.0037  -5.0037  -5.0028  -5.0027  -5.0022
    -5.0017  -5.0017  -5.0006  -5.0005  -4.9990  -4.9989  -4.9981  -4.9978
    -4.9974  -4.9974  -4.9973  -4.9966  -4.9966  -4.9948  -4.9948  -4.9948
    -4.9941  -4.9940  -4.9934  -4.9934  -4.9931  -4.9926  -4.9912  -4.9912
    -4.9904  -4.9904  -4.9898  -4.9893  -4.9893  -4.9890  -4.9889  -4.9888
    -4.9872  -4.9872  -4.9870  -4.9866  -4.9850  -4.9850  -4.9837  -4.9837
    -4.9837  -4.9831  -4.9830  -4.9827  -4.9816  -4.9816  -4.9812  -4.9810
    -4.9809  -4.9805  -4.9793  -4.9793  -4.9793  -4.9787  -4.9787  -4.9779
    -4.9778  -4.9769  -4.9759  -4.9758  -4.9754  -4.9754  -4.9750  -4.9743
    -4.9739  -4.9739  -4.9718  -4.9718  -4.9714  -4.9699  -4.9698  -4.9688
    -4.9687  -4.9686  -4.9676  -4.9676  -4.9666  -4.9658  -4.9657  -4.9656
    -4.9637  -4.9615  -4.9612  -4.9612  -4.9597  -4.9592  -4.9592  -4.9565
    -4.9565  -4.9503  -4.9502  -4.9492  -4.9439  -4.9438  -4.9437  -4.8024
    -4.7877  -4.7876  -4.7812  -4.7811  -4.7585  -4.7584  -4.7545  -4.7544
    -4.7467  -4.7450  -4.7392  -4.3390  -4.3387  -4.3290  -4.3286  -4.3284
    -4.3247  -4.2937  -4.2705  -4.1003  -4.1001  -4.0964  -4.0949  -4.0946
    -4.0903  -4.0899  -4.0872  -4.0771  -4.0767  -4.0763  -4.0496  -4.0301
    -4.0297  -4.0249  -4.0068  -4.0065  -4.0037  -3.9874  -3.9725  -3.9723
    -3.9614  -3.9612  -3.9357  -3.9355  -3.9291  -3.9290  -3.9207  -3.9181
    -3.8989  -3.8287  -3.8283  -3.8268  -3.8264  -3.8187  -3.8067  -3.8064
    -3.8022  -3.7997  -3.7995  -3.7994  -3.7169  -3.5203  -3.4324  -3.4312
    -3.4310  -3.4201  -3.4199  -3.4064  -3.4057  -3.4053  -3.3976  -3.3974
    -3.3974  -3.3900  -3.3861  -3.3858  -3.3836  -3.3684  -3.3684  -3.3286
    -3.3102  -3.3100  -3.3038  -3.3031  -3.2988  -3.2987  -3.2872  -3.2846
    -3.2845  -3.2804  -3.2754  -3.2752  -3.2719  -3.2718  -3.2702  -3.2674
    -3.2656  -3.2655  -3.2638  -3.2637  -3.2580  -3.2541  -3.2539  -3.2511
    -3.2489  -3.2487  -3.2336  -3.2335  -3.2212  -3.1130  -3.0836  -3.0776
    -3.0775  -3.0690  -3.0689  -3.0557  -3.0545  -3.0520  -3.0520  -3.0438
    -3.0438  -2.9989  -2.9782  -2.9778  -2.9531  -2.9351  -2.9350  -2.9278
    -2.9277  -2.9205  -2.9102  -2.9099  -2.9062  -2.8950  -2.8920  -2.8919
    -2.8856  -2.8839  -2.8837   2.0700   2.2594   2.5470   2.5473   2.5540
     2.5761   2.5783   2.5785   2.5888   2.5894   2.5935   2.6135   2.6245
     2.6246   2.6314   2.6328   2.6329   2.6371   2.6374   2.6425   2.6426
     2.6428   2.6490   2.6497   2.6528   2.6529   2.6570   2.6572   2.6630
     2.6739   2.6742   2.7147   2.7922   2.7935   2.7940   2.8119   2.8123
     2.8132   2.9426   2.9471   2.9472   2.9552   2.9626   2.9627   2.9918
     2.9936   2.9938   2.9968   3.0015   3.0065   3.0066   3.0139   3.0139
     3.0447   3.0448   3.0540   3.1374   3.1377   3.1381   3.1446   3.1448
     3.1668   3.2391   3.2392   3.2452   3.2452   3.2453   3.2465   3.2466
     3.2481   3.2587   3.2588   3.2638   3.2756   3.2824   3.2829   3.2942
     3.2944   3.2951   3.3037   3.3044   3.3045   3.3068   3.3548   3.3553
     3.4557   3.6170   3.6240   3.6877   3.6915   3.6917   3.6986   3.6988
     3.7017   3.7169   3.7170   3.7241   3.7243   3.7275   3.7277   3.7340
     3.7342   3.7368   3.7388   3.7799   3.8428   3.9327   3.9331   3.9535
     3.9572   3.9577   3.9618   3.9863   3.9864   3.9869   3.9883   3.9883
     3.9930   3.9941   3.9942   4.0251   4.0474   4.0475   4.4424   4.5287
     4.5288   4.5321   4.5483   4.5490   4.5753   4.5756   4.5986   4.5989
     4.5995   4.6063   4.6256   4.6259   4.6290   4.6558   4.6564   4.6714
     4.7212   4.7214   4.7215   4.7447   4.7448   4.7538   4.9771   4.9772
     4.9919   5.0067   5.0068   5.0121   5.0157   5.0211   5.0211   5.0325
     5.0601   5.0602   5.1371   5.4525   5.4614   5.4615   5.4663   5.4723
     5.4724   5.4853   5.4853   5.4915   5.4916   5.4969   5.4970   5.5042
     5.5078   5.5118   5.5119   5.5455   5.6614   5.6812   5.6817   5.6911
     5.7041   5.7046   5.8441   5.8564   5.8567   5.8670   5.8676   5.8779
     5.8780   5.8993   5.8999   5.9122   5.9124   5.9236   5.9240   5.9283
     5.9314   5.9317   5.9339   5.9782   5.9847   5.9847   5.9968   5.9987
     5.9989   6.0022   6.0023   6.0027   6.0064   6.0084   6.0085   6.0102
     6.0107   6.0112   6.0119   6.0122   6.0128   6.0148   6.0150   6.0156
     6.0157   6.0221   6.0222   6.0292   6.0292   6.0493   6.0539   6.0577
     6.0579   6.0590   6.0592   6.0632   6.0632   6.1381   6.1551   6.1554
     6.2758   6.2844   6.3070   6.3076   6.3280   6.3285   6.3291   6.3346
     6.3437   6.3439   6.3560   6.3583   6.3583   6.3636   6.3637   6.3701
     6.3992   6.4169   6.4171   6.4709   6.4816   6.4816   6.4851   6.4925
     6.5041   6.5043   6.5505   6.5540   6.5544   6.5720   6.5721   6.5727
     6.6231   6.6328   6.6330   6.6411   6.6439   6.6443   6.6492   6.6544
     6.6545   6.6565   6.6628   6.6723   6.6723   6.6758   6.6759   6.6797
     6.6800   6.6806   6.6830   6.6831   6.6839   6.6884   6.6887   6.7480
     6.7521   6.7573   6.7573   6.8042   6.8044   6.8137   6.8638   6.8678
     6.8678   6.8683   6.8684   6.8691   6.8747   6.8751   6.8751   6.8806
     7.0028   7.0030   7.1090   7.1092   7.1275   7.1391   7.1393   7.1415
     7.1419   7.1429   7.1557   7.1691   7.1852   7.1852   7.2805   7.2843
     7.2850   7.2851   7.2955   7.2958   7.3018   7.3119   7.3121   7.3172
     7.3173   7.3559   7.3763   7.3901   7.3904   7.3909   7.3934   7.3935
     7.3982   7.3983   7.4024   7.4028   7.4028   7.4094   7.4096   7.4132
     7.4148   7.4150   7.4179   7.4185   7.4200   7.4207   7.4265   7.4298
     7.4311   7.4321   7.4361   7.4397   7.4398   7.4418   7.4421   7.4468
     7.4475   7.4523   7.4572   7.4657   7.4664   7.4667   7.4691   7.4693
     7.4701   7.4938   7.5598   7.5601   7.5700   7.5717   7.5719   7.6020
     7.6043   7.6044   7.6097   7.6330   7.6331   7.6387   7.6389   7.6421
     7.6426   7.6427   7.6428   7.6921   7.6922   7.6959   7.7031   7.7176
     7.7176   7.7371   7.7372   7.7391   7.7391   7.7409   7.7482   7.7620
     7.7622   7.8349   7.8359   7.8754   7.9139   7.9141   7.9147   7.9600
     7.9601   8.0139   8.0139   8.0415   8.0416   8.0671   8.0731   8.0733
     8.0784   8.0830   8.0831   8.0925   8.0927   8.0948   8.1004   8.1928
     8.3150   8.3151   8.3453   8.3454   8.3558   8.3717   8.3718   8.4299
     8.4420   8.4421   8.4431   8.4524   8.4957   8.4957   8.5119   8.5120
     8.7119   8.7587   8.7587  10.3820  11.2934  11.3881  11.3901  12.0330
    12.1185  12.2274  12.2275  12.2405  12.3049  12.3713  12.3718  12.6917
    12.8076  12.8187  12.9040  12.9044  12.9063  12.9156  12.9158  12.9290
    12.9297  12.9301  12.9369  12.9388  12.9390  12.9398  12.9782  12.9783
    12.9970  12.9970  13.0016  13.0016  13.0088  13.0127  13.0707  13.0711
    13.1724  13.2762  13.6740  13.6760  13.6766  13.6917  13.6920  13.7072
    13.8546  13.8589  13.8592  13.8630  13.8664  13.8670  13.8683  13.8732
    13.8735  13.8793  13.8832  13.8841  13.8904  13.8913  13.9091  13.9098
    13.9110  13.9111  13.9112  13.9146  13.9205  13.9209  13.9585  13.9678
    13.9843  13.9901  13.9904  14.0140  14.0145  14.0168  14.0452  14.0476
    14.0477  14.0494  14.0509  14.0509  14.0527  14.0615  14.0615  14.0866
    14.0867  14.1082  14.1189  14.1195  14.1196  14.1234  14.1238  14.1514
    14.1811  14.1813  14.1890  14.1891  14.1959  14.2026  14.2099  14.2099
    14.2159  14.2159  14.2204  14.2276  14.2276  14.2336  14.3107  14.3577
    14.3583  14.5110  14.5143  14.5145  14.5309  14.5311  14.5609  14.7943
    14.8844  14.8846  14.8886  14.8989  14.8990  14.8990  14.9101  14.9104
    14.9394  14.9394  14.9830  15.0141  15.0659  15.0661  15.0661  15.0759
    15.0760  15.0761  15.0767  15.0767  15.0916  15.1118  15.1123  15.1414
    15.1426  15.1492  15.1534  15.1537  15.1552  15.1709  15.1933  15.1934
    15.2673  15.2676  15.2955  15.3881  15.3895  15.3897  15.4196  15.4203
    15.5451  15.6889  15.7083  15.7158  15.7159  15.7342  15.7342  15.8228
    15.8272  15.8370  15.8370  15.8576  15.8576  15.9204  15.9435  15.9435
    15.9460  15.9612  15.9613  15.9679  15.9700  15.9702  15.9955  15.9956
    16.0190  16.0713  16.1245  16.1257  16.1276  16.1277  16.1296  16.1305
    16.1309  16.1345  16.1369  16.1372  16.1416  16.1418  16.1466  16.1482
    16.1484  16.1508  16.1512  16.1557  16.1562  16.1566  16.1662  16.1663
    16.1791  16.1793  16.1835  16.1842  16.1843  16.1906  16.1908  16.1927
    16.1928  16.1972  16.2416  16.2419  16.2596  16.2607  16.2787  16.2794
    16.3094  16.3094  16.3237  16.3409  16.3501  16.3572  16.3574  16.3596
    16.3597  16.3612  16.3630  16.3656  16.3658  16.3847  16.3876  16.3878
    16.3937  16.3977  16.3986  16.3987  16.4005  16.4005  16.4022  16.4025
    16.4134  16.4281  16.4284  16.4391  16.4479  16.4479  16.4495  16.4497
    16.4578  16.4621  16.4770  16.4773  16.4830  16.4843  16.4845  16.4881
    16.4885  16.4903  16.6304  16.6311  16.6638  16.6675  16.6739  16.6809

     occupation numbers 
     1.0000   1.0000   1.0000   1.0000   1.0000   1.0000   1.0000   1.0000
     1.0000   1.0000   1.0000   1.0000   1.0000   1.0000   1.0000   1.0000
     1.0000   1.0000   1.0000   1.0000   1.0000   1.0000   1.0000   1.0000
     1.0000   1.0000   1.0000   1.0000   1.0000   1.0000   1.0000   1.0000
     1.0000   1.0000   1.0000   1.0000   1.0000   1.0000   1.0000   1.0000
     1.0000   1.0000   1.0000   1.0000   1.0000   1.0000   1.0000   1.0000
     1.0000   1.0000   1.0000   1.0000   1.0000   1.0000   1.0000   1.0000
     1.0000   1.0000   1.0000   1.0000   1.0000   1.0000   1.0000   1.0000
     1.0000   1.0000   1.0000   1.0000   1.0000   1.0000   1.0000   1.0000
     1.0000   1.0000   1.0000   1.0000   1.0000   1.0000   1.0000   1.0000
     1.0000   1.0000   1.0000   1.0000   1.0000   1.0000   1.0000   1.0000
     1.0000   1.0000   1.0000   1.0000   1.0000   1.0000   1.0000   1.0000
     1.0000   1.0000   1.0000   1.0000   1.0000   1.0000   1.0000   1.0000
     1.0000   1.0000   1.0000   1.0000   1.0000   1.0000   1.0000   1.0000
     1.0000   1.0000   1.0000   1.0000   1.0000   1.0000   1.0000   1.0000
     1.0000   1.0000   1.0000   1.0000   1.0000   1.0000   1.0000   1.0000
     1.0000   1.0000   1.0000   1.0000   1.0000   1.0000   1.0000   1.0000
     1.0000   1.0000   1.0000   1.0000   1.0000   1.0000   1.0000   1.0000
     1.0000   1.0000   1.0000   1.0000   1.0000   1.0000   1.0000   1.0000
     1.0000   1.0000   1.0000   1.0000   1.0000   1.0000   1.0000   1.0000
     1.0000   1.0000   1.0000   1.0000   1.0000   1.0000   1.0000   1.0000
     1.0000   1.0000   1.0000   1.0000   1.0000   1.0000   1.0000   1.0000
     1.0000   1.0000   1.0000   1.0000   1.0000   1.0000   1.0000   1.0000
     1.0000   1.0000   1.0000   1.0000   1.0000   1.0000   1.0000   1.0000
     1.0000   1.0000   1.0000   1.0000   1.0000   1.0000   1.0000   1.0000
     1.0000   1.0000   1.0000   1.0000   1.0000   1.0000   1.0000   1.0000
     1.0000   1.0000   1.0000   1.0000   1.0000   1.0000   1.0000   1.0000
     1.0000   1.0000   1.0000   1.0000   1.0000   1.0000   1.0000   1.0000
     1.0000   1.0000   1.0000   1.0000   1.0000   1.0000   1.0000   1.0000
     1.0000   1.0000   1.0000   1.0000   1.0000   1.0000   1.0000   1.0000
     1.0000   1.0000   1.0000   1.0000   1.0000   1.0000   1.0000   1.0000
     1.0000   1.0000   1.0000   1.0000   1.0000   1.0000   1.0000   1.0000
     1.0000   1.0000   1.0000   1.0000   1.0000   1.0000   1.0000   1.0000
     1.0000   1.0000   1.0000   1.0000   1.0000   1.0000   1.0000   1.0000
     1.0000   1.0000   1.0000   1.0000   1.0000   1.0000   1.0000   1.0000
     1.0000   1.0000   1.0000   1.0000   1.0000   1.0000   1.0000   1.0000
     1.0000   1.0000   1.0000   1.0000   1.0000   1.0000   1.0000   1.0000
     1.0000   1.0000   1.0000   1.0000   1.0000   1.0000   1.0000   1.0000
     1.0000   1.0000   1.0000   1.0000   1.0000   1.0000   1.0000   1.0000
     1.0000   1.0000   1.0000   1.0000   1.0000   1.0000   1.0000   1.0000
     1.0000   1.0000   1.0000   1.0000   1.0000   1.0000   1.0000   1.0000
     1.0000   1.0000   1.0000   1.0000   1.0000   1.0000   1.0000   1.0000
     1.0000   1.0000   1.0000   1.0000   1.0000   1.0000   1.0000   1.0000
     1.0000   1.0000   1.0000   1.0000   1.0000   1.0000   1.0000   1.0000
     1.0000   1.0000   1.0000   1.0000   1.0000   1.0000   1.0000   1.0000
     1.0000   1.0000   1.0000   1.0000   1.0000   1.0000   1.0000   1.0000
     1.0000   1.0000   1.0000   1.0000   1.0000   1.0000   1.0000   1.0000
     1.0000   1.0000   1.0000   1.0000   1.0000   1.0000   1.0000   1.0000
     1.0000   1.0000   1.0000   1.0000   1.0000   1.0000   1.0000   1.0000
     1.0000   1.0000   1.0000   1.0000   1.0000   1.0000   1.0000   1.0000
     1.0000   1.0000   1.0000   1.0000   1.0000   1.0000   1.0000   1.0000
     1.0000   1.0000   1.0000   1.0000   1.0000   1.0000   1.0000   1.0000
     1.0000   1.0000   1.0000   1.0000   1.0000   1.0000   1.0000   1.0000
     1.0000   1.0000   1.0000   1.0000   1.0000   1.0000   1.0000   1.0000
     1.0000   1.0000   1.0000   1.0000   1.0000   1.0000   1.0000   1.0000
     1.0000   1.0000   1.0000   1.0000   1.0000   1.0000   1.0000   1.0000
     1.0000   1.0000   1.0000   1.0000   1.0000   1.0000   1.0000   1.0000
     1.0000   1.0000   1.0000   1.0000   1.0000   1.0000   1.0000   1.0000
     1.0000   1.0000   1.0000   1.0000   1.0000   1.0000   1.0000   1.0000
     1.0000   1.0000   1.0000   1.0000   1.0000   1.0000   1.0000   1.0000
     1.0000   1.0000   1.0000   1.0000   1.0000   1.0000   1.0000   1.0000
     1.0000   1.0000   1.0000   1.0000   1.0000   1.0000   1.0000   1.0000
     1.0000   1.0000   1.0000   1.0000   1.0000   1.0000   1.0000   1.0000
     1.0000   1.0000   1.0000   1.0000   1.0000   1.0000   1.0000   1.0000
     1.0000   1.0000   1.0000   1.0000   1.0000   1.0000   1.0000   1.0000
     1.0000   1.0000   1.0000   1.0000   1.0000   1.0000   1.0000   1.0000
     1.0000   1.0000   1.0000   1.0000   1.0000   1.0000   1.0000   1.0000
     1.0000   1.0000   1.0000   1.0000   1.0000   1.0000   1.0000   1.0000
     1.0000   1.0000   1.0000   1.0000   1.0000   1.0000   1.0000   1.0000
     1.0000   1.0000   1.0000   1.0000   1.0000   1.0000   1.0000   1.0000
     1.0000   1.0000   1.0000   1.0000   1.0000   1.0000   1.0000   1.0000
     1.0000   1.0000   1.0000   1.0000   1.0000   1.0000   1.0000   1.0000
     1.0000   1.0000   1.0000   1.0000   1.0000   1.0000   1.0000   1.0000
[...]
Ga           11.3542277862        0.9353815073        7.9292301508
Ga           11.3551497354        0.9362232733       13.2162468130
Ga            9.7332752056        3.7471123990        2.6392015073
Ga            9.7332628091        3.7470193806        7.9290850543
Ga            9.7332796168        3.7468361835       13.2167622578
Ga            8.1117334049        6.5557051844        2.6392015073
Ga            8.1116466503        6.5557409579        7.9290850543
Ga            8.1114964009        6.5558471123       13.2167622578
Ga            6.4875108463        9.3654648988        2.6380283613
Ga            6.4871793145        9.3653567434        7.9292301508
Ga            6.4883692799        9.3657342918       13.2162468130
Ga            4.8624884602       12.1735620607        2.6382528542
Ga            4.8623154732       12.1734621867        7.9318909957
Ga            4.8659024389       12.1755331223       13.2157903987
Ga           14.5919877226        0.9297074445        2.6343633831
Ga           14.5951815286        0.9302741288        7.9295000633
Ga           14.5997237543        0.9362409422       13.2172995911
Ga           12.9769711894        3.7477807739        2.6383741317
Ga           12.9770353571        3.7477289113        7.9317569619
Ga           12.9779694323        3.7472548954       13.2159940945
Ga           11.3557446819        6.5562407782        2.6389806413
Ga           11.3558145769        6.5562811321        7.9288678434
Ga           11.3559706007        6.5563712125       13.2165460579
Ga            9.7341602265        9.3644941212        2.6383741317
Ga            9.7341473961        9.3645756233        7.9317569619
Ga            9.7342039239        9.3656215641       13.2159940945
Ga            8.1011454001       12.1721761311        2.6343633831
Ga            8.1032330661       12.1746587061        7.9295000633
Ga            8.1106715910       12.1756089823       13.2172995911
Ga           -0.0129195848        1.8798431554        5.2921935306
Ga           -0.0020096297        1.8738661086       10.5772241935
Ga           -0.0003796081        1.8730566791       15.8496456455
Ga           -1.6288642201        4.6827605702        5.2886480413
Ga           -1.6232012782        4.6835314170       10.5728049027
Ga           -1.6249940530        4.6845891506       15.8593137971
Ga           -3.2449753283        7.4927198098        5.2842021322
Ga           -3.2447692207        7.4928388061       10.5727986317
Ga           -3.2446399366        7.4929134483       15.8598378193
Ga           -4.8704158592       10.2972927045        5.2886480413
Ga           -4.8669168154       10.3018115326       10.5728049027
Ga           -4.8668971785       10.2997300773       15.8593137971
Ga           -6.4898412273       13.0982005173        5.2921935306
Ga           -6.4895625241       13.1106373390       10.5772241935
Ga           -6.4894484998       13.1124536938       15.8496456455
Ga            3.2578540494        1.8809255913        5.2930341332
Ga            3.2465870740        1.8744206000       10.5775680127
Ga            3.2450110507        1.8735106825       15.8499730064
Ga            1.6226736772        4.6922762147        5.2905395891
Ga            1.6227996430        4.6832551669       10.5729354847
Ga            1.6228030828        4.6869958363       15.8581679097
Ga            0.0005959597        7.4948793142        5.2854082652
Ga           -0.0002546950        7.4939576182       10.5734416983
Ga           -0.0001340851        7.4943381717       15.8594946753
Ga           -1.6203194986       10.3023872428        5.2854082652
Ga           -1.6215430381       10.3021114022       10.5734416983
Ga           -1.6211531641       10.3020255767       15.8594946753
Ga           -3.2364061207       13.1084493028        5.2905395891
Ga           -3.2441555943       13.1130689164       10.5729354847
Ga           -3.2409143597       13.1112015606       15.8581679097
Ga            6.4916535228        1.8781020504        5.2887027208
Ga            6.4895380470        1.8731307646       10.5729125661
Ga            6.4912587032        1.8740836676       15.8593694428
Ga            4.8723085280        4.6828898566        5.2887027208
Ga            4.8669455303        4.6835434437       10.5729125661
Ga            4.8686310966        4.6845571242       15.8593694428
Ga            3.2440779136        7.4943796427        5.2851587168
Ga            3.2449478712        7.4934231636       10.5732468287
Ga            3.2448249228        7.4938126253       15.8592396111
Ga            1.6218576447       10.3025871368        5.2842726059
Ga            1.6218969733       10.3026098432       10.5730002284
Ga            1.6218960760       10.3026093252       15.8601188512
Ga            0.0009887502       13.1115748474        5.2851587168
Ga            0.0005953937       13.1128064923       10.5732468287
Ga            0.0008712033       13.1125052850       15.8592396111
Ga            9.7337388600        1.8733804429        5.2843387046
Ga            9.7337812831        1.8731346230       10.5729441224
Ga            9.7337801046        1.8729869198       15.8599497711
Ga            8.1126604968        4.6838494007        5.2848371113
Ga            8.1120323994        4.6834867685       10.5732660369
Ga            8.1120632242        4.6835045651       15.8598555610
Ga            6.4892621645        7.4929789236        5.2843387046
Ga            6.4890704898        7.4931385731       10.5729441224
Ga            6.4889419858        7.4932114041       15.8599497711
Ga            4.8654024028       10.3021459332        5.2851818602
Ga            4.8667291544       10.3018379477       10.5732873149
Ga            4.8663417239       10.3017840874       15.8592562226
Ga            3.2432479302       13.1117998976        5.2851818602
Ga            3.2436445827       13.1131028909       10.5732873149
Ga            3.2434042231       13.1127942964       15.8592562226
Ga           12.9751657119        1.8784345951        5.2889522021
Ga           12.9775994760        1.8734509887       10.5731062419
Ga           12.9758583162        1.8744880423       15.8595923464
Ga           11.3551075291        4.6838821556        5.2849894157
Ga           11.3557047584        4.6835193439       10.5734386808
Ga           11.3556496463        4.6835506939       15.8599977842
Ga            9.7339123796        7.4918745238        5.2849894157
Ga            9.7338967901        7.4925731453       10.5734386808
Ga            9.7338963839        7.4925097418       15.8599977842
Ga            8.1143526147       10.2976098458        5.2889522021
Ga            8.1112535670       10.3022093506       10.5731062419
Ga            8.1112811018       10.3001829351       15.8595923464
Ga            6.4819647434       13.1085712787        5.2904764696
Ga            6.4894014783       13.1128648796       10.5729368334
Ga            6.4864342137       13.1111517286       15.8580728979
N             1.6223078833        0.9366384222        9.9250638263
N             1.6223265713        0.9366492117       15.2118733666
N             0.0138796669        3.7327409430        4.6283390643
N             0.0004055633        3.7436323822        9.9163599625
N             0.0002931718        3.7451486705       15.2124886104
N            -1.6190321687        6.5513234806        4.6307740369
N            -1.6221830985        6.5557096385        9.9191651221
N            -1.6221791176        6.5559686885       15.2073528716
N            -3.2472732907        9.3715198310        4.6307740369
N            -3.2450502315        9.3665979668        9.9191651221
N            -3.2448238971        9.3664718893       15.2073528716
N            -4.8717814530       12.1949542315        4.6283390643
N            -4.8690862418       12.1778395959        9.9163599625
N            -4.8678292933       12.1769841178       15.2124886104
N             4.8481101338        0.9313758877        4.6280449481
N             4.8641907859        0.9377440542        9.9161355571
N             4.8654794213        0.9371141117       15.2122211479
N             3.2306515199        3.7328963861        4.6280449481
N             3.2442068399        3.7436385560        9.9161355571
N             3.2443056115        3.7450695183       15.2122211479
N             1.6223069031        6.5542471184        4.6298552131
N             1.6223218685        6.5554739041        9.9206094215
N             1.6223098999        6.5564644682       15.2064767387
N            -0.0006914328        9.3658038403        4.6304369537
N            -0.0001045729        9.3661426640        9.9195170358
N             0.0000563676        9.3662355831       15.2066919556
N            -1.6240718103       12.1771399906        4.6298552131
N            -1.6230019000       12.1765395581        9.9206094215
N            -1.6221500306       12.1760339110       15.2064767387
N             8.1053886987        0.9363100578        4.6306307855
N             8.1107364345        0.9369012253        9.9190545364
N             8.1109428140        0.9367707382       15.2072363358
N             6.4859775108        3.7446793910        4.6306032704
N             6.4888356374        3.7463295312        9.9203867525
N             6.4889971925        3.7464228050       15.2075745544
N             4.8635639192        6.5513152856        4.6306307855
N             4.8667497531        6.5556509769        9.9190545364
N             4.8667399377        6.5558949503       15.2072363358
N             3.2451443767        9.3657653938        4.6305680833
N             3.2446376822        9.3660793648        9.9196695194
N             3.2444751514        9.3661879783       15.2068321687
N             1.6221931763       12.1767993313        4.6305680833
N             1.6222117359       12.1762035355        9.9196695194
N             1.6222245326       12.1760084729       15.2068321687
N            11.3617868568        0.9363173105        4.6306318426
N            11.3565819746        0.9369615856        9.9191004779
N            11.3564011584        0.9368507407       15.2072668156
N             9.7337784452        3.7459293395        4.6307902036
N             9.7337746808        3.7464869033        9.9195492791
N             9.7337650202        3.7463786181       15.2073775939
N             8.1109604651        6.5567325324        4.6307902036
N             8.1114414474        6.5564504904        9.9195492791
N             8.1113428393        6.5564962667       15.2073775939
N             6.4917692792        9.3714351889        4.6306318426
N             6.4897247967        9.3666054912        9.9191004779
N             6.4895383941        9.3665043221       15.2072668156
N             4.8688394408       12.1772288011        4.6301079157
N             4.8676380560       12.1765351813        9.9207843722
N             4.8669043800       12.1761115933       15.2066894957
N            14.6189262403        0.9313946904        4.6279568706
N            14.6030554375        0.9376682941        9.9160759434
N            14.6018129544        0.9371466141       15.2121767472
N            12.9811250753        3.7445889323        4.6303614614
N            12.9783932536        3.7463092320        9.9202334447
N            12.9782165529        3.7464286194       15.2073764912
N            11.3564465671        6.5566460118        4.6305888257
N            11.3559506328        6.5563596840        9.9193548464
N            11.3560504445        6.5564173103       15.2071816855
N             9.7334729536        9.3696874127        4.6303614614
N             9.7335968660        9.3664614358        9.9202334447
N             9.7336119081        9.3662487148       15.2073764912
N             8.1160758568       12.1946619488        4.6279568706
N             8.1135735556       12.1777806286        9.9160759434
N             8.1125005259       12.1769654466       15.2121767472
N             0.0027522644        1.8714908151        2.0047471810
N             0.0105265444        1.8670475704        7.2660998859
N            -0.0001090514        1.8733735109       12.5662971120
N            -1.6207444925        4.6811030908        1.9878569862
N            -1.6200280792        4.6801135618        7.2749007119
N            -1.6211074580        4.6826241965       12.5635322217
N            -3.2442664877        7.4931290591        1.9870433373
N            -3.2442027487        7.4931658588        7.2745188659
N            -3.2444207889        7.4930399733       12.5631985694
N            -4.8677914146       10.3051533346        1.9878569862
N            -4.8682901653       10.3062685312        7.2749007119
N            -4.8666555812       10.3040784443       12.5635322217
N            -6.4892386415       13.1159489070        2.0047471810
N            -6.4891994643       13.1249032533        7.2660998859
N            -6.4890388371       13.1125295869       12.5662971120
N             3.2415677123        1.8715226702        2.0051497742
N             3.2339557454        1.8671278990        7.2665869518
N             3.2447125841        1.8733383628       12.5665998650
N             1.6222310064        4.6844318062        1.9860663606
N             1.6221704473        4.6851648338        7.2748998086
N             1.6222495510        4.6821383873       12.5639858323
N            -0.0001230506        7.4928303309        1.9861237518
N             0.0002099496        7.4927243312        7.2755482573
N            -0.0000503120        7.4929479660       12.5634659891
N            -1.6224534753       10.3027890533        1.9861237518
N            -1.6223787736       10.3031304396        7.2755482573
N            -1.6223152311       10.3027932291       12.5634659891
N            -3.2434209131       13.1119881429        1.9860663606
N            -3.2428163722       13.1115691834        7.2748998086
N            -3.2453977998       13.1131509125       12.5639858323
N             6.4867202224        1.8730288416        1.9879166249
N             6.4854412955        1.8728058500        7.2749703945
N             6.4882023524        1.8726086592       12.5636252966
N             4.8654483500        4.6811540975        1.9879166249
N             4.8646157703        4.6801580101        7.2749703945
N             4.8658255265        4.6826477510       12.5636252966
N             3.2448138010        7.4929293422        1.9858909872
N             3.2444762785        7.4928269640        7.2753143027
N             3.2446907963        7.4930297072       12.5632781662
N             1.6223734218       10.3028849209        1.9863702185
N             1.6223761040       10.3028864695        7.2752280369
N             1.6223825238       10.3028901759       12.5632867292
N             0.0001006967       13.1129372948        1.9858909872
N            -0.0001567266       13.1126961808        7.2753143027
N             0.0001261131       13.1127805871       12.5632781662
N             9.7335440961        1.8729979852        1.9871417088
N             9.7335465553        1.8729048008        7.2746391107
N             9.7335970762        1.8731498471       12.5633245540
N             8.1107061552        4.6827210610        1.9866268376
N             8.1103359082        4.6825072988        7.2752936093
N             8.1112121330        4.6830131874       12.5634735697
N             6.4888335645        7.4930014820        1.9871417088
N             6.4887540940        7.4930502040        7.2746391107
N             6.4889915708        7.4929714332       12.5633245540
N             4.8668719556       10.3026989721        1.9859141712
N             4.8667970565       10.3030394535        7.2753410485
N             4.8667903817       10.3027814096       12.5633108867
N             3.2444616524       13.1127960482        1.9859141712
N             3.2447190684       13.1125609429        7.2753410485
N             3.2444922584       13.1126841844       12.5633108867
N            12.9805754863        1.8729490639        1.9881059739
N            12.9818134532        1.8727563779        7.2751881350
N            12.9792142429        1.8725646029       12.5638113275
N            11.3565479840        4.6827905241        1.9867438250
N            11.3569033114        4.6825785086        7.2754288522
N            11.3560799084        4.6830635900       12.5636237340
N             9.7336872264        7.4936678101        1.9867438250
N             9.7336812793        7.4940815403        7.2754288522
N             9.7336896706        7.4931259118       12.5636237340
N             8.1123068926       10.3050376135        1.9881059739
N             8.1127590050       10.3062060672        7.2751881350
N             8.1112933179       10.3040509726       12.5638113275
N             6.4877364859       13.1119035958        1.9859696577
N             6.4871991154       13.1115933448        7.2748324901
N             6.4899489952       13.1131809886       12.5639885940
End final coordinates



     Writing all to output data dir ./GaN.save/
 
     init_run     :      5.57s CPU      6.11s WALL (       1 calls)
     electrons    :     26.32s CPU     32.02s WALL (       1 calls)
     forces       :     68.34s CPU     69.52s WALL (       1 calls)
     stress       :   1350.09s CPU   1364.14s WALL (       1 calls)

     Called by init_run:
     wfcinit      :      0.61s CPU      0.66s WALL (       1 calls)
     potinit      :      1.81s CPU      2.05s WALL (       1 calls)
     hinit0       :      1.47s CPU      1.57s WALL (       1 calls)

     Called by electrons:
     c_bands      :      0.18s CPU      4.73s WALL (       1 calls)
     sum_band     :     23.74s CPU     24.32s WALL (       1 calls)
     v_of_rho     :      2.16s CPU      2.34s WALL (       2 calls)
     v_h          :      0.02s CPU      0.02s WALL (       2 calls)
     v_xc         :      4.03s CPU      4.36s WALL (       4 calls)
     newd         :      0.41s CPU      0.59s WALL (       2 calls)
     PAW_pot      :      1.04s CPU      1.05s WALL (       2 calls)
     mix_rho      :      0.00s CPU      0.00s WALL (       1 calls)
     vdW_kernel   :      0.25s CPU      0.26s WALL (       1 calls)

     Called by c_bands:
     init_us_2    :      1.48s CPU      1.73s WALL (       6 calls)
     init_us_2:cp :      1.48s CPU      1.73s WALL (       6 calls)

     Called by sum_band:
     sum_band:wei :      0.00s CPU      0.00s WALL (       1 calls)
     sum_band:loo :     20.93s CPU     21.31s WALL (       1 calls)
     sum_band:buf :      0.26s CPU      0.27s WALL (       2 calls)
     sum_band:ini :      0.52s CPU      0.75s WALL (       2 calls)
     sum_band:cal :     14.13s CPU     14.22s WALL (       2 calls)
     sum_band:bec :      0.10s CPU      0.10s WALL (       2 calls)
     addusdens    :      0.17s CPU      0.26s WALL (       1 calls)
     addusd:skk   :      0.02s CPU      0.07s WALL (       2 calls)
     addusd:dgemm :      0.10s CPU      0.15s WALL (       2 calls)
     addusd:qvan2 :      0.03s CPU      0.03s WALL (       2 calls)

     Called by *egterg:

     Called by h_psi:

     General routines
     calbec       :    113.64s CPU    114.48s WALL (      12 calls)
     fft          :      2.15s CPU      2.20s WALL (     293 calls)
     ffts         :      0.02s CPU      0.02s WALL (       3 calls)
     fftw         :      5.32s CPU      5.37s WALL (    3232 calls)
     interpolate  :      0.03s CPU      0.04s WALL (       2 calls)
     davcio       :      0.00s CPU      4.49s WALL (       2 calls)
 
     Parallel routines

     PAW routines
     PAW_pot      :      1.04s CPU      1.05s WALL (       2 calls)
     PAW_symme    :      0.00s CPU      0.00s WALL (       2 calls)
 
     PWSCF        :  24m20.08s CPU  25m 1.22s WALL

 
   This run was terminated on:   3:59: 9  26Mar2024            

=------------------------------------------------------------------------------=
   JOB DONE.
=------------------------------------------------------------------------------=
