
     Program PWSCF v.7.1 starts on 18Feb2024 at 12:10:28 

     This program is part of the open-source Quantum ESPRESSO suite
     for quantum simulation of materials; please cite
         "P. Giannozzi et al., J. Phys.:Condens. Matter 21 395502 (2009);
         "P. Giannozzi et al., J. Phys.:Condens. Matter 29 465901 (2017);
         "P. Giannozzi et al., J. Chem. Phys. 152 154105 (2020);
          URL http://www.quantum-espresso.org", 
     in publications or presentations arising from this work. More details at
     http://www.quantum-espresso.org/quote

     Parallel version (MPI & OpenMP), running on     128 processor cores
     Number of MPI processes:               128
     Threads/MPI process:                     1

     MPI processes distributed on     1 nodes
     1900043 MiB available memory on the printing compute node when the environment starts
 
     Reading input from espresso.pwi
Warning: card &CELL ignored
Warning: card    CELL_DYNAMICS    = 'BFGS' ignored
Warning: card / ignored

     Current dimensions of program PWSCF are:
     Max number of different atomic species (ntypx) = 10
     Max number of k-points (npk) =  40000
     Max angular momentum in pseudopotentials (lmaxx) =  4
     file Pb.pbe-dn-kjpaw_psl.1.0.0.UPF: wavefunction(s)  6S 6P 5D renormalized
     file I.pbe-dn-kjpaw_psl.1.0.0.UPF: wavefunction(s)  5S 5P renormalized

     **************************************************************************
     Initializing libbeef V0.1.2 with the BEEF-vdW functional.
     Citation: Wellendorff et al., PRB 85, 235149 (2012).
     **************************************************************************


     IMPORTANT: XC functional enforced from input :
     Exchange-correlation= BEEF-VDW
                           (   1   4  43  14   2   0   0)
     Any further DFT definition will be discarded
     Please, verify this is what you really want

 
     R & G space division:  proc/nbgrp/npool/nimage =     128
     Subspace diagonalization in iterative solution of the eigenvalue problem:
     a serial algorithm will be used

 
     Parallelization info
     --------------------
     sticks:   dense  smooth     PW     G-vecs:    dense   smooth      PW
     Min         238     190     47                26444    18918    2361
     Max         239     191     48                26451    18927    2368
     Sum       30577   24439   6121              3385235  2422379  302703
 
     Using Slab Decomposition
 


     bravais-lattice index     =            4
     lattice parameter (alat)  =      35.6073  a.u.
     unit-cell volume          =   30614.2220 (a.u.)^3
     number of atoms/cell      =           96
     number of atomic types    =            2
     number of electrons       =      1537.00
     number of Kohn-Sham states=          923
     kinetic-energy cutoff     =      70.0000  Ry
     charge density cutoff     =     350.0000  Ry
     scf convergence threshold =      1.0E-07
     mixing beta               =       0.7000
     number of iterations used =            8  plain     mixing
     Exchange-correlation= BEEF-VDW
                           (   1   4  43  14   2   0   0)

     celldm(1)=  35.607290  celldm(2)=   0.000000  celldm(3)=   0.783025
     celldm(4)=   0.000000  celldm(5)=   0.000000  celldm(6)=   0.000000

     crystal axes: (cart. coord. in units of alat)
               a(1) = (   1.000000   0.000000   0.000000 )  
               a(2) = (  -0.500000   0.866025   0.000000 )  
               a(3) = (   0.000000   0.000000   0.783025 )  

     reciprocal axes: (cart. coord. in units 2 pi/alat)
               b(1) = (  1.000000  0.577350 -0.000000 )  
               b(2) = (  0.000000  1.154701  0.000000 )  
               b(3) = (  0.000000 -0.000000  1.277098 )  


     PseudoPot. # 1 for Pb read from file:
     //group///packages/espresso/pseudo/psl_1.0.0/pslibrary.1.0.0/pbe/PSEUDOPOTENTIALS/Pb.pbe-dn-kjpaw_psl.1.0.0.UPF
     MD5 check sum: 39ab5b8a6bbd56b7735ad9f188aac93a
     Pseudo is Projector augmented-wave + core cor, Zval = 14.0
     Generated using 'atomic' code by A. Dal Corso  v.7.1
     Shape of augmentation charge: PSQ
     Using radial grid of 1281 points,  6 beta functions with: 
                l(1) =   0
                l(2) =   0
                l(3) =   1
                l(4) =   1
                l(5) =   2
                l(6) =   2
     Q(r) pseudized with 0 coefficients 


     PseudoPot. # 2 for I  read from file:
     //group///packages/espresso/pseudo/psl_1.0.0/pslibrary.1.0.0/pbe/PSEUDOPOTENTIALS/I.pbe-dn-kjpaw_psl.1.0.0.UPF
     MD5 check sum: bfa8781bc1224d19af3f3980e3fab11e
     Pseudo is Projector augmented-wave + core cor, Zval = 17.0
     Generated using 'atomic' code by A. Dal Corso  v.7.1
     Shape of augmentation charge: PSQ
     Using radial grid of 1247 points,  6 beta functions with: 
                l(1) =   0
                l(2) =   0
                l(3) =   1
                l(4) =   1
                l(5) =   2
                l(6) =   2
     Q(r) pseudized with 0 coefficients 


     atomic species   valence    mass     pseudopotential
        Pb            14.00   207.20000     Pb( 1.00)
        I             17.00   126.90447     I ( 1.00)

     No symmetry found


                                    s                        frac. trans.

      isym =  1     identity                                     

 cryst.   s( 1) = (     1          0          0      )
                  (     0          1          0      )
                  (     0          0          1      )

 cart.    s( 1) = (  1.0000000  0.0000000  0.0000000 )
                  (  0.0000000  1.0000000  0.0000000 )
                  (  0.0000000  0.0000000  1.0000000 )


     point group C_1 (1)    
     there are  1 classes
     the character table:

       E    
A      1.00

     the symmetry operations in each class and the name of the first element:

     E        1
          identity                                               

   Cartesian axes

     site n.     atom                  positions (alat units)
         1           Pb  tau(   1) = (   0.1250034   0.2164916   0.3915076  )
         2           Pb  tau(   2) = (   0.0000077   0.4329922   0.7830161  )
         3           Pb  tau(   3) = (   0.0000025   0.4329968   0.3915034  )
         4           Pb  tau(   4) = (  -0.1249932   0.6494975   0.7830119  )
         5           Pb  tau(   5) = (  -0.1249984   0.6495021   0.3914992  )
         6           Pb  tau(   6) = (  -0.2499941   0.8660028   0.7830077  )
         7           Pb  tau(   7) = (  -0.2499993   0.8660074   0.3914950  )
         8           Pb  tau(   8) = (   0.3750086   0.2164859   0.7830237  )
         9           Pb  tau(   9) = (   0.3750034   0.2164905   0.3915110  )
        10           Pb  tau(  10) = (   0.2500077   0.4329912   0.7830194  )
        11           Pb  tau(  11) = (   0.2500025   0.4329958   0.3915068  )
        12           Pb  tau(  12) = (   0.1250068   0.6494965   0.7830152  )
        13           Pb  tau(  13) = (   0.1250016   0.6495011   0.3915026  )
        14           Pb  tau(  14) = (   0.0000059   0.8660017   0.7830110  )
        15           Pb  tau(  15) = (   0.0000007   0.8660063   0.3914983  )
        16           Pb  tau(  16) = (   0.6250086   0.2164849   0.7830270  )
        17           Pb  tau(  17) = (   0.6250034   0.2164895   0.3915143  )
        18           Pb  tau(  18) = (   0.5000077   0.4329901   0.7830228  )
        19           Pb  tau(  19) = (   0.5000025   0.4329947   0.3915101  )
        20           Pb  tau(  20) = (   0.3750068   0.6494954   0.7830186  )
        21           Pb  tau(  21) = (   0.3750016   0.6495000   0.3915059  )
        22           Pb  tau(  22) = (   0.2500059   0.8660007   0.7830144  )
        23           Pb  tau(  23) = (   0.2500007   0.8660053   0.3915017  )
        24           Pb  tau(  24) = (   0.8750086   0.2164838   0.7830303  )
        25           Pb  tau(  25) = (   0.8750034   0.2164884   0.3915177  )
        26           Pb  tau(  26) = (   0.7500077   0.4329891   0.7830261  )
        27           Pb  tau(  27) = (   0.7500025   0.4329937   0.3915135  )
        28           Pb  tau(  28) = (   0.6250068   0.6494944   0.7830219  )
        29           Pb  tau(  29) = (   0.6250016   0.6494990   0.3915092  )
        30           Pb  tau(  30) = (   0.5000059   0.8659996   0.7830177  )
        31           Pb  tau(  31) = (   0.5000007   0.8660042   0.3915050  )
        32           I   tau(  32) = (   0.1250056   0.0721546   0.2909163  )
        33           I   tau(  33) = (   0.1250108   0.0721500   0.6824290  )
        34           I   tau(  34) = (   0.0000047   0.2886599   0.2909121  )
        35           I   tau(  35) = (   0.0000099   0.2886553   0.6824248  )
        36           I   tau(  36) = (  -0.1249962   0.5051652   0.2909079  )
        37           I   tau(  37) = (  -0.1249910   0.5051606   0.6824206  )
        38           I   tau(  38) = (  -0.2499972   0.7216704   0.2909037  )
        39           I   tau(  39) = (  -0.2499919   0.7216658   0.6824164  )
        40           I   tau(  40) = (   0.3750056   0.0721536   0.2909197  )
        41           I   tau(  41) = (   0.3750108   0.0721490   0.6824324  )
        42           I   tau(  42) = (   0.2500047   0.2886589   0.2909155  )
        43           I   tau(  43) = (   0.2500099   0.2886543   0.6824282  )
        44           I   tau(  44) = (   0.1250038   0.5051641   0.2909113  )
        45           I   tau(  45) = (   0.1250090   0.5051595   0.6824240  )
        46           I   tau(  46) = (   0.0000028   0.7216694   0.2909071  )
        47           I   tau(  47) = (   0.0000081   0.7216648   0.6824197  )
        48           I   tau(  48) = (   0.6250056   0.0721525   0.2909230  )
        49           I   tau(  49) = (   0.6250108   0.0721479   0.6824357  )
        50           I   tau(  50) = (   0.5000047   0.2886578   0.2909188  )
        51           I   tau(  51) = (   0.5000099   0.2886532   0.6824315  )
        52           I   tau(  52) = (   0.3750038   0.5051631   0.2909146  )
        53           I   tau(  53) = (   0.3750090   0.5051585   0.6824273  )
        54           I   tau(  54) = (   0.2500028   0.7216683   0.2909104  )
        55           I   tau(  55) = (   0.2500081   0.7216637   0.6824231  )
        56           I   tau(  56) = (   0.8750056   0.0721515   0.2909264  )
        57           I   tau(  57) = (   0.8750108   0.0721469   0.6824391  )
        58           I   tau(  58) = (   0.7500047   0.2886567   0.2909222  )
        59           I   tau(  59) = (   0.7500099   0.2886521   0.6824348  )
        60           I   tau(  60) = (   0.6250038   0.5051620   0.2909180  )
        61           I   tau(  61) = (   0.6250090   0.5051574   0.6824306  )
        62           I   tau(  62) = (   0.5000028   0.7216673   0.2909137  )
        63           I   tau(  63) = (   0.5000081   0.7216627   0.6824264  )
        64           I   tau(  64) = (  -0.0000018   0.1443297   0.1005933  )
        65           I   tau(  65) = (   0.0000034   0.1443251   0.4921060  )
        66           I   tau(  66) = (  -0.1250027   0.3608350   0.1005891  )
        67           I   tau(  67) = (  -0.1249975   0.3608304   0.4921018  )
        68           I   tau(  68) = (  -0.2500036   0.5773403   0.1005849  )
        69           I   tau(  69) = (  -0.2499984   0.5773357   0.4920975  )
        70           I   tau(  70) = (  -0.3750045   0.7938455   0.1005807  )
        71           I   tau(  71) = (  -0.3749993   0.7938409   0.4920933  )
        72           I   tau(  72) = (   0.2499982   0.1443287   0.1005966  )
        73           I   tau(  73) = (   0.2500034   0.1443241   0.4921093  )
        74           I   tau(  74) = (   0.1249973   0.3608340   0.1005924  )
        75           I   tau(  75) = (   0.1250025   0.3608294   0.4921051  )
        76           I   tau(  76) = (  -0.0000036   0.5773392   0.1005882  )
        77           I   tau(  77) = (   0.0000016   0.5773346   0.4921009  )
        78           I   tau(  78) = (  -0.1250045   0.7938445   0.1005840  )
        79           I   tau(  79) = (  -0.1249993   0.7938399   0.4920967  )
        80           I   tau(  80) = (   0.4999982   0.1443276   0.1006000  )
        81           I   tau(  81) = (   0.5000034   0.1443230   0.4921126  )
        82           I   tau(  82) = (   0.3749973   0.3608329   0.1005958  )
        83           I   tau(  83) = (   0.3750025   0.3608283   0.4921084  )
        84           I   tau(  84) = (   0.2499964   0.5773382   0.1005915  )
        85           I   tau(  85) = (   0.2500016   0.5773336   0.4921042  )
        86           I   tau(  86) = (   0.1249955   0.7938434   0.1005873  )
        87           I   tau(  87) = (   0.1250007   0.7938388   0.4921000  )
        88           I   tau(  88) = (   0.7499982   0.1443266   0.1006033  )
        89           I   tau(  89) = (   0.7500034   0.1443220   0.4921160  )
        90           I   tau(  90) = (   0.6249973   0.3608319   0.1005991  )
        91           I   tau(  91) = (   0.6250025   0.3608273   0.4921118  )
        92           I   tau(  92) = (   0.4999964   0.5773371   0.1005949  )
        93           I   tau(  93) = (   0.5000016   0.5773325   0.4921076  )
        94           I   tau(  94) = (   0.3749955   0.7938424   0.1005907  )
        95           I   tau(  95) = (   0.3750007   0.7938378   0.4921034  )
        96           I   tau(  96) = (   0.1250086   0.2164870   0.7830203  )

   Crystallographic axes

     site n.     atom                  positions (cryst. coord.)
         1           Pb  tau(   1) = (  0.2499949  0.2499829  0.4999935  )
         2           Pb  tau(   2) = (  0.2499959  0.4999764  0.9999882  )
         3           Pb  tau(   3) = (  0.2499933  0.4999817  0.4999882  )
         4           Pb  tau(   4) = (  0.2499944  0.7499751  0.9999828  )
         5           Pb  tau(   5) = (  0.2499918  0.7499804  0.4999828  )
         6           Pb  tau(   6) = (  0.2499928  0.9999739  0.9999774  )
         7           Pb  tau(   7) = (  0.2499903  0.9999792  0.4999774  )
         8           Pb  tau(   8) = (  0.4999968  0.2499764  0.9999978  )
         9           Pb  tau(   9) = (  0.4999943  0.2499817  0.4999978  )
        10           Pb  tau(  10) = (  0.4999953  0.4999752  0.9999924  )
        11           Pb  tau(  11) = (  0.4999927  0.4999805  0.4999924  )
        12           Pb  tau(  12) = (  0.4999938  0.7499739  0.9999871  )
        13           Pb  tau(  13) = (  0.4999912  0.7499792  0.4999871  )
        14           Pb  tau(  14) = (  0.4999922  0.9999727  0.9999817  )
        15           Pb  tau(  15) = (  0.4999896  0.9999780  0.4999817  )
        16           Pb  tau(  16) = (  0.7499962  0.2499752  1.0000021  )
        17           Pb  tau(  17) = (  0.7499936  0.2499805  0.5000021  )
        18           Pb  tau(  18) = (  0.7499947  0.4999739  0.9999967  )
        19           Pb  tau(  19) = (  0.7499921  0.4999793  0.4999967  )
        20           Pb  tau(  20) = (  0.7499932  0.7499727  0.9999913  )
        21           Pb  tau(  21) = (  0.7499906  0.7499780  0.4999913  )
        22           Pb  tau(  22) = (  0.7499916  0.9999714  0.9999860  )
        23           Pb  tau(  23) = (  0.7499890  0.9999767  0.4999860  )
        24           Pb  tau(  24) = (  0.9999956  0.2499740  1.0000064  )
        25           Pb  tau(  25) = (  0.9999930  0.2499793  0.5000064  )
        26           Pb  tau(  26) = (  0.9999941  0.4999727  1.0000010  )
        27           Pb  tau(  27) = (  0.9999915  0.4999780  0.5000010  )
        28           Pb  tau(  28) = (  0.9999926  0.7499715  0.9999956  )
        29           Pb  tau(  29) = (  0.9999900  0.7499768  0.4999956  )
        30           Pb  tau(  30) = (  0.9999910  0.9999702  0.9999902  )
        31           Pb  tau(  31) = (  0.9999884  0.9999755  0.4999902  )
        32           I   tau(  32) = (  0.1666641  0.0833170  0.3715286  )
        33           I   tau(  33) = (  0.1666667  0.0833117  0.8715286  )
        34           I   tau(  34) = (  0.1666625  0.3333157  0.3715233  )
        35           I   tau(  35) = (  0.1666651  0.3333104  0.8715233  )
        36           I   tau(  36) = (  0.1666610  0.5833145  0.3715179  )
        37           I   tau(  37) = (  0.1666636  0.5833092  0.8715179  )
        38           I   tau(  38) = (  0.1666595  0.8333132  0.3715125  )
        39           I   tau(  39) = (  0.1666621  0.8333079  0.8715125  )
        40           I   tau(  40) = (  0.4166635  0.0833158  0.3715329  )
        41           I   tau(  41) = (  0.4166661  0.0833105  0.8715329  )
        42           I   tau(  42) = (  0.4166619  0.3333145  0.3715275  )
        43           I   tau(  43) = (  0.4166645  0.3333092  0.8715275  )
        44           I   tau(  44) = (  0.4166604  0.5833133  0.3715222  )
        45           I   tau(  45) = (  0.4166630  0.5833080  0.8715221  )
        46           I   tau(  46) = (  0.4166589  0.8333120  0.3715168  )
        47           I   tau(  47) = (  0.4166614  0.8333067  0.8715168  )
        48           I   tau(  48) = (  0.6666629  0.0833146  0.3715372  )
        49           I   tau(  49) = (  0.6666655  0.0833093  0.8715372  )
        50           I   tau(  50) = (  0.6666613  0.3333133  0.3715318  )
        51           I   tau(  51) = (  0.6666639  0.3333080  0.8715318  )
        52           I   tau(  52) = (  0.6666598  0.5833121  0.3715264  )
        53           I   tau(  53) = (  0.6666624  0.5833068  0.8715264  )
        54           I   tau(  54) = (  0.6666582  0.8333108  0.3715210  )
        55           I   tau(  55) = (  0.6666608  0.8333055  0.8715210  )
        56           I   tau(  56) = (  0.9166623  0.0833134  0.3715414  )
        57           I   tau(  57) = (  0.9166648  0.0833080  0.8715414  )
        58           I   tau(  58) = (  0.9166607  0.3333121  0.3715361  )
        59           I   tau(  59) = (  0.9166633  0.3333068  0.8715361  )
        60           I   tau(  60) = (  0.9166592  0.5833108  0.3715307  )
        61           I   tau(  61) = (  0.9166618  0.5833055  0.8715307  )
        62           I   tau(  62) = (  0.9166576  0.8333096  0.3715253  )
        63           I   tau(  63) = (  0.9166602  0.8333043  0.8715253  )
        64           I   tau(  64) = (  0.0833270  0.1666576  0.1284675  )
        65           I   tau(  65) = (  0.0833296  0.1666523  0.6284675  )
        66           I   tau(  66) = (  0.0833255  0.4166564  0.1284621  )
        67           I   tau(  67) = (  0.0833281  0.4166511  0.6284621  )
        68           I   tau(  68) = (  0.0833239  0.6666551  0.1284567  )
        69           I   tau(  69) = (  0.0833265  0.6666498  0.6284567  )
        70           I   tau(  70) = (  0.0833224  0.9166539  0.1284513  )
        71           I   tau(  71) = (  0.0833250  0.9166486  0.6284513  )
        72           I   tau(  72) = (  0.3333264  0.1666564  0.1284717  )
        73           I   tau(  73) = (  0.3333290  0.1666511  0.6284717  )
        74           I   tau(  74) = (  0.3333249  0.4166552  0.1284664  )
        75           I   tau(  75) = (  0.3333275  0.4166499  0.6284663  )
        76           I   tau(  76) = (  0.3333233  0.6666539  0.1284610  )
        77           I   tau(  77) = (  0.3333259  0.6666486  0.6284610  )
        78           I   tau(  78) = (  0.3333218  0.9166527  0.1284556  )
        79           I   tau(  79) = (  0.3333244  0.9166473  0.6284556  )
        80           I   tau(  80) = (  0.5833258  0.1666552  0.1284760  )
        81           I   tau(  81) = (  0.5833284  0.1666499  0.6284760  )
        82           I   tau(  82) = (  0.5833243  0.4166539  0.1284706  )
        83           I   tau(  83) = (  0.5833269  0.4166486  0.6284706  )
        84           I   tau(  84) = (  0.5833227  0.6666527  0.1284652  )
        85           I   tau(  85) = (  0.5833253  0.6666474  0.6284652  )
        86           I   tau(  86) = (  0.5833212  0.9166514  0.1284599  )
        87           I   tau(  87) = (  0.5833238  0.9166461  0.6284599  )
        88           I   tau(  88) = (  0.8333252  0.1666540  0.1284803  )
        89           I   tau(  89) = (  0.8333278  0.1666487  0.6284803  )
        90           I   tau(  90) = (  0.8333237  0.4166527  0.1284749  )
        91           I   tau(  91) = (  0.8333262  0.4166474  0.6284749  )
        92           I   tau(  92) = (  0.8333221  0.6666515  0.1284695  )
        93           I   tau(  93) = (  0.8333247  0.6666462  0.6284695  )
        94           I   tau(  94) = (  0.8333206  0.9166502  0.1284641  )
        95           I   tau(  95) = (  0.8333232  0.9166449  0.6284641  )
        96           I   tau(  96) = (  0.2499975  0.2499776  0.9999935  )

     number of k points=     1  Gaussian smearing, width (Ry)=  0.0100
                       cart. coord. in units 2pi/alat
        k(    1) = (   0.0000000   0.0000000   0.0000000), wk =   2.0000000

                       cryst. coord.
        k(    1) = (   0.0000000   0.0000000   0.0000000), wk =   2.0000000

     Dense  grid:  3385235 G-vectors     FFT dimensions: ( 216, 216, 180)

     Smooth grid:  2422379 G-vectors     FFT dimensions: ( 192, 192, 150)

     Dynamical RAM for                 wfc:      33.31 MB

     Dynamical RAM for     wfc (w. buffer):      33.31 MB

     Dynamical RAM for           str. fact:       0.81 MB

     Dynamical RAM for           local pot:       0.00 MB

     Dynamical RAM for          nlocal pot:      62.36 MB

     Dynamical RAM for                qrad:       3.00 MB

     Dynamical RAM for          rho,v,vnew:       3.35 MB

     Dynamical RAM for               rhoin:       1.12 MB

     Dynamical RAM for            rho*nmix:       6.46 MB

     Dynamical RAM for           G-vectors:       1.66 MB

     Dynamical RAM for          h,s,v(r/c):     623.97 MB

     Dynamical RAM for          <psi|beta>:      24.34 MB

     Dynamical RAM for                 psi:     133.23 MB

     Dynamical RAM for                hpsi:     133.23 MB

     Dynamical RAM for                spsi:     133.23 MB

     Dynamical RAM for      wfcinit/wfcrot:      86.12 MB

     Dynamical RAM for           addusdens:     101.31 MB

     Dynamical RAM for          addusforce:     153.42 MB

     Dynamical RAM for         addusstress:      81.13 MB

     Estimated static dynamical RAM per process >     110.37 MB

     Estimated max dynamical RAM per process >       1.14 GB

     Estimated total dynamical RAM >     145.60 GB

     Atomic positions and unit cell read from directory:
     ./PbI2.save/
     Atomic positions from file used, from input discarded
 

     Check: negative core charge=   -0.000001

     The initial density is read from file :
     ./PbI2.save/charge-density



     %%%%%%%%%%%%%%%%%%%%%%%%%%%%%%%%%%%%%%%%%%%%%%%%%%%%%%%%%%%%%%%%%%%%%%%%
     %                                                                      %
     % You are using vdW-DF, which was implemented by the Thonhauser group. %
     % Please cite the following two papers that made this development      %
     % possible and the two reviews that describe the various versions:     %
     %                                                                      %
     %   T. Thonhauser et al., PRL 115, 136402 (2015).                      %
     %   T. Thonhauser et al., PRB 76, 125112 (2007).                       %
     %   K. Berland et al., Rep. Prog. Phys. 78, 066501 (2015).             %
     %   D.C. Langreth et al., J. Phys.: Condens. Matter 21, 084203 (2009). %
     %                                                                      %
     % If you are calculating stress with vdW-DF, please also cite:         %
     %                                                                      %
     %   R. Sabatini et al., J. Phys.: Condens. Matter 24, 424209 (2012).   %
     %                                                                      %
     %%%%%%%%%%%%%%%%%%%%%%%%%%%%%%%%%%%%%%%%%%%%%%%%%%%%%%%%%%%%%%%%%%%%%%%%

     %%%%%%%%%%%%%%%%%%%%%%%%%%%%%%%%%%%%%%%%%%%%%%%%%%%%%%%%%%%%%%%%%%%%%%%%
     %                                                                      %
     %  vdW-DF NEWS:                                                        %
     %                                                                      %
     %  * vdW-DF3 is now available. DOI: 10.1021/acs.jctc.0c00471           %
     %    use with input_dft = 'vdW-DF3-opt1' or 'vdW-DF3-opt2'             %
     %                                                                      %
     %  * Unscreened and range-separated vdW-DF hybrid functionals          %
     %    DOI: 10.1063/1.4986522 and 10.1088/1361-648X/ac2ad2               %
     %    use with input_dft = 'vdW-DF-cx0' (etc) and 'vdW-DF-ahcx'         %
     %                                                                      %
     %%%%%%%%%%%%%%%%%%%%%%%%%%%%%%%%%%%%%%%%%%%%%%%%%%%%%%%%%%%%%%%%%%%%%%%%


     Carrying out vdW-DF run using the following parameters:
     Nqs    =  20  Npoints =  1024  r_max =  100.000
     q_mesh =  0.00001000  0.04494208  0.09755937  0.15916263
               0.23128650  0.31572767  0.41458969  0.53033537
               0.66584808  0.82450364  1.01025438  1.22772762
               1.48234092  1.78043706  2.12944203  2.53805004
               3.01644009  3.57652955  4.23227104  5.00000000


     -----------------------------------------------
     Non-local corr. energy    =      46.32978393 Ry
     -----------------------------------------------

     Starting wfcs from file
     Checking if some PAW data can be deallocated... 
       PAW data deallocated on   66 nodes for type:  1
       PAW data deallocated on   62 nodes for type:  2

     total cpu time spent up to now is       20.1 secs

     Self-consistent Calculation

     iteration #  1     ecut=    70.00 Ry     beta= 0.70
     Davidson diagonalization with overlap

---- Real-time Memory Report at c_bands before calling an iterative solver
           354 MiB given to the printing process from OS
             0 MiB allocation reported by mallinfo(arena+hblkhd)
       1870511 MiB available memory on the node where the printing process lives
------------------
     ethr =  1.00E-05,  avg # of iterations =  1.0

     Threshold (ethr) on eigenvalues was too large:
     Diagonalizing with lowered threshold

     Davidson diagonalization with overlap

---- Real-time Memory Report at c_bands before calling an iterative solver
           941 MiB given to the printing process from OS
             0 MiB allocation reported by mallinfo(arena+hblkhd)
       1858811 MiB available memory on the node where the printing process lives
------------------
     ethr =  9.89E-12,  avg # of iterations = 16.0


     -----------------------------------------------
     Non-local corr. energy    =      46.32978424 Ry
     -----------------------------------------------


     total cpu time spent up to now is      177.5 secs

     total energy              =  -64423.81075690 Ry
     estimated scf accuracy    <       0.00000016 Ry

     iteration #  2     ecut=    70.00 Ry     beta= 0.70
     Davidson diagonalization with overlap

---- Real-time Memory Report at c_bands before calling an iterative solver
           973 MiB given to the printing process from OS
             0 MiB allocation reported by mallinfo(arena+hblkhd)
       1861842 MiB available memory on the node where the printing process lives
------------------
     c_bands:  1 eigenvalues not converged
     ethr =  1.01E-11,  avg # of iterations = 20.0


     -----------------------------------------------
     Non-local corr. energy    =      46.32978437 Ry
     -----------------------------------------------


     total cpu time spent up to now is      511.0 secs

     total energy              =  -64423.81075624 Ry
     estimated scf accuracy    <       0.00001254 Ry

     iteration #  3     ecut=    70.00 Ry     beta= 0.70
     Davidson diagonalization with overlap

---- Real-time Memory Report at c_bands before calling an iterative solver
          1214 MiB given to the printing process from OS
             0 MiB allocation reported by mallinfo(arena+hblkhd)
       1861492 MiB available memory on the node where the printing process lives
------------------
     c_bands:  1 eigenvalues not converged
     ethr =  1.01E-11,  avg # of iterations = 20.0


     -----------------------------------------------
     Non-local corr. energy    =      46.32978373 Ry
     -----------------------------------------------


     total cpu time spent up to now is      829.3 secs

     End of self-consistent calculation

          k = 0.0000 0.0000 0.0000 (302703 PWs)   bands (ev):

   -43.6248 -43.6229 -43.6188 -43.6158 -43.6097 -41.5000 -41.5000 -41.4818
   -41.4817 -41.4798 -41.4798 -41.4550 -41.4550 -41.4518 -41.4517 -41.4375
   -41.4375 -41.4357 -41.4356 -41.4344 -41.4344 -41.4326 -41.4325 -41.3107
   -41.3106 -41.3103 -41.3103 -41.2959 -41.2959 -41.2955 -41.2954 -41.2943
   -41.2943 -41.2939 -41.2939 -40.9419 -40.9419 -40.9418 -40.9418 -40.9400
   -40.9400 -40.9397 -40.9397 -40.9389 -40.9389 -40.9386 -40.9386 -40.9375
   -40.9375 -40.9375 -40.9374 -40.9357 -40.9357 -40.9354 -40.9354 -40.9346
   -40.9346 -40.9343 -40.9343 -40.9307 -40.9307 -40.9307 -40.9306 -40.9289
   -40.9289 -40.9286 -40.9286 -40.9279 -40.9278 -40.9276 -40.9276 -40.9144
   -40.9144 -40.9144 -40.9144 -40.9143 -40.9143 -40.9142 -40.9142 -40.9129
   -40.9129 -40.9127 -40.9127 -40.9127 -40.9127 -40.9125 -40.9125 -40.9119
   -40.9119 -40.9117 -40.9117 -40.9117 -40.9116 -40.9115 -40.9115 -40.8653
   -40.8650 -40.8650 -40.8649 -40.8647 -40.8647 -40.8646 -40.8644 -40.8643
   -40.8643 -40.8641 -40.8639 -40.8616 -40.8613 -40.8613 -40.8612 -40.8612
   -40.8611 -40.8609 -40.8609 -40.8609 -40.8608 -40.8607 -40.8606 -40.8604
   -40.8604 -40.8604 -40.8603 -40.8601 -40.8600 -40.8325 -40.8323 -40.8321
   -40.8321 -40.8320 -40.8319 -40.8315 -40.8312 -40.8311 -40.8310 -40.8309
   -40.8309 -40.8288 -40.8286 -40.8284 -40.8283 -40.8282 -40.8281 -40.8241
   -40.8239 -40.8238 -40.8237 -40.8236 -40.8235 -40.8234 -40.8232 -40.8231
   -40.8231 -40.8229 -40.8229 -40.8059 -40.8058 -40.8058 -40.8056 -40.8055
   -40.8055 -40.8044 -40.8044 -40.8041 -40.8041 -40.6953 -40.6953 -40.6950
   -40.6950 -40.6949 -40.6946 -40.6945 -40.6945 -40.6943 -40.6943 -40.6870
   -40.6869 -40.6869 -40.6869 -40.6866 -40.6866 -40.6835 -40.6834 -40.6834
   -40.6834 -40.6834 -40.6833 -40.6833 -40.6833 -40.6831 -40.6831 -40.6830
   -40.6830 -40.6731 -40.6730 -40.6730 -40.6730 -40.6728 -40.6727 -40.6727
   -40.6726 -40.6726 -40.6726 -40.6724 -40.6723 -40.6483 -40.6483 -40.6482
   -40.6482 -40.6481 -40.6480 -40.6477 -40.6476 -40.6476 -40.6475 -40.6475
   -40.6474 -40.6473 -40.6473 -40.6473 -40.6472 -40.6472 -40.6470 -40.6470
   -40.6470 -40.6470 -40.6469 -40.6469 -40.6469 -40.6469 -40.6468 -40.6468
   -40.6468 -40.6466 -40.6466 -40.6363 -40.6363 -40.6363 -40.6362 -40.6362
   -40.6362 -40.6361 -40.6361 -40.6360 -40.6360 -40.6360 -40.6360 -40.6359
   -40.6359 -40.6359 -40.6358 -40.6357 -40.6357 -40.6357 -40.6357 -40.6357
   -40.6357 -40.6356 -40.6356 -40.6354 -40.6354 -40.6353 -40.6353 -40.6352
   -40.6352 -40.6352 -40.6352 -40.6352 -40.6352 -40.6352 -40.6351 -40.6351
   -40.6351 -40.6351 -40.6351 -40.6350 -40.6350 -40.6344 -40.6343 -40.6343
   -40.6343 -40.6343 -40.6343 -40.6343 -40.6342 -40.6342 -40.6342 -40.6342
   -40.6341 -40.6341 -40.6341 -40.6341 -40.6341 -40.6341 -40.6341 -40.6341
   -40.6340 -40.6340 -40.6340 -40.6340 -40.6340 -40.6340 -40.6339 -40.6339
   -40.6339 -40.6339 -40.6339 -40.6339 -40.6339 -40.6338 -40.6338 -40.6338
   -40.6338 -40.6338 -40.6338 -40.6338 -40.6338 -40.6337 -40.6337 -40.6337
   -40.6337 -40.6337 -40.6337 -40.6336 -40.6336 -13.0838 -13.0835 -13.0825
   -13.0798 -13.0782 -13.0778 -13.0719 -13.0686 -13.0673 -13.0662 -13.0656
   -13.0655 -13.0650 -13.0632 -13.0626 -13.0626 -13.0610 -13.0580 -13.0549
   -13.0547 -13.0538 -13.0537 -13.0534 -13.0533 -13.0513 -13.0511 -13.0498
   -13.0495 -13.0493 -13.0492 -13.0269 -13.0267 -13.0253 -13.0231 -13.0226
   -13.0210 -13.0130 -13.0129 -13.0114 -13.0094 -13.0090 -13.0082 -13.0076
   -13.0075 -13.0064 -12.9874 -12.9873 -12.9863 -12.9849 -12.9848 -12.9848
   -12.9786 -12.9778 -12.9738 -12.9737 -12.9735 -12.9734 -12.9707 -12.9699
   -12.9696 -12.9695 -12.9687 -12.9686 -12.9683 -12.9680 -12.9665 -12.9665
   -12.9662 -12.9662 -12.9626 -12.9625 -12.9622 -12.9622 -12.9611 -12.9607
   -12.8168 -12.8134 -12.8082 -12.8081 -12.8071 -12.8071 -12.8031 -12.8030
   -12.8028 -12.8027 -12.7991 -12.7986 -12.7983 -12.7983 -12.7972 -12.7954
   -12.7941 -12.7940 -12.7930 -12.7920 -12.7919 -12.7915 -12.7911 -12.7910
   -12.7886 -12.7885 -12.7884 -12.7883 -12.7877 -12.7875 -12.7875 -12.7864
   -12.7860 -12.7858 -12.7857 -12.7856 -12.7849 -12.7849 -12.7847 -12.7837
   -12.7835 -12.7831 -12.7813 -12.7813 -12.7812 -12.7801 -12.7800 -12.7798
   -12.7797 -12.7797 -12.7785 -12.7765 -12.7764 -12.7760 -12.7758 -12.7757
   -12.7756 -12.7755 -12.7748 -12.7748 -12.7740 -12.7735 -12.7709 -12.7685
   -12.7685 -12.7684 -12.7675 -12.7675 -12.7672 -12.7658 -12.7658 -12.7564
   -12.7563 -12.7559 -12.7546 -12.7540 -12.7540 -12.7536 -12.7535 -12.7535
   -10.1439  -8.1569  -8.1502  -8.1412  -8.0777  -8.0372  -8.0323  -7.9689
    -7.9653  -7.9489  -7.9233  -7.9014  -7.8990  -7.8674  -7.7844  -7.7397
    -7.7349  -7.7343  -7.7328  -7.7327  -7.7252  -7.7248  -7.7231  -7.7231
    -7.7150  -7.6932  -7.6919  -7.6653  -7.6650  -7.6588  -7.6419  -7.6416
    -7.6295  -7.6172  -7.6060  -7.6060  -7.5827  -7.5821  -7.5619  -7.5548
    -7.5058  -7.5049  -7.4940  -7.4938  -7.4881  -7.4881  -7.4783  -7.4773
    -7.4648  -7.4647  -7.4205  -7.4204  -7.4195  -7.4133  -7.4085  -7.4085
    -7.3905  -7.3692  -7.3691  -7.3683  -7.3626  -7.3625  -7.3507  -7.3506
    -7.3449  -3.7575  -3.7564  -3.7374  -3.7176  -3.7168  -3.7059  -3.6929
    -3.6926  -3.6131  -3.4953  -3.4952  -3.4913  -3.4843  -3.4843  -3.4809
    -3.4805  -3.4795  -3.4787  -3.4786  -3.4778  -3.4542  -3.4535  -3.4138
    -3.2595  -3.2364  -3.2364  -3.2294  -3.2186  -3.2185  -3.2180  -3.0094
    -0.3984  -0.3820  -0.3784   0.8852   0.8854   0.9078   1.1467   1.1477
     1.1485   1.1719   1.1720   1.1863   1.2064   1.2066   1.2811   1.2830
     1.3049   1.3218   1.3227   1.3945   1.3946   1.4185   1.4451   1.4456
     1.4515   1.4522   1.4523   1.4600   1.4699   1.4701   1.5652   1.5655
     1.5656   1.5688   1.5688   1.5789   1.5872   1.6704   1.6716   1.6721
     1.6725   1.6911   1.6912   1.6945   1.7032   1.7345   1.7356   1.7402
     1.7409   1.7559   1.7560   1.8218   1.8226   1.8324   1.9231   1.9957
     1.9964   1.9990   2.0020   2.0023   2.0347   2.0352   2.0656   2.0916
     2.0984   2.0986   2.1079   2.1080   2.1100   2.1162   2.1178   2.1202
     2.1323   2.1323   2.1479   2.1617   2.1640   2.1849   2.1863   2.1952
     2.1954   2.1978   2.2474   2.2484   2.2986   2.3236   2.3240   2.3258
     2.3277   2.3495   2.3498   2.3802   2.3854   2.3869   2.4134   2.4134
     2.4193   2.4194   2.4236   2.4278   2.4544   2.4703   2.4825   2.4826
     2.5227   2.5229   2.5395   2.5579   2.5586   2.5862   2.5880   2.5894
     2.5896   2.5977   2.6588   2.6594   2.6654   2.6773   2.6791   2.7028
     2.7124   2.7277   2.7690   2.7693   2.7890   2.7907   2.8001   2.8005
     2.8205   2.8210   2.8495   2.8500   2.8517   2.8519   2.8607   2.8688
     2.8693   2.8694   2.9098   2.9455   2.9456   2.9666   2.9666   2.9783
     2.9845   2.9934   2.9936   2.9987   2.9989   3.0123   3.0124   3.0250
     3.0260   3.0288   3.0486   3.0533   3.0534   3.0769   3.0773   3.0774
     3.0843   3.0843   3.0917   3.0928   3.0928   3.1000   3.1422   3.1431
     3.1592   3.1596   3.1654   3.1660   3.1869   3.1950   3.1952   3.2136
     3.2399   3.2402   3.2440   3.4042   3.4143   3.4321   3.4322   3.4329
     3.4330   3.4467   3.4543   3.4601   3.4601   3.4676   3.4677   3.4834
     3.7865   3.7881   3.7934   5.9687   6.2170   6.4489   6.4733   6.4737
     6.5038   6.5040   6.5360   6.5622   6.5626   6.6461   6.7436   6.7445
     6.7520   6.7562   6.7564   6.7725   6.7726   6.8194   6.8919   6.9171
     6.9176   6.9203   6.9204   6.9585   6.9965   6.9965   6.9966   7.0333
     7.0333   7.0406   7.0795   7.0799   7.1298   7.1300   7.1303   7.1886
     7.1943   7.1948   7.1963   7.2335   7.2340   7.2377   7.2378   7.2627
     7.2642   7.2644   7.2686   7.3241   7.3397   7.3399   7.3446   7.3667
     7.3668   7.3723   7.4084   7.4090   7.4092   7.4193   7.4219   7.4223
     7.4367   7.4370   7.4809   7.4811   7.4849   7.4999   7.5034   7.5037
     7.5214   7.5257   7.5258   7.5263   7.5311   7.5332   7.5334   7.5453
     7.5459   7.5473   7.5875   7.5876   7.6100   7.6101   7.6342   7.7851
     7.7854   7.7875   7.8022   7.8130   7.8130   8.0519   8.0584   8.0585
     9.1243   9.1322   9.1323   9.6363   9.6370   9.6778   9.8117   9.8118
     9.8210   9.8285   9.8421   9.8682   9.8685  10.0107  10.0491  10.0494
    10.0634  10.0725  10.0731  10.0919  10.0920  10.0921  10.0959  10.0960
    10.1096  10.2699  10.2700  10.3047  10.3065  10.3231  10.3563  10.4240
    10.5166  10.5243  10.5245  10.5317  10.5318  10.5417  10.7344  10.7354
    10.7374  10.7906  10.8253  10.8253  10.8577  10.9132  10.9139  10.9487
    10.9488  10.9532  11.0819  11.1307  11.1311  11.1351  11.1370  11.2137
    11.2143  11.2188  11.2213

     occupation numbers 
     1.0000   1.0000   1.0000   1.0000   1.0000   1.0000   1.0000   1.0000
     1.0000   1.0000   1.0000   1.0000   1.0000   1.0000   1.0000   1.0000
     1.0000   1.0000   1.0000   1.0000   1.0000   1.0000   1.0000   1.0000
     1.0000   1.0000   1.0000   1.0000   1.0000   1.0000   1.0000   1.0000
     1.0000   1.0000   1.0000   1.0000   1.0000   1.0000   1.0000   1.0000
     1.0000   1.0000   1.0000   1.0000   1.0000   1.0000   1.0000   1.0000
     1.0000   1.0000   1.0000   1.0000   1.0000   1.0000   1.0000   1.0000
     1.0000   1.0000   1.0000   1.0000   1.0000   1.0000   1.0000   1.0000
     1.0000   1.0000   1.0000   1.0000   1.0000   1.0000   1.0000   1.0000
     1.0000   1.0000   1.0000   1.0000   1.0000   1.0000   1.0000   1.0000
     1.0000   1.0000   1.0000   1.0000   1.0000   1.0000   1.0000   1.0000
     1.0000   1.0000   1.0000   1.0000   1.0000   1.0000   1.0000   1.0000
     1.0000   1.0000   1.0000   1.0000   1.0000   1.0000   1.0000   1.0000
     1.0000   1.0000   1.0000   1.0000   1.0000   1.0000   1.0000   1.0000
     1.0000   1.0000   1.0000   1.0000   1.0000   1.0000   1.0000   1.0000
     1.0000   1.0000   1.0000   1.0000   1.0000   1.0000   1.0000   1.0000
     1.0000   1.0000   1.0000   1.0000   1.0000   1.0000   1.0000   1.0000
     1.0000   1.0000   1.0000   1.0000   1.0000   1.0000   1.0000   1.0000
     1.0000   1.0000   1.0000   1.0000   1.0000   1.0000   1.0000   1.0000
     1.0000   1.0000   1.0000   1.0000   1.0000   1.0000   1.0000   1.0000
     1.0000   1.0000   1.0000   1.0000   1.0000   1.0000   1.0000   1.0000
     1.0000   1.0000   1.0000   1.0000   1.0000   1.0000   1.0000   1.0000
     1.0000   1.0000   1.0000   1.0000   1.0000   1.0000   1.0000   1.0000
     1.0000   1.0000   1.0000   1.0000   1.0000   1.0000   1.0000   1.0000
     1.0000   1.0000   1.0000   1.0000   1.0000   1.0000   1.0000   1.0000
     1.0000   1.0000   1.0000   1.0000   1.0000   1.0000   1.0000   1.0000
     1.0000   1.0000   1.0000   1.0000   1.0000   1.0000   1.0000   1.0000
     1.0000   1.0000   1.0000   1.0000   1.0000   1.0000   1.0000   1.0000
     1.0000   1.0000   1.0000   1.0000   1.0000   1.0000   1.0000   1.0000
     1.0000   1.0000   1.0000   1.0000   1.0000   1.0000   1.0000   1.0000
     1.0000   1.0000   1.0000   1.0000   1.0000   1.0000   1.0000   1.0000
     1.0000   1.0000   1.0000   1.0000   1.0000   1.0000   1.0000   1.0000
     1.0000   1.0000   1.0000   1.0000   1.0000   1.0000   1.0000   1.0000
     1.0000   1.0000   1.0000   1.0000   1.0000   1.0000   1.0000   1.0000
     1.0000   1.0000   1.0000   1.0000   1.0000   1.0000   1.0000   1.0000
     1.0000   1.0000   1.0000   1.0000   1.0000   1.0000   1.0000   1.0000
     1.0000   1.0000   1.0000   1.0000   1.0000   1.0000   1.0000   1.0000
     1.0000   1.0000   1.0000   1.0000   1.0000   1.0000   1.0000   1.0000
     1.0000   1.0000   1.0000   1.0000   1.0000   1.0000   1.0000   1.0000
     1.0000   1.0000   1.0000   1.0000   1.0000   1.0000   1.0000   1.0000
     1.0000   1.0000   1.0000   1.0000   1.0000   1.0000   1.0000   1.0000
     1.0000   1.0000   1.0000   1.0000   1.0000   1.0000   1.0000   1.0000
     1.0000   1.0000   1.0000   1.0000   1.0000   1.0000   1.0000   1.0000
     1.0000   1.0000   1.0000   1.0000   1.0000   1.0000   1.0000   1.0000
     1.0000   1.0000   1.0000   1.0000   1.0000   1.0000   1.0000   1.0000
     1.0000   1.0000   1.0000   1.0000   1.0000   1.0000   1.0000   1.0000
     1.0000   1.0000   1.0000   1.0000   1.0000   1.0000   1.0000   1.0000
     1.0000   1.0000   1.0000   1.0000   1.0000   1.0000   1.0000   1.0000
     1.0000   1.0000   1.0000   1.0000   1.0000   1.0000   1.0000   1.0000
     1.0000   1.0000   1.0000   1.0000   1.0000   1.0000   1.0000   1.0000
     1.0000   1.0000   1.0000   1.0000   1.0000   1.0000   1.0000   1.0000
     1.0000   1.0000   1.0000   1.0000   1.0000   1.0000   1.0000   1.0000
     1.0000   1.0000   1.0000   1.0000   1.0000   1.0000   1.0000   1.0000
     1.0000   1.0000   1.0000   1.0000   1.0000   1.0000   1.0000   1.0000
     1.0000   1.0000   1.0000   1.0000   1.0000   1.0000   1.0000   1.0000
     1.0000   1.0000   1.0000   1.0000   1.0000   1.0000   1.0000   1.0000
     1.0000   1.0000   1.0000   1.0000   1.0000   1.0000   1.0000   1.0000
     1.0000   1.0000   1.0000   1.0000   1.0000   1.0000   1.0000   1.0000
     1.0000   1.0000   1.0000   1.0000   1.0000   1.0000   1.0000   1.0000
     1.0000   1.0000   1.0000   1.0000   1.0000   1.0000   1.0000   1.0000
     1.0000   1.0000   1.0000   1.0000   1.0000   1.0000   1.0000   1.0000
     1.0000   1.0000   1.0000   1.0000   1.0000   1.0000   1.0000   1.0000
     1.0000   1.0000   1.0000   1.0000   1.0000   1.0000   1.0000   1.0000
     1.0000   1.0000   1.0000   1.0000   1.0000   1.0000   1.0000   1.0000
     1.0000   1.0000   1.0000   1.0000   1.0000   1.0000   1.0000   1.0000
     1.0000   1.0000   1.0000   1.0000   1.0000   1.0000   1.0000   1.0000
     1.0000   1.0000   1.0000   1.0000   1.0000   1.0000   1.0000   1.0000
     1.0000   1.0000   1.0000   1.0000   1.0000   1.0000   1.0000   1.0000
     1.0000   1.0000   1.0000   1.0000   1.0000   1.0000   1.0000   1.0000
     1.0000   1.0000   1.0000   1.0000   1.0000   1.0000   1.0000   1.0000
     1.0000   1.0000   1.0000   1.0000   1.0000   1.0000   1.0000   1.0000
     1.0000   1.0000   1.0000   1.0000   1.0000   1.0000   1.0000   1.0000
     1.0000   1.0000   1.0000   1.0000   1.0000   1.0000   1.0000   1.0000
     1.0000   1.0000   1.0000   1.0000   1.0000   1.0000   1.0000   1.0000
     1.0000   1.0000   1.0000   1.0000   1.0000   1.0000   1.0000   1.0000
     1.0000   1.0000   1.0000   1.0000   1.0000   1.0000   1.0000   1.0000
     1.0000   1.0000   1.0000   1.0000   1.0000   1.0000   1.0000   1.0000
     1.0000   1.0000   1.0000   1.0000   1.0000   1.0000   1.0000   1.0000
     1.0000   1.0000   1.0000   1.0000   1.0000   1.0000   1.0000   1.0000
     1.0000   1.0000   1.0000   1.0000   1.0000   1.0000   1.0000   1.0000
     1.0000   1.0000   1.0000   1.0000   1.0000   1.0000   1.0000   1.0000
     1.0000   1.0000   1.0000   1.0000   1.0000   1.0000   1.0000   1.0000
     1.0000   1.0000   1.0000   1.0000   1.0000   1.0000   1.0000   1.0000
     1.0000   1.0000   1.0000   1.0000   1.0000   1.0000   1.0000   1.0000
     1.0000   1.0000   1.0000   1.0000   1.0000   1.0000   1.0000   1.0000
     1.0000   1.0000   1.0000   1.0000   1.0000   1.0000   1.0000   1.0000
     1.0000   1.0000   1.0000   1.0000   1.0000   1.0000   1.0000   1.0000
     1.0000   1.0000   1.0000   1.0000   1.0000   1.0000   1.0000   1.0000
     1.0000   1.0000   1.0000   1.0000   1.0000   1.0000   1.0000   1.0000
     1.0000   1.0000   1.0000   1.0000   1.0000   1.0000   1.0000   1.0000
     1.0000   1.0000   1.0000   1.0000   1.0000   1.0000   1.0000   1.0000
     1.0000   1.0000   1.0000   1.0000   1.0000   1.0000   1.0000   1.0000
     1.0000   1.0000   1.0000   1.0000   1.0000   1.0000   1.0000   1.0000
     1.0000   1.0000   1.0000   1.0000   1.0000   1.0000   1.0000   1.0000
     1.0000   1.0000   1.0000   0.9991   0.9987   0.9976   0.9976   0.9975
     0.9975   0.9962   0.9952   0.9943   0.9943   0.9929   0.9928   0.9889
     0.1936   0.1892   0.1747   0.0000   0.0000   0.0000   0.0000   0.0000
     0.0000   0.0000   0.0000   0.0000   0.0000   0.0000   0.0000   0.0000
     0.0000   0.0000   0.0000   0.0000   0.0000   0.0000   0.0000   0.0000
     0.0000   0.0000   0.0000   0.0000   0.0000   0.0000   0.0000   0.0000
     0.0000   0.0000   0.0000   0.0000   0.0000   0.0000   0.0000   0.0000
     0.0000   0.0000   0.0000   0.0000   0.0000   0.0000   0.0000   0.0000
     0.0000   0.0000   0.0000   0.0000   0.0000   0.0000   0.0000   0.0000
     0.0000   0.0000   0.0000   0.0000   0.0000   0.0000   0.0000   0.0000
     0.0000   0.0000   0.0000   0.0000   0.0000   0.0000   0.0000   0.0000
     0.0000   0.0000   0.0000   0.0000   0.0000   0.0000   0.0000   0.0000
     0.0000   0.0000   0.0000   0.0000   0.0000   0.0000   0.0000   0.0000
     0.0000   0.0000   0.0000   0.0000   0.0000   0.0000   0.0000   0.0000
     0.0000   0.0000   0.0000   0.0000   0.0000   0.0000   0.0000   0.0000
     0.0000   0.0000   0.0000   0.0000   0.0000   0.0000   0.0000   0.0000
     0.0000   0.0000   0.0000   0.0000   0.0000   0.0000   0.0000   0.0000
     0.0000   0.0000   0.0000   0.0000   0.0000   0.0000   0.0000   0.0000
     0.0000   0.0000   0.0000   0.0000   0.0000   0.0000   0.0000   0.0000
     0.0000   0.0000   0.0000   0.0000   0.0000   0.0000   0.0000   0.0000
     0.0000   0.0000   0.0000   0.0000   0.0000   0.0000   0.0000   0.0000
     0.0000   0.0000   0.0000

     the Fermi energy is     3.7034 ev

!    total energy              =  -64423.81075702 Ry
     total all-electron energy =  -2221425.957399 Ry
     estimated scf accuracy    <       0.00000002 Ry
     smearing contrib. (-TS)   =      -0.01368243 Ry
     internal energy E=F+TS    =  -64423.79707459 Ry

     The total energy is F=E-TS. E is the sum of the following terms:
     one-electron contribution =  -12027.64455475 Ry
     hartree contribution      =    6707.35988018 Ry
     xc contribution           =   -4555.13535931 Ry
     ewald contribution        =   -9921.72700348 Ry
     one-center paw contrib.   =  -44626.65003722 Ry
      -> PAW hartree energy AE =      95.83426360 Ry
      -> PAW hartree energy PS =     -96.07038558 Ry
      -> PAW xc energy AE      =    -798.42378906 Ry
      -> PAW xc energy PS      =      33.30429519 Ry
      -> total E_H with PAW    =    6707.12375820 Ry
      -> total E_XC with PAW   =   -5320.25485318 Ry

     convergence has been achieved in   3 iterations


     -----------------------------------------------
     Non-local corr. energy    =      46.32978373 Ry
     -----------------------------------------------


     Forces acting on atoms (cartesian axes, Ry/au):

     atom    1 type  1   force =     0.00000027    0.00000446    0.00000377
     atom    2 type  1   force =     0.00036163   -0.00050683    0.00007534
     atom    3 type  1   force =    -0.00016499    0.00026714    0.00000671
     atom    4 type  1   force =    -0.00000828   -0.00000474   -0.00000430
     atom    5 type  1   force =    -0.00000603   -0.00000460    0.00000064
     atom    6 type  1   force =    -0.00037023    0.00049596   -0.00008692
     atom    7 type  1   force =     0.00015895   -0.00027042   -0.00000091
     atom    8 type  1   force =    -0.00060821    0.00007077   -0.00007748
     atom    9 type  1   force =     0.00031467    0.00000238   -0.00000045
     atom   10 type  1   force =    -0.00034087   -0.00059786    0.00000040
     atom   11 type  1   force =     0.00016155    0.00027019    0.00000286
     atom   12 type  1   force =     0.00002027    0.00031196    0.00065293
     atom   13 type  1   force =    -0.00000550    0.00001921   -0.00041281
     atom   14 type  1   force =     0.00027024   -0.00015698    0.00065558
     atom   15 type  1   force =     0.00001863   -0.00000878   -0.00041531
     atom   16 type  1   force =    -0.00000096    0.00001307   -0.00000269
     atom   17 type  1   force =    -0.00000082    0.00001107    0.00000408
     atom   18 type  1   force =     0.00026643    0.00017649   -0.00066217
     atom   19 type  1   force =     0.00002580    0.00000839    0.00041962
     atom   20 type  1   force =     0.00000955   -0.00000650   -0.00000516
     atom   21 type  1   force =     0.00000754   -0.00000488    0.00000155
     atom   22 type  1   force =    -0.00025940   -0.00017334    0.00065385
     atom   23 type  1   force =    -0.00002070   -0.00000382   -0.00041263
     atom   24 type  1   force =     0.00060977   -0.00005470    0.00007139
     atom   25 type  1   force =    -0.00031440    0.00001263    0.00000757
     atom   26 type  1   force =    -0.00027948    0.00015997   -0.00066350
     atom   27 type  1   force =    -0.00002410    0.00001276    0.00042239
     atom   28 type  1   force =    -0.00002029   -0.00032313   -0.00066119
     atom   29 type  1   force =     0.00000446   -0.00002898    0.00041791
     atom   30 type  1   force =     0.00035266    0.00058826   -0.00001356
     atom   31 type  1   force =    -0.00015503   -0.00027530    0.00000290
     atom   32 type  2   force =    -0.00000306    0.00010024   -0.00006338
     atom   33 type  2   force =    -0.00000184   -0.00030912   -0.00011131
     atom   34 type  2   force =     0.00009634   -0.00005203   -0.00006438
     atom   35 type  2   force =     0.00037450   -0.00021684    0.00018083
     atom   36 type  2   force =     0.00001221   -0.00012703    0.00018374
     atom   37 type  2   force =    -0.00000365   -0.00005373    0.00034513
     atom   38 type  2   force =    -0.00011498    0.00006984    0.00018591
     atom   39 type  2   force =    -0.00004910    0.00002638    0.00033738
     atom   40 type  2   force =    -0.00042435    0.00024102    0.00036646
     atom   41 type  2   force =     0.00001348   -0.00001073    0.00013058
     atom   42 type  2   force =    -0.00009220   -0.00004500   -0.00006451
     atom   43 type  2   force =     0.00020262    0.00011801   -0.00008031
     atom   44 type  2   force =     0.00001127   -0.00045818    0.00037266
     atom   45 type  2   force =    -0.00000545    0.00002756    0.00012645
     atom   46 type  2   force =    -0.00017577   -0.00011508   -0.00049676
     atom   47 type  2   force =    -0.00004055   -0.00003230   -0.00004206
     atom   48 type  2   force =     0.00001032    0.00020745   -0.00049689
     atom   49 type  2   force =     0.00000715    0.00004929   -0.00003978
     atom   50 type  2   force =    -0.00011997    0.00006541    0.00018447
     atom   51 type  2   force =    -0.00004950    0.00002933    0.00033897
     atom   52 type  2   force =    -0.00001604   -0.00011708    0.00018933
     atom   53 type  2   force =     0.00002431   -0.00002961    0.00034467
     atom   54 type  2   force =     0.00019511   -0.00011370   -0.00048962
     atom   55 type  2   force =     0.00004774   -0.00002823   -0.00004635
     atom   56 type  2   force =     0.00040343    0.00021594    0.00037576
     atom   57 type  2   force =    -0.00002435   -0.00001000    0.00012081
     atom   58 type  2   force =     0.00011772    0.00005541    0.00018294
     atom   59 type  2   force =     0.00004863    0.00003099    0.00034406
     atom   60 type  2   force =    -0.00000455    0.00000628    0.00078844
     atom   61 type  2   force =    -0.00000766    0.00000773    0.00044636
     atom   62 type  2   force =     0.00009463    0.00007260    0.00019067
     atom   63 type  2   force =     0.00003987   -0.00000454    0.00034212
     atom   64 type  2   force =    -0.00020355   -0.00011672    0.00012390
     atom   65 type  2   force =     0.00007027    0.00004310    0.00001091
     atom   66 type  2   force =     0.00001950   -0.00000725   -0.00009921
     atom   67 type  2   force =     0.00042792   -0.00024726   -0.00039615
     atom   68 type  2   force =     0.00006427    0.00004033    0.00006669
     atom   69 type  2   force =     0.00019680    0.00012271    0.00047961
     atom   70 type  2   force =     0.00000000    0.00000320   -0.00008561
     atom   71 type  2   force =    -0.00001335    0.00045469   -0.00041214
     atom   72 type  2   force =    -0.00037873    0.00021669   -0.00013099
     atom   73 type  2   force =    -0.00008156    0.00004652    0.00001029
     atom   74 type  2   force =    -0.00000354    0.00030382    0.00015293
     atom   75 type  2   force =    -0.00000265   -0.00008200    0.00001029
     atom   76 type  2   force =     0.00007601   -0.00002667   -0.00031401
     atom   77 type  2   force =     0.00013559   -0.00004666   -0.00021961
     atom   78 type  2   force =     0.00002309    0.00006846   -0.00032155
     atom   79 type  2   force =     0.00002191    0.00012925   -0.00021657
     atom   80 type  2   force =    -0.00004938   -0.00005482   -0.00031738
     atom   81 type  2   force =    -0.00010109   -0.00008709   -0.00021514
     atom   82 type  2   force =    -0.00000818   -0.00000073   -0.00008487
     atom   83 type  2   force =    -0.00040522   -0.00021851   -0.00040862
     atom   84 type  2   force =    -0.00007034    0.00000854   -0.00031947
     atom   85 type  2   force =    -0.00011692   -0.00004493   -0.00022427
     atom   86 type  2   force =     0.00001028   -0.00000781   -0.00043275
     atom   87 type  2   force =     0.00000785   -0.00000443   -0.00081944
     atom   88 type  2   force =     0.00006038   -0.00005120   -0.00031506
     atom   89 type  2   force =     0.00011006   -0.00009541   -0.00021854
     atom   90 type  2   force =    -0.00000128   -0.00007375    0.00006659
     atom   91 type  2   force =    -0.00000482   -0.00022983    0.00048039
     atom   92 type  2   force =    -0.00007012    0.00004194    0.00007243
     atom   93 type  2   force =    -0.00021422    0.00012723    0.00047198
     atom   94 type  2   force =    -0.00004275    0.00005338   -0.00032345
     atom   95 type  2   force =    -0.00001640    0.00012505   -0.00022430
     atom   96 type  2   force =    -0.00000927    0.00000606    0.00009032
     The non-local contrib.  to forces
     atom    1 type  1   force =     0.00000967   -0.00003348    0.00001836
     atom    2 type  1   force =    -0.03756383    0.06603794    0.00064733
     atom    3 type  1   force =     0.00056700   -0.00094837   -0.00001175
     atom    4 type  1   force =    -0.00000129   -0.00000723    0.00000241
     atom    5 type  1   force =     0.00000247   -0.00002916    0.00001443
     atom    6 type  1   force =     0.03752465   -0.06600563   -0.00065601
     atom    7 type  1   force =    -0.00054506    0.00090396    0.00004625
     atom    8 type  1   force =     0.07601734    0.00041807   -0.00062894
     atom    9 type  1   force =    -0.00109404   -0.00000950    0.00003415
     atom   10 type  1   force =     0.03765044    0.06527541    0.00006772
     atom   11 type  1   force =    -0.00050991   -0.00090423    0.00001824
     atom   12 type  1   force =     0.00013994    0.01370978   -0.01896160
     atom   13 type  1   force =     0.00000605    0.00867084    0.00858624
     atom   14 type  1   force =     0.01188592   -0.00689889   -0.01889021
     atom   15 type  1   force =     0.00762285   -0.00443212    0.00866238
     atom   16 type  1   force =     0.00000011   -0.00005013   -0.00001755
     atom   17 type  1   force =     0.00000298   -0.00002810   -0.00000868
     atom   18 type  1   force =     0.01180609    0.00697703    0.01894293
     atom   19 type  1   force =     0.00755442    0.00434279   -0.00860312
     atom   20 type  1   force =     0.00000493   -0.00001375    0.00000636
     atom   21 type  1   force =     0.00000334   -0.00003042    0.00001127
     atom   22 type  1   force =    -0.01180458   -0.00701722   -0.01893854
     atom   23 type  1   force =    -0.00753620   -0.00439051    0.00860147
     atom   24 type  1   force =    -0.07602670   -0.00046953    0.00055650
     atom   25 type  1   force =     0.00109948   -0.00004627   -0.00002646
     atom   26 type  1   force =    -0.01187133    0.00686159    0.01891326
     atom   27 type  1   force =    -0.00762085    0.00438266   -0.00866845
     atom   28 type  1   force =    -0.00013703   -0.01374725    0.01892665
     atom   29 type  1   force =    -0.00000307   -0.00871752   -0.00858153
     atom   30 type  1   force =    -0.03759909   -0.06526292   -0.00005343
     atom   31 type  1   force =     0.00051088    0.00086209    0.00001510
     atom   32 type  2   force =     0.00006915    0.00088864    0.23925939
     atom   33 type  2   force =     0.00005192   -0.00872701    0.21940448
     atom   34 type  2   force =     0.00074435   -0.00041782    0.23937010
     atom   35 type  2   force =    -0.00456640    0.00264636    0.22131034
     atom   36 type  2   force =     0.00103601    0.00006659    0.24255625
     atom   37 type  2   force =     0.02586655   -0.00545183    0.26745620
     atom   38 type  2   force =     0.00054729    0.00087681    0.24256931
     atom   39 type  2   force =     0.00828177    0.02546987    0.26767305
     atom   40 type  2   force =    -0.01011473    0.00583473    0.22562719
     atom   41 type  2   force =     0.00594840   -0.00343363    0.25431578
     atom   42 type  2   force =    -0.00073629   -0.00049301    0.23925907
     atom   43 type  2   force =     0.00726000    0.00414499    0.21958615
     atom   44 type  2   force =    -0.00001546   -0.01148440    0.22594253
     atom   45 type  2   force =    -0.00006365    0.00688736    0.25437760
     atom   46 type  2   force =    -0.00080980   -0.00047768    0.23811409
     atom   47 type  2   force =     0.00725067    0.00422587    0.26149369
     atom   48 type  2   force =     0.00000790    0.00093736    0.23811357
     atom   49 type  2   force =    -0.00003711   -0.00838472    0.26148987
     atom   50 type  2   force =    -0.00048528   -0.00089225    0.24256024
     atom   51 type  2   force =    -0.01793781   -0.01989917    0.26767130
     atom   52 type  2   force =    -0.00105103    0.00005626    0.24259650
     atom   53 type  2   force =    -0.02576335   -0.00541603    0.26743127
     atom   54 type  2   force =     0.00080062   -0.00046316    0.23817930
     atom   55 type  2   force =    -0.00734759    0.00424064    0.26155991
     atom   56 type  2   force =     0.00997280    0.00577018    0.22592874
     atom   57 type  2   force =    -0.00597648   -0.00337790    0.25436831
     atom   58 type  2   force =     0.00048369   -0.00089981    0.24255491
     atom   59 type  2   force =     0.01770906   -0.01967503    0.26747614
     atom   60 type  2   force =     0.00003162   -0.00000252    0.24807172
     atom   61 type  2   force =     0.00000970    0.00001597    0.25850341
     atom   62 type  2   force =    -0.00054773    0.00089579    0.24260203
     atom   63 type  2   force =    -0.00817687    0.02505162    0.26745443
     atom   64 type  2   force =    -0.00724740   -0.00411260   -0.21955988
     atom   65 type  2   force =     0.00070676    0.00050853   -0.23931288
     atom   66 type  2   force =    -0.00593617    0.00342539   -0.25428910
     atom   67 type  2   force =     0.01011130   -0.00583420   -0.22566130
     atom   68 type  2   force =    -0.00723867   -0.00422011   -0.26146899
     atom   69 type  2   force =     0.00082432    0.00049488   -0.23812474
     atom   70 type  2   force =     0.00003868   -0.00683078   -0.25435760
     atom   71 type  2   force =    -0.00000304    0.01151451   -0.22600555
     atom   72 type  2   force =     0.00454230   -0.00259795   -0.22128137
     atom   73 type  2   force =    -0.00073167    0.00044870   -0.23942393
     atom   74 type  2   force =    -0.00003972    0.00865873   -0.21937036
     atom   75 type  2   force =    -0.00006538   -0.00085611   -0.23929207
     atom   76 type  2   force =    -0.00823876   -0.02546627   -0.26765689
     atom   77 type  2   force =    -0.00052178   -0.00083861   -0.24258581
     atom   78 type  2   force =    -0.02581155    0.00548408   -0.26743464
     atom   79 type  2   force =    -0.00100326   -0.00002573   -0.24258045
     atom   80 type  2   force =    -0.01768265    0.01967429   -0.26746198
     atom   81 type  2   force =    -0.00046047    0.00090776   -0.24258099
     atom   82 type  2   force =     0.00595108    0.00338858   -0.25433549
     atom   83 type  2   force =    -0.00998335   -0.00575720   -0.22595770
     atom   84 type  2   force =     0.00815874   -0.02503985   -0.26743946
     atom   85 type  2   force =     0.00054007   -0.00085500   -0.24262344
     atom   86 type  2   force =     0.00000060    0.00001723   -0.25850467
     atom   87 type  2   force =    -0.00002351    0.00003387   -0.24809572
     atom   88 type  2   force =     0.01792191    0.01989009   -0.26766468
     atom   89 type  2   force =     0.00046130    0.00089219   -0.24259110
     atom   90 type  2   force =     0.00002809    0.00837549   -0.26145611
     atom   91 type  2   force =    -0.00001553   -0.00095819   -0.23811593
     atom   92 type  2   force =     0.00730468   -0.00422314   -0.26153486
     atom   93 type  2   force =    -0.00083899    0.00048608   -0.23818995
     atom   94 type  2   force =     0.02570843    0.00544473   -0.26742056
     atom   95 type  2   force =     0.00101055   -0.00002053   -0.24262485
     atom   96 type  2   force =    -0.00000758    0.00002979    0.00014911
     The ionic contribution  to forces
     atom    1 type  1   force =    -0.00021382    0.00211156    0.00148637
     atom    2 type  1   force =     0.54056095   -0.98248591   -0.02262998
     atom    3 type  1   force =    -0.23302033    0.39627894    0.00653970
     atom    4 type  1   force =     0.00177019    0.00018198   -0.00246696
     atom    5 type  1   force =     0.00213461    0.00073138    0.00005191
     atom    6 type  1   force =    -0.53722522    0.98141440    0.01742690
     atom    7 type  1   force =     0.23449080   -0.39447146   -0.00506522
     atom    8 type  1   force =    -1.12150341   -0.02087254    0.01878869
     atom    9 type  1   force =     0.45921396   -0.00411339   -0.00362292
     atom   10 type  1   force =    -0.55533550   -0.96263734   -0.00378085
     atom   11 type  1   force =     0.22662702    0.39517494    0.00150021
     atom   12 type  1   force =    -0.00602337   -0.15680383    0.40159776
     atom   13 type  1   force =    -0.00350511   -0.12077349   -0.26265319
     atom   14 type  1   force =    -0.14362103    0.08266060    0.40598131
     atom   15 type  1   force =    -0.10996501    0.06334564   -0.26722208
     atom   16 type  1   force =    -0.00002102    0.00112221    0.00017680
     atom   17 type  1   force =    -0.00007057   -0.00045101    0.00288747
     atom   18 type  1   force =    -0.13360778   -0.08421614   -0.40430765
     atom   19 type  1   force =    -0.10519021   -0.06374288    0.26615555
     atom   20 type  1   force =    -0.00190723    0.00027422   -0.00164477
     atom   21 type  1   force =    -0.00210724    0.00074267    0.00111427
     atom   22 type  1   force =     0.13245917    0.08330110    0.40199604
     atom   23 type  1   force =     0.10283023    0.06324733   -0.26265746
     atom   24 type  1   force =     1.12221145    0.02353449   -0.01895236
     atom   25 type  1   force =    -0.45926840    0.00558431    0.00751534
     atom   26 type  1   force =     0.14449601   -0.08368304   -0.40979359
     atom   27 type  1   force =     0.11189345   -0.06383456    0.27041497
     atom   28 type  1   force =     0.00600842    0.15683845   -0.40384308
     atom   29 type  1   force =     0.00333900    0.12185052    0.26444967
     atom   30 type  1   force =     0.55160156    0.96266295   -0.00120750
     atom   31 type  1   force =    -0.22856228   -0.39356255    0.00106812
     atom   32 type  2   force =     0.00885169   -0.73274836  -13.77073391
     atom   33 type  2   force =     0.00380890   -3.89737562  -14.41382429
     atom   34 type  2   force =    -0.63516381    0.36785170  -13.76753958
     atom   35 type  2   force =    -3.45261507    1.99506830  -14.43893524
     atom   36 type  2   force =    -0.13652662    0.11209660  -14.16516707
     atom   37 type  2   force =    -0.87945482    0.00334758  -14.69592690
     atom   38 type  2   force =     0.03515235   -0.17085322  -14.17056626
     atom   39 type  2   force =    -0.41655302   -0.79056338  -14.69355525
     atom   40 type  2   force =     0.43497734   -0.25169580  -13.93706169
     atom   41 type  2   force =     0.05047507   -0.02982273  -14.27711603
     atom   42 type  2   force =     0.63873011    0.35974651  -13.77211459
     atom   43 type  2   force =     3.38474862    1.95150766  -14.41547595
     atom   44 type  2   force =    -0.00245990    0.50807304  -13.91819803
     atom   45 type  2   force =    -0.00945324    0.05315340  -14.29769197
     atom   46 type  2   force =    -0.00420505    0.00237896  -14.28380924
     atom   47 type  2   force =    -0.14731307   -0.08487469  -14.58776421
     atom   48 type  2   force =    -0.00560818    0.00097254  -14.28394361
     atom   49 type  2   force =    -0.00123808    0.16839895  -14.58760670
     atom   50 type  2   force =     0.16363197    0.05576495  -14.17168924
     atom   51 type  2   force =     0.47417480    0.75882197  -14.69417241
     atom   52 type  2   force =     0.13604106    0.10979260  -14.16900766
     atom   53 type  2   force =     0.88392349    0.02132066  -14.69369159
     atom   54 type  2   force =    -0.00297407    0.00015288  -14.28255598
     atom   55 type  2   force =     0.14290942   -0.08382831  -14.59132633
     atom   56 type  2   force =    -0.44085340   -0.25236188  -13.91877351
     atom   57 type  2   force =    -0.05159543   -0.01941301  -14.29643306
     atom   58 type  2   force =    -0.16546671    0.06346191  -14.16580681
     atom   59 type  2   force =    -0.44449791    0.76237356  -14.69614226
     atom   60 type  2   force =     0.00316898   -0.00183715  -14.32361725
     atom   61 type  2   force =     0.00723074   -0.00571950  -14.69054587
     atom   62 type  2   force =    -0.02786192   -0.17445423  -14.16842500
     atom   63 type  2   force =     0.42106129   -0.77944102  -14.69331069
     atom   64 type  2   force =    -3.38794994   -1.94848137   14.41079947
     atom   65 type  2   force =    -0.63921302   -0.35810077   13.77568347
     atom   66 type  2   force =    -0.04697998    0.02751630   14.27306699
     atom   67 type  2   force =    -0.43174404    0.25027125   13.94152352
     atom   68 type  2   force =     0.15077035    0.08450554   14.58493282
     atom   69 type  2   force =     0.00834226   -0.00340412   14.28843357
     atom   70 type  2   force =     0.00973133   -0.05360691   14.29458734
     atom   71 type  2   force =     0.00242376   -0.50543302   13.92080750
     atom   72 type  2   force =     3.45453543   -1.99265821   14.43533778
     atom   73 type  2   force =     0.63564607   -0.36662893   13.77134639
     atom   74 type  2   force =    -0.00502614    3.90252372   14.40893426
     atom   75 type  2   force =    -0.00913915    0.73378384   13.77616369
     atom   76 type  2   force =     0.42123782    0.79182920   14.69170911
     atom   77 type  2   force =    -0.03079741    0.17176495   14.17436693
     atom   78 type  2   force =     0.88336443   -0.00416328   14.69277195
     atom   79 type  2   force =     0.14211120   -0.11225800   14.16848457
     atom   80 type  2   force =     0.44469294   -0.76340855   14.69296340
     atom   81 type  2   force =     0.16654990   -0.06724409   14.16807914
     atom   82 type  2   force =     0.04931062    0.01758262   14.29321063
     atom   83 type  2   force =     0.43783778    0.25096446   13.92309689
     atom   84 type  2   force =    -0.42644571    0.78102748   14.69070276
     atom   85 type  2   force =     0.02333931    0.17556542   14.17213709
     atom   86 type  2   force =    -0.00701207    0.00217361   14.68714476
     atom   87 type  2   force =    -0.00310669   -0.00019452   14.32532720
     atom   88 type  2   force =    -0.47375088   -0.75996452   14.69060002
     atom   89 type  2   force =    -0.16437685   -0.05923374   14.17353868
     atom   90 type  2   force =     0.00161422   -0.17245905   14.58370745
     atom   91 type  2   force =     0.00617636   -0.00488372   14.28875345
     atom   92 type  2   force =    -0.14570468    0.08337026   14.58832131
     atom   93 type  2   force =    -0.00077922   -0.00065822   14.28696782
     atom   94 type  2   force =    -0.88811376   -0.02126697   14.68958651
     atom   95 type  2   force =    -0.14092162   -0.10982762   14.17161755
     atom   96 type  2   force =    -0.00015744    0.00229259   -0.00147924
     The local contribution  to forces
     atom    1 type  1   force =     0.00021004   -0.00207687   -0.00140183
     atom    2 type  1   force =    -0.50333297    0.91711287    0.02199641
     atom    3 type  1   force =     0.23224095   -0.39505729   -0.00644774
     atom    4 type  1   force =    -0.00180086   -0.00018285    0.00240466
     atom    5 type  1   force =    -0.00216661   -0.00071145   -0.00001191
     atom    6 type  1   force =     0.49997547   -0.91609715   -0.01698871
     atom    7 type  1   force =    -0.23376712    0.39328014    0.00509674
     atom    8 type  1   force =     1.04623364    0.02055294   -0.01836164
     atom    9 type  1   force =    -0.45777979    0.00411709    0.00366397
     atom   10 type  1   force =     0.51802088    0.89787814    0.00362003
     atom   11 type  1   force =    -0.22594452   -0.39402165   -0.00144082
     atom   12 type  1   force =     0.00587441    0.14369547   -0.38230931
     atom   13 type  1   force =     0.00345094    0.11234632    0.25387499
     atom   14 type  1   force =     0.13223327   -0.07605042   -0.38676237
     atom   15 type  1   force =     0.10252712   -0.05901813    0.25836429
     atom   16 type  1   force =     0.00001302   -0.00103513   -0.00021777
     atom   17 type  1   force =     0.00006026    0.00051495   -0.00282240
     atom   18 type  1   force =     0.12233894    0.07754193    0.38491628
     atom   19 type  1   force =     0.09788759    0.05949305   -0.25724716
     atom   20 type  1   force =     0.00193491   -0.00027771    0.00157592
     atom   21 type  1   force =     0.00213398   -0.00072830   -0.00107072
     atom   22 type  1   force =    -0.12117773   -0.07657585   -0.38272949
     atom   23 type  1   force =    -0.09552890   -0.05893503    0.25386430
     atom   24 type  1   force =    -1.04693833   -0.02309717    0.01840067
     atom   25 type  1   force =     0.45782808   -0.00548472   -0.00740750
     atom   26 type  1   force =    -0.13315433    0.07712877    0.39043305
     atom   27 type  1   force =    -0.10448800    0.05957763   -0.26143777
     atom   28 type  1   force =    -0.00586335   -0.14370621    0.38446685
     atom   29 type  1   force =    -0.00328984   -0.11339575   -0.25556307
     atom   30 type  1   force =    -0.51426382   -0.89795342    0.00114214
     atom   31 type  1   force =     0.22792376    0.39242779   -0.00100220
     atom   32 type  2   force =    -0.00889723    0.73190966   13.53660935
     atom   33 type  2   force =    -0.00383429    3.90589471   14.19922712
     atom   34 type  2   force =     0.63445093   -0.36744867   13.53329925
     atom   35 type  2   force =     3.45771278   -1.99802088   14.22279911
     atom   36 type  2   force =     0.13540550   -0.11231874   13.92800363
     atom   37 type  2   force =     0.85422734    0.00193443   14.43470702
     atom   38 type  2   force =    -0.03585020    0.16998725   13.93339326
     atom   39 type  2   force =     0.40846652    0.76577347   14.43211796
     atom   40 type  2   force =    -0.42559041    0.24627573   13.71681398
     atom   41 type  2   force =    -0.05622707    0.03313442   14.02815366
     atom   42 type  2   force =    -0.63803128   -0.35929811   13.53798434
     atom   43 type  2   force =    -3.39189297   -1.95561547   14.20073539
     atom   44 type  2   force =     0.00244862   -0.49741856   13.69762991
     atom   45 type  2   force =     0.00948384   -0.05981002   14.04867140
     atom   46 type  2   force =     0.00476177   -0.00202746   14.05050300
     atom   47 type  2   force =     0.14015740    0.08072610   14.33184727
     atom   48 type  2   force =     0.00558110   -0.00163116   14.05063566
     atom   49 type  2   force =     0.00125498   -0.16013892   14.33169296
     atom   50 type  2   force =    -0.16323176   -0.05474687   13.93451802
     atom   51 type  2   force =    -0.45672151   -0.73943055   14.43273551
     atom   52 type  2   force =    -0.13490946   -0.11002776   13.93179383
     atom   53 type  2   force =    -0.85878382   -0.01609096   14.43249614
     atom   54 type  2   force =     0.00237938    0.00018988   14.04917936
     atom   55 type  2   force =    -0.13571035    0.07967257   14.33533792
     atom   56 type  2   force =     0.43158953    0.24702587   13.69822441
     atom   57 type  2   force =     0.05736371    0.02270015   14.04741339
     atom   58 type  2   force =     0.16507702   -0.06240696   13.92864072
     atom   59 type  2   force =     0.42726029   -0.74316472   14.43489929
     atom   60 type  2   force =    -0.00316605    0.00182295   14.08160349
     atom   61 type  2   force =    -0.00721544    0.00569416   14.43806823
     atom   62 type  2   force =     0.02860745    0.17357950   13.93120975
     atom   63 type  2   force =    -0.41302796    0.75503320   14.43209102
     atom   64 type  2   force =     3.39507955    1.95254219  -14.19620129
     atom   65 type  2   force =     0.63857574    0.35764237  -13.54138489
     atom   66 type  2   force =     0.05268478   -0.03080289  -14.02421888
     atom   67 type  2   force =     0.42236914   -0.24486152  -13.72115448
     atom   68 type  2   force =    -0.14364211   -0.08036368  -14.32909669
     atom   69 type  2   force =    -0.00892458    0.00303984  -14.05505031
     atom   70 type  2   force =    -0.00973280    0.06017458  -14.04567435
     atom   71 type  2   force =    -0.00239001    0.49476970  -13.70008969
     atom   72 type  2   force =    -3.45958978    1.99554928  -14.21934419
     atom   73 type  2   force =    -0.63496822    0.36620295  -13.53693202
     atom   74 type  2   force =     0.00504909   -3.91097027  -14.19448571
     atom   75 type  2   force =     0.00918844   -0.73301329  -13.54188934
     atom   76 type  2   force =    -0.41321932   -0.76702016  -14.43035106
     atom   77 type  2   force =     0.03145844   -0.17094958  -13.93710605
     atom   78 type  2   force =    -0.85820026   -0.00116632  -14.43164055
     atom   79 type  2   force =    -0.14104995    0.11244824  -13.93122715
     atom   80 type  2   force =    -0.42747068    0.74421678  -14.43180237
     atom   81 type  2   force =    -0.16620231    0.06619696  -13.93082455
     atom   82 type  2   force =    -0.05501960   -0.02086963  -14.04431168
     atom   83 type  2   force =    -0.42857490   -0.24565829  -13.70242696
     atom   84 type  2   force =     0.41845557   -0.75661560  -14.42956461
     atom   85 type  2   force =    -0.02406366   -0.17474936  -13.93483163
     atom   86 type  2   force =     0.00698210   -0.00217695  -14.43472618
     atom   87 type  2   force =     0.00309223    0.00018118  -14.08323591
     atom   88 type  2   force =     0.45628755    0.74059680  -14.42923883
     atom   89 type  2   force =     0.16400897    0.05823030  -13.93627561
     atom   90 type  2   force =    -0.00162742    0.16422103  -14.32788646
     atom   91 type  2   force =    -0.00614810    0.00557023  -14.05538078
     atom   92 type  2   force =     0.13856195   -0.07923802  -14.33241663
     atom   93 type  2   force =     0.00142103    0.00029178  -14.05351557
     atom   94 type  2   force =     0.86303473    0.01598476  -14.42847323
     atom   95 type  2   force =     0.13985957    0.11002969  -13.93430982
     atom   96 type  2   force =     0.00017477   -0.00233451    0.00118797
     The core correction contribution to forces
     atom    1 type  1   force =    -0.00000005   -0.00000015    0.00000123
     atom    2 type  1   force =     0.00063247   -0.00112813   -0.00002152
     atom    3 type  1   force =    -0.00000148    0.00000177    0.00000079
     atom    4 type  1   force =     0.00000040    0.00000041   -0.00000104
     atom    5 type  1   force =     0.00000008    0.00000070    0.00000061
     atom    6 type  1   force =    -0.00063173    0.00112774    0.00001932
     atom    7 type  1   force =     0.00000105   -0.00000135    0.00000081
     atom    8 type  1   force =    -0.00129484   -0.00001540    0.00001830
     atom    9 type  1   force =     0.00000223   -0.00000054    0.00000110
     atom   10 type  1   force =    -0.00063796   -0.00110674   -0.00000291
     atom   11 type  1   force =     0.00000015    0.00000032    0.00000085
     atom   12 type  1   force =    -0.00000522   -0.00025434    0.00027385
     atom   13 type  1   force =    -0.00000045   -0.00020750   -0.00016674
     atom   14 type  1   force =    -0.00022080    0.00012799    0.00027212
     atom   15 type  1   force =    -0.00018186    0.00010521   -0.00016773
     atom   16 type  1   force =    -0.00000001   -0.00000015   -0.00000043
     atom   17 type  1   force =    -0.00000007   -0.00000033    0.00000109
     atom   18 type  1   force =    -0.00021792   -0.00013198   -0.00027482
     atom   19 type  1   force =    -0.00018047   -0.00010449    0.00016861
     atom   20 type  1   force =    -0.00000053    0.00000056   -0.00000087
     atom   21 type  1   force =    -0.00000030    0.00000060    0.00000075
     atom   22 type  1   force =     0.00021746    0.00013206    0.00027323
     atom   23 type  1   force =     0.00018000    0.00010470   -0.00016701
     atom   24 type  1   force =     0.00129490    0.00001519   -0.00001923
     atom   25 type  1   force =    -0.00000224    0.00000031    0.00000115
     atom   26 type  1   force =     0.00022119   -0.00012783   -0.00027406
     atom   27 type  1   force =     0.00018200   -0.00010477    0.00016939
     atom   28 type  1   force =     0.00000523    0.00025567   -0.00027459
     atom   29 type  1   force =     0.00000061    0.00020872    0.00016835
     atom   30 type  1   force =     0.00063694    0.00110643    0.00000053
     atom   31 type  1   force =     0.00000024    0.00000010    0.00000096
     atom   32 type  2   force =    -0.00000145    0.00002452   -0.00509920
     atom   33 type  2   force =    -0.00000139   -0.00010524   -0.00500879
     atom   34 type  2   force =     0.00001905   -0.00000817   -0.00509928
     atom   35 type  2   force =    -0.00016076    0.00009106   -0.00508474
     atom   36 type  2   force =     0.00004711    0.00004388   -0.00516476
     atom   37 type  2   force =    -0.00069941    0.00014341   -0.00592667
     atom   38 type  2   force =     0.00005941    0.00002226   -0.00516612
     atom   39 type  2   force =    -0.00023058   -0.00068460   -0.00593351
     atom   40 type  2   force =     0.00034688   -0.00019876   -0.00493505
     atom   41 type  2   force =    -0.00016187    0.00009514   -0.00529124
     atom   42 type  2   force =    -0.00002087   -0.00000737   -0.00509702
[...]
              0.222508291022350E+03
              0.101037427775060E+03
              0.164454582756429E+03
             -0.921498246950758E+01
              0.505384185068696E+03
              0.846773513235407E+02
             -0.779897129709423E+02
              0.920386341768699E+01
             -0.511486562922523E+02
              0.414946759193935E+03
             -0.237902629729588E+02
              0.892731313757849E+02
              0.299238927860993E+03
              0.656701223784316E+02
             -0.236175561734009E+03
             -0.344194128518232E+03
              0.364538999477145E+01
             -0.387121965576862E+03
              0.131330984922288E+03
             -0.784073518345047E+02
             -0.181751561152941E+03
              0.163522793740598E+03
              0.627687451422639E+02
              0.147519586972435E+03
              0.130918165162423E+02
              0.234874399210010E+03
             -0.383829538082538E+03
             -0.351390896636879E+02
             -0.334761209484529E+03
              0.603649020838470E+02
              0.181314892562350E+03
             -0.334191990447694E+02
             -0.126079355092262E+03
              0.269731102720772E+03
             -0.125046968628117E+03
              0.878538983393514E+02
             -0.784450403124697E+02
              0.192596513232148E+03
              0.232564143246929E+03
             -0.100293917188641E+03
              0.200053774209708E+03
              0.767597388747931E+02
             -0.206254432465734E+03
             -0.123437618927714E+03
              0.332706931388906E+03
              0.157663355842516E+03
             -0.152385277046864E+02
             -0.447524858146962E+02
              0.489033557481726E+03
              0.293269189886528E+03
              0.107459755914862E+03
             -0.313291244694217E+03
              0.490869598682790E+03
             -0.221993393732357E+03
             -0.275163393452772E+03
             -0.426247691902363E+03
              0.205432328968854E+03
             -0.390022813072612E+03
              0.169128726960233E+03
              0.277691484861699E+03
              0.205797404053914E+03
              0.436283420538352E+02
              0.122687178786669E+03
             -0.307314002153590E+03
             -0.109283151678120E+03
             -0.990939467543997E+02
              0.148498793159364E+03
              0.331493952987806E+03
              0.326787227624280E+03
              0.250139571801919E+03
             -0.617239446769108E+02
              0.888469925057379E+02
              0.124975803187597E+02
             -0.982426573115754E+02
              0.146613748850557E+03
              0.140332519137483E+03
             -0.200198472579956E+03
             -0.202771218985667E+03
             -0.929407149320823E+02
              0.215281507159047E+03
              0.109605203021219E+03
             -0.146634391849262E+03
             -0.255465560430902E+03
             -0.350947820570570E+03
              0.732466619807946E+01
              0.999180893287285E+02
             -0.135737406931948E+03
              0.498527910641472E+03
              0.466373749030299E+01
             -0.579030455038240E+03
              0.145180471991175E+03
              0.238981067779154E+03
             -0.867864257411920E+02
              0.912820657768066E+01
             -0.130947675424406E+03
              0.222359129973202E+03
              0.109733942871742E+03
             -0.292606548639187E+03
              0.347462189031181E+03
              0.236621654258111E+02
             -0.138765896483639E+03
             -0.171044301375116E+03
              0.696609051355260E+03
              0.311425024263641E+03
             -0.781388103983727E+02
              0.171801878166899E+03
             -0.339450524899220E+03
             -0.736883238480318E+02
             -0.301720134790746E+03
              0.116579844726994E+03
              0.216632937421692E+03
              0.238202962071819E+03
             -0.104368764930100E+03
              0.180424069092346E+02
              0.296784213958536E+03
              0.949291429924842E+02
              0.176887002007095E+03
              0.719769684325645E+02
             -0.398305601785428E+02
              0.794615571734198E+00
             -0.552190416125245E+02
              0.615026236551748E+02
              0.206617463766759E+02
             -0.269623256877301E+03
              0.412991169294899E+03
              0.158957944554826E+03
             -0.292726088319782E+03
             -0.215117724623463E+03
             -0.303618732340517E+03
             -0.131567848648937E+03
             -0.954594175133561E+02
             -0.240152777635846E+03
             -0.237060158439724E+03
              0.285414217745101E+03
              0.227217465894712E+03
             -0.313688992638095E+02
              0.341094300870749E+03
              0.491593775580805E+02
             -0.548101140316732E+03
              0.294312231392918E+03
              0.502555950607100E+02
              0.231094745229822E+03
              0.312282175140433E+02
              0.260248637898327E+02
              0.470484081729880E+02
              0.124882628984089E+03
             -0.228751162553972E+03
             -0.107930713932287E+03
             -0.216261193550917E+03
             -0.179049780824485E+03
              0.745114105448126E+02
             -0.198575225848354E+03
              0.957344541614049E+02
              0.131465336248142E+03
             -0.121718143248663E+03
             -0.777034060009987E+02
              0.509330576074649E+01
              0.340682306632818E+03
              0.515828077105880E+02
              0.327044608303718E+03
              0.117243170355871E+03
             -0.432410183731956E+03
             -0.143371415485379E+03
              0.147474044038205E+03
              0.340286472244366E+03
              0.561763472179542E+02
              0.139844049365595E+03
              0.313100354695231E+03
             -0.181282236534744E+03
             -0.278337904556629E+03
              0.385903086048545E+03
              0.224463362531724E+02
             -0.407912145711191E+03
              0.149012097793698E+03
              0.258111008678727E+03
             -0.660987899740553E+02
             -0.268868913438902E+03
              0.560234357001830E+02
              0.115424193734907E+02
             -0.130677253859357E+03
              0.499828472143399E+02
             -0.435303100775502E+02
              0.606860312841311E+03
              0.176668982434381E+03
             -0.256983311484543E+03
              0.759380332148514E+02
              0.369531941309266E+03
             -0.249765166343052E+03
             -0.650112463499224E+02
             -0.236236697096746E+03
              0.189294542359094E+03
              0.598431518013628E+02
              0.125222589092823E+03
              0.226927856983684E+02
              0.429288636308313E+03
             -0.244114781088565E+03
             -0.192788551098627E+03
             -0.186135532901608E+03
              0.163504185418369E+03
              0.426563318588426E+03
             -0.713629975114682E+02
              0.174497480655937E+03
             -0.247877924847948E+03
              0.475546458607439E+02
             -0.793740379869776E+02
              0.173515402206585E+02
             -0.960728866762378E+02
             -0.783312610582929E+02
             -0.769503377047461E+02
              0.634073719113699E+02
              0.123986908073007E+03
             -0.270318338685969E+03
              0.200144345997544E+03
             -0.322183434622687E+03
              0.243134836070469E+03
             -0.256909828307628E+03
              0.416368224180796E+03
              0.228762423871778E+03
              0.263371161555428E+03
              0.653968977075997E+02
              0.768973103596868E+02
             -0.575293903316561E+03
              0.933531025204949E+02
              0.210941670022585E+02
              0.548732211467623E+02
             -0.938726734978667E+02
              0.444786506328445E+03
             -0.103292122573193E+03
             -0.183884123289270E+03
             -0.430405137979420E+03
             -0.149338578482982E+03
             -0.206517599311112E+03
             -0.179578612591803E+03
             -0.405080478776326E+02
             -0.983521168269790E+02
             -0.124933063390073E+03
             -0.191537318095141E+03
              0.146595192280457E+03
              0.462155304735179E+03
              0.390432742826500E+03
             -0.692265851775446E+02
             -0.469437331325286E+03
             -0.200106288297913E+03
              0.959595897935217E+02
              0.960372131444491E+02
              0.153439763028131E+03
              0.107825514320487E+03
              0.190426924747076E+02
              0.458587917344910E+03
             -0.111482209980033E+03
              0.225334862837608E+03
              0.115877588620825E+03
             -0.156178085825218E+03
             -0.748540284327430E+02
              0.207738466465442E+03
             -0.110990645634827E+03
             -0.682014508448032E+02
             -0.505743603918161E+02
              0.267532733569971E+03
             -0.351898105574027E+03
             -0.282185338905424E+02
             -0.271574870814286E+03
             -0.577009353505831E+03
             -0.151762510077901E+01
             -0.851102042729028E+02
              0.224259445477748E+03
              0.249356408474397E+03
              0.341091246019367E+03
             -0.221840490508615E+03
              0.344772618555923E+03
              0.862159154004348E+02
             -0.128057831331377E+03
              0.460795522942741E+02
             -0.108872968068999E+03
             -0.644450839065239E+02
              0.199193777064675E+03
             -0.164925491819889E+03
              0.442361986071797E+03
             -0.118010481861898E+03
             -0.244488191910216E+03
              0.462599608473516E+03
             -0.250429959320762E+03
             -0.201836550231142E+02
              0.243432299337371E+02
              0.133577407986359E+03
             -0.195510190578730E+03
             -0.148959401119133E+03
              0.237584435113011E+03
             -0.357440922974044E+03
              0.294803970185380E+03
              0.435860625394940E+02
              0.211272840002232E+03
              0.306103647003631E+03
              0.784327776160096E+02
             -0.425376384692632E+03
             -0.184070962650254E+03
             -0.307023250704261E+03
             -0.182720850691358E+03
             -0.486035784853734E+02
              0.658962148312164E+02
             -0.143321414254680E+03
             -0.251060481750301E+01
             -0.427120263711064E+03
              0.238371854307212E+02
             -0.275422240857491E+03
              0.266982601446334E+03
             -0.156574193745150E+03
             -0.376551006453135E+02
              0.201510429709191E+03
              0.397997909970668E+02
              0.187322419812922E+03
             -0.357017356129063E+03
              0.593955400423160E+02
              0.243621003371638E+02
              0.153720588056163E+03
              0.246448838528462E+03
             -0.455768137281802E+02
             -0.280500412084108E+03
             -0.162155463697501E+03
             -0.114451091419611E+03
             -0.337392752756041E+02
              0.261549988534005E+03
              0.169793322726384E+03
             -0.172042178747017E+03
             -0.161405789470557E+03
              0.118461463154679E+03
              0.129055610871153E+03
             -0.348713737585631E+03
              0.813313845298655E+02
              0.250106280692310E+03
             -0.111377287323843E+02
              0.314924905275503E+03
              0.145496317211129E+03
              0.247859021033146E+03
              0.376858177927528E+03
              0.568335065172475E+02
             -0.513448489814066E+03
              0.708489970494504E+02
              0.555170160990941E+03
              0.403521618455606E+03
             -0.278232232174790E+03
              0.251003409987018E+02
              0.361218659544228E+03
              0.313004106589080E+03
              0.137670540090234E+03
             -0.832651523041175E+02
              0.138251743528438E+03
              0.286080067469381E+03
             -0.132238201899139E+03
             -0.851519512610766E+02
              0.193775894068025E+03
             -0.116867088652950E+02
              0.173953486482454E+03
             -0.538093477700409E+02
              0.362797364710540E+03
             -0.138410364610427E+03
              0.833146357507355E+02
             -0.153751320978187E+03
              0.179565288248794E+03
             -0.243731534226376E+02
              0.267586081928348E+03
              0.191667546200262E+02
              0.119738883106234E+03
             -0.170116676936955E+03
             -0.118937302928818E+03
             -0.606428918493018E+02
             -0.552299155860463E+02
              0.291258147945391E+03
              0.143340411634264E+03
              0.353460292303708E+03
              0.326253424803448E+03
              0.915153468467925E+02
              0.164324399847811E+02
              0.347678957065323E+03
              0.195430423759486E+03
              0.290261855517656E+00
              0.338630134694251E+03
             -0.277926019814632E+03
              0.973928250337667E+02
             -0.181029405773137E+03
             -0.491060971881473E+02
              0.468253188549238E+03
             -0.655541851134635E+02
             -0.195101864146018E+02
             -0.509750059110759E+02
              0.384684667905216E+03
             -0.825928157705680E+02
             -0.708315158474124E+01
              0.776073767301858E+03
             -0.229730841899175E+03
             -0.286757517355053E+03
             -0.286927831603244E+03
             -0.183303474913441E+03
              0.167101361732143E+03
             -0.749990876157290E+02
              0.424666648224454E+02
             -0.194737944133512E+02
              0.983441362247768E+02
              0.157932987688660E+03
              0.184124026262384E+03
              0.264845666425103E+03
              0.169725045277369E+03
              0.173007630409489E+03
             -0.320171707336929E+03
             -0.330740705933749E+03
             -0.745322370170672E+02
             -0.295595029567833E+03
              0.469286062295675E+03
              0.395304007945823E+03
              0.186424947859235E+03
              0.513997757815012E+03
             -0.256931177683573E+03
             -0.110582076469976E+03
             -0.159426786786421E+03
              0.444658733324160E+03
 
 BEEF-vdW xc energy contributions
            1 :    -4018.996608788411     
            2 :     3682.697336673145     
            3 :    -3109.327196196757     
            4 :     2451.750002441971     
            5 :    -1853.825315080154     
            6 :     1404.070724120936     
            7 :    -1121.291199761457     
            8 :     967.9098574912314     
            9 :    -878.4331940996453     
           10 :     790.8512395022581     
           11 :    -670.2772036118931     
           12 :     516.6456840913097     
           13 :    -355.1330192947889     
           14 :     216.8440931020696     
           15 :    -121.4090619460867     
           16 :     69.53832047361902     
           17 :    -46.35397856820509     
           18 :     31.14182236754459     
           19 :    -7.875150655067046     
           20 :    -28.09410496152123     
           21 :     69.75442196091535     
           22 :    -104.2397840056865     
           23 :     121.2674387273519     
           24 :    -119.3236087324449     
           25 :     106.2911347373065     
           26 :    -94.72528389977833     
           27 :     94.90472740034147     
           28 :    -109.5075089710053     
           29 :     132.4919921925557     
           30 :    -152.5413323699404     
           31 :    -345.2907968751197     
           32 :    -248.3212974263670     

     Writing all to output data dir ./PbI2.save/
 
     init_run     :     10.68s CPU     18.30s WALL (       1 calls)
     electrons    :    796.63s CPU    811.68s WALL (       1 calls)
     forces       :      7.24s CPU      7.55s WALL (       1 calls)
     stress       :    111.29s CPU    112.39s WALL (       1 calls)

     Called by init_run:
     wfcinit      :      6.17s CPU     13.32s WALL (       1 calls)
     potinit      :      1.31s CPU      1.53s WALL (       1 calls)
     hinit0       :      0.84s CPU      0.91s WALL (       1 calls)

     Called by electrons:
     c_bands      :    777.79s CPU    791.40s WALL (       4 calls)
     sum_band     :     12.65s CPU     13.25s WALL (       4 calls)
     v_of_rho     :      3.05s CPU      3.25s WALL (       4 calls)
     v_h          :      0.03s CPU      0.04s WALL (       4 calls)
     v_xc         :     27.80s CPU     29.89s WALL (      40 calls)
     newd         :      1.16s CPU      1.64s WALL (       4 calls)
     PAW_pot      :      1.11s CPU      1.13s WALL (       4 calls)
     mix_rho      :      0.05s CPU      0.05s WALL (       4 calls)
     vdW_kernel   :      0.24s CPU      0.25s WALL (       1 calls)

     Called by c_bands:
     init_us_2    :      0.29s CPU      0.30s WALL (       8 calls)
     init_us_2:cp :      0.29s CPU      0.30s WALL (       8 calls)
     cegterg      :    776.59s CPU    787.80s WALL (       4 calls)

     Called by sum_band:
     sum_band:wei :      0.00s CPU      0.00s WALL (       4 calls)
     sum_band:loo :     11.14s CPU     11.22s WALL (       4 calls)
     sum_band:buf :      0.00s CPU      0.00s WALL (       4 calls)
     sum_band:ini :      0.26s CPU      0.26s WALL (       4 calls)
     sum_band:cal :      4.81s CPU      4.84s WALL (       4 calls)
     sum_band:bec :      0.07s CPU      0.07s WALL (       4 calls)
     addusdens    :      1.30s CPU      1.80s WALL (       4 calls)
     addusd:skk   :      0.11s CPU      0.12s WALL (       8 calls)
     addusd:dgemm :      0.70s CPU      1.18s WALL (       8 calls)
     addusd:qvan2 :      0.46s CPU      0.47s WALL (       8 calls)

     Called by *egterg:
     cdiaghg      :    647.03s CPU    652.32s WALL (      59 calls)
     cegterg:over :     24.99s CPU     25.73s WALL (      57 calls)
     cegterg:upda :     15.11s CPU     15.44s WALL (      57 calls)
     cegterg:last :      6.19s CPU      6.23s WALL (       4 calls)
     h_psi        :     62.88s CPU     63.72s WALL (      61 calls)
     s_psi        :     12.77s CPU     12.86s WALL (      61 calls)
     g_psi        :      0.08s CPU      0.08s WALL (      57 calls)

     Called by h_psi:
     h_psi:calbec :     14.01s CPU     14.12s WALL (      61 calls)
     vloc_psi     :     35.81s CPU     36.13s WALL (      61 calls)
     add_vuspsi   :     12.74s CPU     12.90s WALL (      61 calls)

     General routines
     calbec       :     24.87s CPU     25.05s WALL (      70 calls)
     fft          :     16.90s CPU     17.13s WALL (    2358 calls)
     ffts         :      0.06s CPU      0.07s WALL (       8 calls)
     fftw         :     39.74s CPU     40.06s WALL (   23004 calls)
     interpolate  :      0.07s CPU      0.07s WALL (       4 calls)
 
     Parallel routines

     PAW routines
     PAW_pot      :      1.11s CPU      1.13s WALL (       4 calls)
 
     PWSCF        :  15m55.44s CPU  16m27.51s WALL

 
   This run was terminated on:  12:26:55  18Feb2024            

=------------------------------------------------------------------------------=
   JOB DONE.
=------------------------------------------------------------------------------=
