
     Program PWSCF v.7.2 starts on 27Mar2024 at 22:23:23 

     This program is part of the open-source Quantum ESPRESSO suite
     for quantum simulation of materials; please cite
         "P. Giannozzi et al., J. Phys.:Condens. Matter 21 395502 (2009);
         "P. Giannozzi et al., J. Phys.:Condens. Matter 29 465901 (2017);
         "P. Giannozzi et al., J. Chem. Phys. 152 154105 (2020);
          URL http://www.quantum-espresso.org", 
     in publications or presentations arising from this work. More details at
     http://www.quantum-espresso.org/quote

     Parallel version (MPI & OpenMP), running on      10 processor cores
     Number of MPI processes:                10
     Threads/MPI process:                     1

     MPI processes distributed on     2 nodes
     1968700 MiB available memory on the printing compute node when the environment starts
 
     Reading input from espresso.pwi
Warning: card &CELL ignored
Warning: card    CELL_DYNAMICS    = 'BFGS' ignored
Warning: card / ignored

     Current dimensions of program PWSCF are:
     Max number of different atomic species (ntypx) = 10
     Max number of k-points (npk) =  40000
     Max angular momentum in pseudopotentials (lmaxx) =  4
     file C.pbe-n-kjpaw_psl.1.0.0.UPF: wavefunction(s)  2S 2P renormalized

     **************************************************************************
     Initializing libbeef V0.1.2 with the BEEF-vdW functional.
     Citation: Wellendorff et al., PRB 85, 235149 (2012).
     **************************************************************************


     IMPORTANT: XC functional enforced from input :
     Exchange-correlation= BEEF-VDW
                           (   1   4  43  14   2   0   0)
     Any further DFT definition will be discarded
     Please, verify this is what you really want

 
     R & G space division:  proc/nbgrp/npool/nimage =      10
     Subspace diagonalization in iterative solution of the eigenvalue problem:
     a serial algorithm will be used

 
     Parallelization info
     --------------------
     sticks:   dense  smooth     PW     G-vecs:    dense   smooth      PW
     Min         127     100     29                 3404     2428     395
     Max         129     101     31                 3405     2431     398
     Sum        1273    1005    301                34049    24303    3959
 
     Using Slab Decomposition
 


     bravais-lattice index     =            1
     lattice parameter (alat)  =       6.7507  a.u.
     unit-cell volume          =     307.6390 (a.u.)^3
     number of atoms/cell      =            7
     number of atomic types    =            1
     number of electrons       =        26.00
     number of Kohn-Sham states=           17
     kinetic-energy cutoff     =      70.0000  Ry
     charge density cutoff     =     350.0000  Ry
     scf convergence threshold =      1.0E-07
     mixing beta               =       0.7000
     number of iterations used =            8  plain     mixing
     Exchange-correlation= BEEF-VDW
                           (   1   4  43  14   2   0   0)

     celldm(1)=   6.750674  celldm(2)=   0.000000  celldm(3)=   0.000000
     celldm(4)=   0.000000  celldm(5)=   0.000000  celldm(6)=   0.000000

     crystal axes: (cart. coord. in units of alat)
               a(1) = (   1.000000   0.000000   0.000000 )  
               a(2) = (   0.000000   1.000000   0.000000 )  
               a(3) = (   0.000000   0.000000   1.000000 )  

     reciprocal axes: (cart. coord. in units 2 pi/alat)
               b(1) = (  1.000000  0.000000  0.000000 )  
               b(2) = (  0.000000  1.000000  0.000000 )  
               b(3) = (  0.000000  0.000000  1.000000 )  


     PseudoPot. # 1 for C  read from file:
     /trace/group/acmegroup/atimmins/packages/espresso/pseudo/psl_1.0.0/pslibrary.1.0.0/pbe/PSEUDOPOTENTIALS/C.pbe-n-kjpaw_psl.1.0.0.UPF
     MD5 check sum: 5459cf7f2c8c37df2f7cde8914797f4d
     Pseudo is Projector augmented-wave + core cor, Zval =  4.0
     Generated using 'atomic' code by A. Dal Corso  v.7.1
     Shape of augmentation charge: PSQ
     Using radial grid of 1073 points,  4 beta functions with: 
                l(1) =   0
                l(2) =   0
                l(3) =   1
                l(4) =   1
     Q(r) pseudized with 0 coefficients 


     atomic species   valence    mass     pseudopotential
        C              4.00    12.01100     C ( 1.00)

      6 Sym. Ops. (no inversion) found


                                    s                        frac. trans.

      isym =  1     identity                                     

 cryst.   s( 1) = (     1          0          0      )
                  (     0          1          0      )
                  (     0          0          1      )

 cart.    s( 1) = (  1.0000000  0.0000000  0.0000000 )
                  (  0.0000000  1.0000000  0.0000000 )
                  (  0.0000000  0.0000000  1.0000000 )


      isym =  2     120 deg rotation - cart. axis [1,-1,1]       

 cryst.   s( 2) = (     0          0          1      )
                  (    -1          0          0      )
                  (     0         -1          0      )

 cart.    s( 2) = (  0.0000000 -1.0000000  0.0000000 )
                  (  0.0000000  0.0000000 -1.0000000 )
                  (  1.0000000  0.0000000  0.0000000 )


      isym =  3     120 deg rotation - cart. axis [-1,1,-1]      

 cryst.   s( 3) = (     0         -1          0      )
                  (     0          0         -1      )
                  (     1          0          0      )

 cart.    s( 3) = (  0.0000000  0.0000000  1.0000000 )
                  ( -1.0000000  0.0000000  0.0000000 )
                  (  0.0000000 -1.0000000  0.0000000 )


      isym =  4     inv. 180 deg rotation - cart. axis [1,1,0]   

 cryst.   s( 4) = (     0         -1          0      )
                  (    -1          0          0      )
                  (     0          0          1      )

 cart.    s( 4) = (  0.0000000 -1.0000000  0.0000000 )
                  ( -1.0000000  0.0000000  0.0000000 )
                  (  0.0000000  0.0000000  1.0000000 )


      isym =  5     inv. 180 deg rotation - cart. axis [-1,0,1]  

 cryst.   s( 5) = (     0          0          1      )
                  (     0          1          0      )
                  (     1          0          0      )

 cart.    s( 5) = (  0.0000000  0.0000000  1.0000000 )
                  (  0.0000000  1.0000000  0.0000000 )
                  (  1.0000000  0.0000000  0.0000000 )


      isym =  6     inv. 180 deg rotation - cart. axis [0,1,1]   

 cryst.   s( 6) = (     1          0          0      )
                  (     0          0         -1      )
                  (     0         -1          0      )

 cart.    s( 6) = (  1.0000000  0.0000000  0.0000000 )
                  (  0.0000000  0.0000000 -1.0000000 )
                  (  0.0000000 -1.0000000  0.0000000 )


     point group C_3v (3m)  
     there are  3 classes
     the character table:

       E     2C3   3s_v 
A_1    1.00  1.00  1.00
A_2    1.00  1.00 -1.00
E      2.00 -1.00  0.00

     the symmetry operations in each class and the name of the first element:

     E        1
          identity                                               
     2C3      2    3
          120 deg rotation - cart. axis [1,-1,1]                 
     3s_v     4    5    6
          inv. 180 deg rotation - cart. axis [1,1,0]             

   Cartesian axes

     site n.     atom                  positions (alat units)
         1           C   tau(   1) = (   0.0000000   0.0000000   0.5000000  )
         2           C   tau(   2) = (   0.2500061   0.2500061   0.7499939  )
         3           C   tau(   3) = (   0.0000000   0.5000000   0.0000000  )
         4           C   tau(   4) = (   0.7499939   0.7499939   0.7499939  )
         5           C   tau(   5) = (   0.5000000   0.0000000   0.0000000  )
         6           C   tau(   6) = (   0.7499939   0.2500061   0.2500061  )
         7           C   tau(   7) = (   0.5000000   0.5000000   0.5000000  )

   Crystallographic axes

     site n.     atom                  positions (cryst. coord.)
         1           C   tau(   1) = (  0.0000000  0.0000000  0.5000000  )
         2           C   tau(   2) = (  0.2500061  0.2500061  0.7499939  )
         3           C   tau(   3) = (  0.0000000  0.5000000  0.0000000  )
         4           C   tau(   4) = (  0.7499939  0.7499939  0.7499939  )
         5           C   tau(   5) = (  0.5000000  0.0000000  0.0000000  )
         6           C   tau(   6) = (  0.7499939  0.2500061  0.2500061  )
         7           C   tau(   7) = (  0.5000000  0.5000000  0.5000000  )

     number of k points=    13  Gaussian smearing, width (Ry)=  0.0100
                       cart. coord. in units 2pi/alat
        k(    1) = (   0.0000000   0.0000000   0.0000000), wk =   0.0312500
        k(    2) = (   0.0000000   0.0000000   0.2500000), wk =   0.1875000
        k(    3) = (   0.0000000   0.0000000  -0.5000000), wk =   0.0937500
        k(    4) = (   0.0000000   0.2500000   0.2500000), wk =   0.1875000
        k(    5) = (   0.0000000   0.2500000  -0.5000000), wk =   0.3750000
        k(    6) = (   0.0000000  -0.5000000  -0.5000000), wk =   0.0937500
        k(    7) = (   0.2500000   0.2500000   0.2500000), wk =   0.1875000
        k(    8) = (   0.2500000   0.2500000  -0.5000000), wk =   0.1875000
        k(    9) = (   0.2500000  -0.5000000  -0.5000000), wk =   0.1875000
        k(   10) = (  -0.5000000  -0.5000000  -0.5000000), wk =   0.0312500
        k(   11) = (   0.2500000   0.0000000   0.2500000), wk =   0.1875000
        k(   12) = (   0.2500000  -0.2500000   0.2500000), wk =   0.0625000
        k(   13) = (   0.2500000  -0.2500000  -0.5000000), wk =   0.1875000

                       cryst. coord.
        k(    1) = (   0.0000000   0.0000000   0.0000000), wk =   0.0312500
        k(    2) = (   0.0000000   0.0000000   0.2500000), wk =   0.1875000
        k(    3) = (   0.0000000   0.0000000  -0.5000000), wk =   0.0937500
        k(    4) = (   0.0000000   0.2500000   0.2500000), wk =   0.1875000
        k(    5) = (   0.0000000   0.2500000  -0.5000000), wk =   0.3750000
        k(    6) = (   0.0000000  -0.5000000  -0.5000000), wk =   0.0937500
        k(    7) = (   0.2500000   0.2500000   0.2500000), wk =   0.1875000
        k(    8) = (   0.2500000   0.2500000  -0.5000000), wk =   0.1875000
        k(    9) = (   0.2500000  -0.5000000  -0.5000000), wk =   0.1875000
        k(   10) = (  -0.5000000  -0.5000000  -0.5000000), wk =   0.0312500
        k(   11) = (   0.2500000   0.0000000   0.2500000), wk =   0.1875000
        k(   12) = (   0.2500000  -0.2500000   0.2500000), wk =   0.0625000
        k(   13) = (   0.2500000  -0.2500000  -0.5000000), wk =   0.1875000

     Dense  grid:    34049 G-vectors     FFT dimensions: (  45,  45,  45)

     Smooth grid:    24303 G-vectors     FFT dimensions: (  36,  36,  36)

     Dynamical RAM for                 wfc:       0.08 MB

     Dynamical RAM for     wfc (w. buffer):       1.10 MB

     Dynamical RAM for           str. fact:       0.05 MB

     Dynamical RAM for           local pot:       0.00 MB

     Dynamical RAM for          nlocal pot:       0.26 MB

     Dynamical RAM for                qrad:       0.43 MB

     Dynamical RAM for          rho,v,vnew:       0.39 MB

     Dynamical RAM for               rhoin:       0.13 MB

     Dynamical RAM for            rho*nmix:       0.83 MB

     Dynamical RAM for           G-vectors:       0.21 MB

     Dynamical RAM for          h,s,v(r/c):       0.21 MB

     Dynamical RAM for          <psi|beta>:       0.01 MB

     Dynamical RAM for                 psi:       0.32 MB

     Dynamical RAM for                hpsi:       0.32 MB

     Dynamical RAM for                spsi:       0.32 MB

     Dynamical RAM for      wfcinit/wfcrot:       0.16 MB

     Dynamical RAM for           addusdens:       2.60 MB

     Dynamical RAM for          addusforce:       3.25 MB

     Dynamical RAM for         addusstress:       2.60 MB

     Estimated static dynamical RAM per process >       3.06 MB

     Estimated max dynamical RAM per process >       7.15 MB

     Estimated total dynamical RAM >      71.49 MB

     Atomic positions and unit cell read from directory:
     ./diamond.save/
     Atomic positions from file used, from input discarded
 

     Check: negative core charge=   -0.000014

     The initial density is read from file :
     ./diamond.save/charge-density



     %%%%%%%%%%%%%%%%%%%%%%%%%%%%%%%%%%%%%%%%%%%%%%%%%%%%%%%%%%%%%%%%%%%%%%%%
     %                                                                      %
     % You are using vdW-DF, which was implemented by the Thonhauser group. %
     % Please cite the following two papers that made this development      %
     % possible and the two reviews that describe the various versions:     %
     %                                                                      %
     %   T. Thonhauser et al., PRL 115, 136402 (2015).                      %
     %   T. Thonhauser et al., PRB 76, 125112 (2007).                       %
     %   K. Berland et al., Rep. Prog. Phys. 78, 066501 (2015).             %
     %   D.C. Langreth et al., J. Phys.: Condens. Matter 21, 084203 (2009). %
     %                                                                      %
     % If you are calculating stress with vdW-DF, please also cite:         %
     %                                                                      %
     %   R. Sabatini et al., J. Phys.: Condens. Matter 24, 424209 (2012).   %
     %                                                                      %
     %%%%%%%%%%%%%%%%%%%%%%%%%%%%%%%%%%%%%%%%%%%%%%%%%%%%%%%%%%%%%%%%%%%%%%%%

     %%%%%%%%%%%%%%%%%%%%%%%%%%%%%%%%%%%%%%%%%%%%%%%%%%%%%%%%%%%%%%%%%%%%%%%%
     %                                                                      %
     %  vdW-DF NEWS:                                                        %
     %                                                                      %
     %  * vdW-DF3 is now available. DOI: 10.1021/acs.jctc.0c00471           %
     %    use with input_dft = 'vdW-DF3-opt1' or 'vdW-DF3-opt2'             %
     %                                                                      %
     %  * Unscreened and range-separated hybrid vdW-DF-cx functionals       %
     %    DOI: 10.1063/1.4986522 and 10.1088/1361-648X/ac2ad2               %
     %    use with input_dft = 'vdW-DF-cx0'    and 'vdW-DF-ahcx'            %
     %  * Unscreened and range-separated hybrid vdW-DF2-b86r functionals    %
     %    DOI: 10.1063/1.4986522 and DOI: 10.1103/PhysRevX.12.041003        %
     %    use with input_dft = 'vdW-DF2-br0' and 'vdW-DF2-ahbr'             %
     %                                                                      %
     %%%%%%%%%%%%%%%%%%%%%%%%%%%%%%%%%%%%%%%%%%%%%%%%%%%%%%%%%%%%%%%%%%%%%%%%


     Carrying out vdW-DF run using the following parameters:
     Nqs    =  20  Npoints =  1024  r_max =  100.000
     q_mesh =  0.00001000  0.04494208  0.09755937  0.15916263
               0.23128650  0.31572767  0.41458969  0.53033537
               0.66584808  0.82450364  1.01025438  1.22772762
               1.48234092  1.78043706  2.12944203  2.53805004
               3.01644009  3.57652955  4.23227104  5.00000000


     -----------------------------------------------
     Non-local corr. energy    =       0.26463458 Ry
     -----------------------------------------------

     Starting wfcs from file
     Checking if some PAW data can be deallocated... 

     total cpu time spent up to now is        2.7 secs

     Self-consistent Calculation

     iteration #  1     ecut=    70.00 Ry     beta= 0.70
     Davidson diagonalization with overlap

---- Real-time Memory Report at c_bands before calling an iterative solver
           214 MiB given to the printing process from OS
             0 MiB allocation reported by mallinfo(arena+hblkhd)
       1968417 MiB available memory on the node where the printing process lives
------------------
     ethr =  1.00E-05,  avg # of iterations =  1.0

     Threshold (ethr) on eigenvalues was too large:
     Diagonalizing with lowered threshold

     Davidson diagonalization with overlap

---- Real-time Memory Report at c_bands before calling an iterative solver
           218 MiB given to the printing process from OS
             0 MiB allocation reported by mallinfo(arena+hblkhd)
       1968402 MiB available memory on the node where the printing process lives
------------------
     c_bands:  1 eigenvalues not converged
     c_bands:  1 eigenvalues not converged
     c_bands:  1 eigenvalues not converged
     ethr =  2.73E-12,  avg # of iterations =  9.5


     -----------------------------------------------
     Non-local corr. energy    =       0.26463460 Ry
     -----------------------------------------------


     total cpu time spent up to now is        3.2 secs

     End of self-consistent calculation

          k = 0.0000 0.0000 0.0000 (  2969 PWs)   bands (ev):

   -10.7471  -2.7677  -2.7677  -2.1270  -2.1268  -2.1267   4.4911   4.4911
     4.4912   4.5670   5.6598   5.6598   5.6604  14.0023  14.0024  14.0035
    15.7232

     occupation numbers 
     1.0000   1.0000   1.0000   1.0000   1.0000   1.0000   1.0000   1.0000
     1.0000   1.0000   1.0000   1.0000   1.0000   0.0000   0.0000   0.0000
     0.0000

          k = 0.0000 0.0000 0.2500 (  3042 PWs)   bands (ev):

   -10.3075  -5.3874  -2.5908  -1.8640  -1.8638   0.1737   3.7054   3.7056
     3.9127   4.7504   5.7068   5.7070   6.0630  12.8591  13.6627  13.6635
    15.6205

     occupation numbers 
     1.0000   1.0000   1.0000   1.0000   1.0000   1.0000   1.0000   1.0000
     1.0000   1.0000   1.0000   1.0000   1.0000   0.0000   0.0000   0.0000
     0.0000

          k = 0.0000 0.0000-0.5000 (  3026 PWs)   bands (ev):

    -9.5988  -7.0119  -2.3917  -1.5406  -1.5403   1.4785   2.9060   2.9063
     3.3541   3.6733   5.8211   5.8213   8.4276  10.8189  13.2008  13.2017
    15.6734

     occupation numbers 
     1.0000   1.0000   1.0000   1.0000   1.0000   1.0000   1.0000   1.0000
     1.0000   1.0000   1.0000   1.0000   1.0000   0.0000   0.0000   0.0000
     0.0000

          k = 0.0000 0.2500 0.2500 (  3031 PWs)   bands (ev):

    -9.8609  -5.3792  -4.7252  -1.6622  -0.8422   1.5176   1.7863   3.7186
     3.8660   4.7015   5.1996   6.5407   7.0363  12.0168  13.0183  13.6546
    17.0518

     occupation numbers 
     1.0000   1.0000   1.0000   1.0000   1.0000   1.0000   1.0000   1.0000
     1.0000   1.0000   1.0000   1.0000   1.0000   0.0000   0.0000   0.0000
     0.0000

          k = 0.0000 0.2500-0.5000 (  3016 PWs)   bands (ev):

    -9.1245  -6.7333  -4.6637  -1.5267  -0.4390   0.8720   2.2014   3.2158
     3.6803   4.5532   5.2207   6.7742   8.5480  11.0752  12.7200  12.9233
    17.3050

     occupation numbers 
     1.0000   1.0000   1.0000   1.0000   1.0000   1.0000   1.0000   1.0000
     1.0000   1.0000   1.0000   1.0000   1.0000   0.0000   0.0000   0.0000
     0.0000

          k = 0.0000-0.5000-0.5000 (  3048 PWs)   bands (ev):

    -8.2673  -6.3880  -6.3879  -1.8975   0.0238   0.5771   2.3822   2.3823
     4.5785   4.5788   4.7879   8.0654   8.7155  10.8230  12.8391  12.8396
    18.6073

     occupation numbers 
     1.0000   1.0000   1.0000   1.0000   1.0000   1.0000   1.0000   1.0000
     1.0000   1.0000   1.0000   1.0000   1.0000   0.0000   0.0000   0.0000
     0.0000

          k = 0.2500 0.2500 0.2500 (  3058 PWs)   bands (ev):

    -9.4077  -5.1191  -5.1190  -3.5415   0.9139   0.9140   1.9529   2.7381
     2.7381   5.9008   6.5952   6.5955   7.5020  10.9629  13.5343  13.5353
    17.5063

     occupation numbers 
     1.0000   1.0000   1.0000   1.0000   1.0000   1.0000   1.0000   1.0000
     1.0000   1.0000   1.0000   1.0000   1.0000   0.0000   0.0000   0.0000
     0.0000

          k = 0.2500 0.2500-0.5000 (  3050 PWs)   bands (ev):

    -8.6418  -6.4564  -4.8016  -3.4781   0.0585   0.4426   1.6347   2.7113
     3.9306   6.1814   6.7071   6.8273   7.8436  11.4194  12.7002  13.4539
    17.6009

     occupation numbers 
     1.0000   1.0000   1.0000   1.0000   1.0000   1.0000   1.0000   1.0000
     1.0000   1.0000   1.0000   1.0000   1.0000   0.0000   0.0000   0.0000
     0.0000

          k = 0.2500-0.5000-0.5000 (  3060 PWs)   bands (ev):

    -7.7371  -6.1137  -6.1136  -3.6282  -0.8633   0.4782   0.4784   3.4221
     4.8873   6.6522   6.6523   7.1824   8.0299  12.3489  13.0918  13.0923
    18.7025

     occupation numbers 
     1.0000   1.0000   1.0000   1.0000   1.0000   1.0000   1.0000   1.0000
     1.0000   1.0000   1.0000   1.0000   1.0000   0.0000   0.0000   0.0000
     0.0000

          k =-0.5000-0.5000-0.5000 (  3112 PWs)   bands (ev):

    -6.4650  -5.7749  -5.7748  -5.7748  -0.7145  -0.7145  -0.7141   4.9928
     4.9929   6.2057   7.9872   7.9873   7.9873  13.4008  13.4009  13.4017
    18.7286

     occupation numbers 
     1.0000   1.0000   1.0000   1.0000   1.0000   1.0000   1.0000   1.0000
     1.0000   1.0000   1.0000   1.0000   1.0000   0.0000   0.0000   0.0000
     0.0000

          k = 0.2500 0.0000 0.2500 (  3031 PWs)   bands (ev):

    -9.8609  -5.3792  -4.7253  -1.6622  -0.8423   1.5176   1.7865   3.7187
     3.8661   4.7015   5.1997   6.5403   7.0362  12.0175  13.0182  13.6538
    17.0513

     occupation numbers 
     1.0000   1.0000   1.0000   1.0000   1.0000   1.0000   1.0000   1.0000
     1.0000   1.0000   1.0000   1.0000   1.0000   0.0000   0.0000   0.0000
     0.0000

          k = 0.2500-0.2500 0.2500 (  3058 PWs)   bands (ev):

    -9.4077  -5.1190  -5.1190  -3.5416   0.9137   0.9137   1.9534   2.7384
     2.7384   5.9008   6.5950   6.5950   7.5018  10.9636  13.5343  13.5344
    17.5059

     occupation numbers 
     1.0000   1.0000   1.0000   1.0000   1.0000   1.0000   1.0000   1.0000
     1.0000   1.0000   1.0000   1.0000   1.0000   0.0000   0.0000   0.0000
     0.0000

          k = 0.2500-0.2500-0.5000 (  3050 PWs)   bands (ev):

    -8.6418  -6.4564  -4.8015  -3.4782   0.0583   0.4429   1.6348   2.7115
     3.9307   6.1811   6.7070   6.8273   7.8435  11.4199  12.7005  13.4531
    17.6007

     occupation numbers 
     1.0000   1.0000   1.0000   1.0000   1.0000   1.0000   1.0000   1.0000
     1.0000   1.0000   1.0000   1.0000   1.0000   0.0000   0.0000   0.0000
     0.0000

     the Fermi energy is    10.0276 ev

!    total energy              =    -134.17805003 Ry
     total all-electron energy =      -538.526730 Ry
     estimated scf accuracy    <          1.1E-09 Ry
     smearing contrib. (-TS)   =      -0.00000000 Ry
     internal energy E=F+TS    =    -134.17805003 Ry

     The total energy is F=E-TS. E is the sum of the following terms:
     one-electron contribution =       8.04074061 Ry
     hartree contribution      =      12.96458217 Ry
     xc contribution           =     -31.87836995 Ry
     ewald contribution        =     -77.48672890 Ry
     one-center paw contrib.   =     -45.81827397 Ry
      -> PAW hartree energy AE =       7.55763638 Ry
      -> PAW hartree energy PS =      -7.54917543 Ry
      -> PAW xc energy AE      =     -10.76532553 Ry
      -> PAW xc energy PS      =       4.20606847 Ry
      -> total E_H with PAW    =      12.97304312 Ry
      -> total E_XC with PAW   =     -38.43762701 Ry

     convergence has been achieved in   1 iterations


     -----------------------------------------------
     Non-local corr. energy    =       0.26463460 Ry
     -----------------------------------------------


     Forces acting on atoms (cartesian axes, Ry/au):

     atom    1 type  1   force =    -0.00003790    0.00003790   -0.00015711
     atom    2 type  1   force =     0.00010208   -0.00002330    0.00002330
     atom    3 type  1   force =    -0.00003790    0.00015711   -0.00003790
     atom    4 type  1   force =     0.00002330   -0.00010208    0.00002330
     atom    5 type  1   force =    -0.00015711    0.00003790   -0.00003790
     atom    6 type  1   force =     0.00002330   -0.00002330    0.00010208
     atom    7 type  1   force =     0.00008424   -0.00008424    0.00008424
     The non-local contrib.  to forces
     atom    1 type  1   force =    -0.24245307    0.24245307    0.24256540
     atom    2 type  1   force =     0.00015885   -0.00001748    0.00001748
     atom    3 type  1   force =    -0.24245307   -0.24256540   -0.24245307
     atom    4 type  1   force =     0.00001748   -0.00015885    0.00001748
     atom    5 type  1   force =     0.24256540    0.24245307   -0.24245307
     atom    6 type  1   force =     0.00001748   -0.00001748    0.00015885
     atom    7 type  1   force =     0.24218261   -0.24218261    0.24218261
     The ionic contribution  to forces
     atom    1 type  1   force =     2.24622667   -2.24622682   -2.24597387
     atom    2 type  1   force =    -0.00061039   -0.00009204    0.00009204
     atom    3 type  1   force =     2.24622673    2.24597397    2.24622673
     atom    4 type  1   force =     0.00009204    0.00061047    0.00009204
     atom    5 type  1   force =    -2.24597387   -2.24622682    2.24622667
     atom    6 type  1   force =     0.00009204   -0.00009204   -0.00061039
     atom    7 type  1   force =    -2.24605322    2.24605328   -2.24605322
     The local contribution  to forces
     atom    1 type  1   force =    -2.00822587    2.00822587    2.00791843
     atom    2 type  1   force =     0.00031708    0.00002177   -0.00002154
     atom    3 type  1   force =    -2.00822580   -2.00791828   -2.00822580
     atom    4 type  1   force =    -0.00002154   -0.00031703   -0.00002154
     atom    5 type  1   force =     2.00791843    2.00822587   -2.00822587
     atom    6 type  1   force =    -0.00002154    0.00002177    0.00031708
     atom    7 type  1   force =     2.00832944   -2.00832936    2.00832944
     The core correction contribution to forces
     atom    1 type  1   force =     0.00442380   -0.00442380   -0.00465238
     atom    2 type  1   force =     0.00022414    0.00003783   -0.00003784
     atom    3 type  1   force =     0.00442380    0.00465237    0.00442380
     atom    4 type  1   force =    -0.00003784   -0.00022415   -0.00003784
     atom    5 type  1   force =    -0.00465238   -0.00442380    0.00442380
     atom    6 type  1   force =    -0.00003784    0.00003783    0.00022414
     atom    7 type  1   force =    -0.00435836    0.00435835   -0.00435836
     The Hubbard contrib.    to forces
     atom    1 type  1   force =     0.00000000    0.00000000    0.00000000
     atom    2 type  1   force =     0.00000000    0.00000000    0.00000000
     atom    3 type  1   force =     0.00000000    0.00000000    0.00000000
     atom    4 type  1   force =     0.00000000    0.00000000    0.00000000
     atom    5 type  1   force =     0.00000000    0.00000000    0.00000000
     atom    6 type  1   force =     0.00000000    0.00000000    0.00000000
     atom    7 type  1   force =     0.00000000    0.00000000    0.00000000
     The SCF correction term to forces
     atom    1 type  1   force =    -0.00000127    0.00000127   -0.00000635
     atom    2 type  1   force =     0.00002071    0.00001850   -0.00001850
     atom    3 type  1   force =    -0.00000127    0.00000635   -0.00000127
     atom    4 type  1   force =    -0.00001850   -0.00002071   -0.00001850
     atom    5 type  1   force =    -0.00000635    0.00000127   -0.00000127
     atom    6 type  1   force =    -0.00001850    0.00001850    0.00002071
     atom    7 type  1   force =    -0.00000792    0.00000792   -0.00000792

     Total force =     0.000372     Total SCF correction =     0.000060
     SCF correction compared to forces is large: reduce conv_thr to get better values


     Computing stress (Cartesian axis) and pressure



     -----------------------------------------------
     Non-local corr. energy    =       0.26463460 Ry
     -----------------------------------------------

          total   stress  (Ry/bohr**3)                   (kbar)     P=     -904.36
  -0.00614768  -0.00000051   0.00000051         -904.36       -0.08        0.08
  -0.00000051  -0.00614768  -0.00000051           -0.08     -904.36       -0.08
   0.00000051  -0.00000051  -0.00614768            0.08       -0.08     -904.36

     kinetic stress (kbar)  15134.34     -0.09      0.09
                               -0.09  15134.34     -0.09
                                0.09     -0.09  15134.34

     local   stress (kbar)  -5843.33     -0.44      0.43
                               -0.44  -5843.33     -0.44
                                0.43     -0.44  -5843.33

     nonloc. stress (kbar)   3969.02      0.02     -0.02
                                0.02   3969.02      0.02
                               -0.02      0.02   3969.02

     hartree stress (kbar)   2066.44      0.07     -0.07
                                0.07   2066.44      0.07
                               -0.07      0.07   2066.44

     exc-cor stress (kbar)    -54.55      0.04     -0.04
                                0.04    -54.55      0.04
                               -0.04      0.04    -54.55

     corecor stress (kbar)  -3851.44     -0.05      0.05
                               -0.05  -3851.44     -0.05
                                0.05     -0.05  -3851.44

     ewald   stress (kbar) -12350.72      0.38     -0.38
                                0.38 -12350.72      0.38
                               -0.38      0.38 -12350.72

     hubbard stress (kbar)      0.00      0.00      0.00
                                0.00      0.00      0.00
                                0.00      0.00      0.00

     DFT-D   stress (kbar)      0.00      0.00      0.00
                                0.00      0.00      0.00
                                0.00      0.00      0.00

     XDM     stress (kbar)      0.00      0.00      0.00
                                0.00      0.00      0.00
                                0.00      0.00      0.00

     dft-nl  stress (kbar)     25.87     -0.00      0.00
                               -0.00     25.87     -0.00
                                0.00     -0.00     25.87

     TS-vdW  stress (kbar)      0.00      0.00      0.00
                                0.00      0.00      0.00
                                0.00      0.00      0.00

     MDB     stress (kbar)      0.00      0.00      0.00
                                0.00      0.00      0.00
                                0.00      0.00      0.00

     3D-RISM stress (kbar)      0.00      0.00      0.00
                                0.00      0.00      0.00
                                0.00      0.00      0.00



     -----------------------------------------------
     Non-local corr. energy    =       0.26463460 Ry
     -----------------------------------------------



     -----------------------------------------------
     Non-local corr. energy    =       0.26463460 Ry
     -----------------------------------------------



     -----------------------------------------------
     Non-local corr. energy    =       0.26463460 Ry
     -----------------------------------------------



     -----------------------------------------------
     Non-local corr. energy    =       0.26463460 Ry
     -----------------------------------------------



     -----------------------------------------------
     Non-local corr. energy    =       0.26463460 Ry
     -----------------------------------------------



     -----------------------------------------------
     Non-local corr. energy    =       0.26463460 Ry
     -----------------------------------------------



     -----------------------------------------------
     Non-local corr. energy    =       0.26463460 Ry
     -----------------------------------------------



     -----------------------------------------------
     Non-local corr. energy    =       0.26463460 Ry
     -----------------------------------------------



     -----------------------------------------------
     Non-local corr. energy    =       0.26463460 Ry
     -----------------------------------------------



     -----------------------------------------------
     Non-local corr. energy    =       0.26463460 Ry
     -----------------------------------------------



     -----------------------------------------------
     Non-local corr. energy    =       0.26463460 Ry
     -----------------------------------------------



     -----------------------------------------------
     Non-local corr. energy    =       0.26463460 Ry
     -----------------------------------------------



     -----------------------------------------------
     Non-local corr. energy    =       0.26463460 Ry
     -----------------------------------------------



     -----------------------------------------------
     Non-local corr. energy    =       0.26463460 Ry
     -----------------------------------------------



     -----------------------------------------------
     Non-local corr. energy    =       0.26463460 Ry
     -----------------------------------------------



     -----------------------------------------------
     Non-local corr. energy    =       0.26463460 Ry
     -----------------------------------------------



     -----------------------------------------------
     Non-local corr. energy    =       0.26463460 Ry
     -----------------------------------------------



     -----------------------------------------------
     Non-local corr. energy    =       0.26463460 Ry
     -----------------------------------------------



     -----------------------------------------------
     Non-local corr. energy    =       0.26463460 Ry
     -----------------------------------------------



     -----------------------------------------------
     Non-local corr. energy    =       0.26463460 Ry
     -----------------------------------------------



     -----------------------------------------------
     Non-local corr. energy    =       0.26463460 Ry
     -----------------------------------------------



     -----------------------------------------------
     Non-local corr. energy    =       0.26463460 Ry
     -----------------------------------------------



     -----------------------------------------------
     Non-local corr. energy    =       0.26463460 Ry
     -----------------------------------------------



     -----------------------------------------------
     Non-local corr. energy    =       0.26463460 Ry
     -----------------------------------------------



     -----------------------------------------------
     Non-local corr. energy    =       0.26463460 Ry
     -----------------------------------------------



     -----------------------------------------------
     Non-local corr. energy    =       0.26463460 Ry
     -----------------------------------------------



     -----------------------------------------------
     Non-local corr. energy    =       0.26463460 Ry
     -----------------------------------------------



     -----------------------------------------------
     Non-local corr. energy    =       0.26463460 Ry
     -----------------------------------------------



     -----------------------------------------------
     Non-local corr. energy    =       0.26463460 Ry
     -----------------------------------------------



     -----------------------------------------------
     Non-local corr. energy    =       0.26463460 Ry
     -----------------------------------------------



     -----------------------------------------------
     Non-local corr. energy    =       0.26463460 Ry
     -----------------------------------------------



     -----------------------------------------------
     Non-local corr. energy    =       0.26463460 Ry
     -----------------------------------------------



     -----------------------------------------------
     Non-local corr. energy    =       0.26463460 Ry
     -----------------------------------------------



     -----------------------------------------------
     Non-local corr. energy    =       0.26463460 Ry
     -----------------------------------------------

 BEEFens 2000 ensemble energies
             -0.231577359234836E+01
             -0.165703145999387E+00
             -0.487332965537041E+00
              0.164963698471682E+01
             -0.723250800265045E+00
             -0.580973271017225E+00
             -0.169009412465220E+01
             -0.350637771299816E+01
             -0.124801249163287E+01
             -0.138669638164875E+01
             -0.143997701410489E+01
              0.254955929463536E+00
              0.154118678621783E+00
             -0.216438282593526E+00
              0.153437452914496E+00
              0.172891660565406E+01
             -0.681624099222400E+00
             -0.379316544946806E+00
              0.864901316907691E+00
             -0.400312366865158E+01
              0.215458589551178E+01
             -0.732682551254790E+00
             -0.225741961933128E+00
             -0.312884408413712E+00
              0.395845517644062E-01
             -0.176235646808408E+00
              0.312196754877839E+01
             -0.952062460908798E+00
             -0.288052030433601E+00
             -0.210044927477836E+01
              0.248554982249701E+01
             -0.156531694272062E+00
             -0.152327752771036E+01
              0.698346405791565E+00
             -0.118390142888380E+00
              0.107145237232371E+01
              0.890327585032420E-01
             -0.134919556386119E-01
              0.134877900793698E+01
             -0.360255492572416E+01
              0.193632703198419E+01
              0.467569675349247E+00
             -0.453551585756649E+00
             -0.112886316406030E+01
              0.420519669807073E+00
             -0.703559069183271E+00
              0.185192557223521E+01
              0.127952546368238E+01
             -0.675755563735930E+00
             -0.120039601181493E+01
             -0.116165767523730E+01
             -0.130213041643406E+01
              0.697150066527623E+00
             -0.190983806889554E+01
              0.598484367104103E+00
              0.221517252259082E+01
              0.279758624508629E+01
              0.112964680630114E+01
              0.556006594045700E+00
              0.115769780671983E+01
              0.325909269052184E+01
              0.590378555718612E+00
             -0.199382178266422E+01
             -0.290658326918400E+00
             -0.101000716477594E+01
              0.227619736205119E+01
             -0.253878653523835E+01
             -0.212940742072971E+01
             -0.119077378763436E+01
             -0.667571445611173E+00
             -0.143747058665951E+01
              0.973847873423271E+00
              0.426370149887369E+00
              0.622378845328724E+00
             -0.134644234034239E+01
             -0.131255741675044E+01
             -0.219063620344407E+01
              0.115765655292837E+01
             -0.129470253156509E+01
              0.109072860052712E+01
             -0.274521540744501E+00
             -0.979930279400081E+00
             -0.187317538045189E+01
             -0.601767159850509E+00
             -0.618398177354742E+00
             -0.564280076477941E+00
              0.134891043133155E+01
              0.284436240704803E+01
             -0.170021183887552E+01
             -0.292375956777998E+01
             -0.649743409735330E+00
              0.394501450248309E+01
             -0.201040750356638E+01
              0.113507699979944E+01
             -0.499766897435801E+00
             -0.208672908967838E+01
              0.919344434305338E+00
              0.111496368033554E+01
             -0.603400967656153E+00
              0.105155753842723E+01
             -0.867818093665505E+00
             -0.224502586635012E+01
              0.364765226299008E+01
              0.174060772955501E+01
              0.766031397328995E+00
              0.556354380184214E+00
              0.100765912375746E+01
              0.292344074511128E+01
             -0.884019382217652E+00
              0.100540638697439E+00
             -0.497228701912656E+01
              0.573146567847176E+00
             -0.239632999175745E+01
              0.451173147756803E+00
              0.796860622411753E+00
             -0.138292752724793E+01
             -0.180043662823867E+01
              0.123941561720351E+00
             -0.110755351424609E+01
              0.163730616845374E+01
             -0.171494148393656E+01
             -0.313056639849730E+00
             -0.136577324732841E+01
             -0.187716227948156E+00
              0.147886302387525E+00
              0.848985411973377E+00
              0.321191274448651E-02
             -0.173525033347392E+00
              0.240681491730116E+01
              0.334673273648208E+01
              0.181092795773356E+01
              0.237230292812168E+01
             -0.413460692462929E+00
              0.413448708432153E+00
              0.187970659647184E+01
              0.140825963061124E+00
             -0.275103107543598E+01
             -0.153477774786247E+01
             -0.175028843613813E+01
             -0.104082953584421E+01
              0.913586412959082E+00
             -0.444648637532592E+01
             -0.518721835002097E+00
              0.174608274121303E+01
             -0.137948103017523E+01
             -0.109176874896275E+01
              0.216012883041734E+01
              0.173111304138664E+01
             -0.104020665119995E+01
              0.117751940001978E+01
             -0.867259756809465E+00
              0.132944030734065E+01
              0.190469804927746E+00
              0.339520956922408E+00
             -0.294980102588693E+01
             -0.171381800225956E+01
             -0.228081597404369E+00
             -0.359634841823355E-01
             -0.154452371798854E+01
              0.403158617199431E+01
             -0.477218437316605E+00
             -0.944746574792797E+00
              0.138569391951979E+01
             -0.164029073528204E+01
             -0.135169751914922E+01
              0.120685257213470E+01
              0.482214182736142E+00
              0.390231945420922E+00
              0.625672396968038E+00
             -0.387444232993852E+00
              0.371290504774462E+00
              0.208908557719577E+01
             -0.957879253552765E+00
              0.807967484746680E+00
              0.319741482886254E+01
              0.118430629600698E+01
             -0.207351102680583E+00
             -0.813548040799234E+00
              0.569917966217851E+01
             -0.889895661606940E+00
              0.137744900762537E+01
              0.108773875061801E+01
              0.100985215401145E+01
              0.333345312907648E+01
              0.171350526100047E+01
             -0.210944268150920E+00
              0.967123083727497E+00
              0.190033316152755E+01
              0.145789073051019E+01
             -0.219315426249493E+01
              0.340941027801508E+01
             -0.300705798725013E+01
             -0.407450996384209E+00
              0.204663573491244E+01
              0.657966674092679E+00
              0.310575614056450E+00
              0.964034477384846E+00
              0.589665539243105E+00
              0.122143936078293E+01
             -0.232504330213527E+01
              0.155786090110169E+00
             -0.864815962729249E+00
             -0.319993222385066E+00
             -0.191595829162058E+00
             -0.471283645016048E+00
             -0.236879382238621E+00
              0.292107699735019E+01
             -0.210765690660637E+00
             -0.100706627256247E+01
             -0.112265924814000E-01
              0.510398894077568E+00
             -0.236472838923380E+01
             -0.203578793093091E+01
             -0.126392316889973E+01
             -0.233419175801396E+01
             -0.730278903727440E+00
             -0.146878224164654E+01
              0.686575745138311E+00
              0.963583103513339E-01
             -0.441051313822149E+00
             -0.287000690368554E+00
              0.152702764681043E+00
             -0.387383414420120E+00
              0.238045055715151E+01
             -0.316847594954828E+01
             -0.561762116549460E+00
             -0.457334512892768E+00
              0.501859637749703E+00
              0.829004922425614E+00
             -0.186829338631172E+01
             -0.514456592221253E+00
              0.156097258857288E+01
             -0.619121703578216E+00
              0.520210663862645E+00
              0.116371707796183E+01
             -0.106031082728373E+00
              0.419755486525725E+01
             -0.455831501380480E+00
             -0.117390329447376E+01
              0.729231779236770E-01
             -0.950695553223618E+00
              0.207889355512692E+01
             -0.167803300280482E+01
              0.440958448264919E+00
              0.194245631757179E+01
             -0.408773526735892E+00
              0.432556651457448E+01
              0.468885737611904E+01
             -0.246736613368467E+01
              0.211070820872613E+01
              0.869123118190725E+00
             -0.206198885309477E+01
              0.561691403959236E+00
              0.154273117381241E+01
              0.168124054022290E+01
              0.144110744723406E+00
              0.559860340085237E+00
              0.269211653915167E+01
             -0.845229772612194E+00
              0.375637721793837E+00
              0.252770743336490E+01
             -0.132608927699137E+01
             -0.848337989149422E+00
              0.212018496326167E+01
              0.106465677485521E+01
              0.282103442313768E+01
              0.119101419525362E+01
              0.439621280100171E+00
              0.937092215730895E+00
              0.150409998448552E+01
             -0.193931912685474E+01
              0.290601376539623E+00
              0.102578806507272E+01
              0.507069972152557E+00
              0.863097015974614E+00
             -0.220408513869823E+01
              0.117452845396714E+01
             -0.160741686784566E+01
             -0.111209627278217E+01
              0.723015271094301E+00
             -0.273887115710164E+00
              0.221141625345666E+01
             -0.508893436761431E+00
              0.113273774255779E+01
              0.114107091954744E+01
              0.280423051021609E+01
              0.188137616316379E+01
              0.177423450759637E+01
             -0.370704403300692E-01
             -0.461191795188393E+00
             -0.102231792279769E+01
              0.298214199259922E+01
              0.298106984070877E+01
              0.148606479008508E+01
             -0.103654079163908E+01
              0.181471732665117E+01
              0.447468196276937E-01
              0.566925113561314E+00
              0.247863822785945E+01
             -0.165552406450065E-01
             -0.285719760807453E+00
             -0.695858503873129E+00
             -0.220167147870405E+01
              0.354280933173998E+01
              0.187737255104393E+01
             -0.232868235924340E+01
             -0.827218707254281E+00
              0.958112593991949E+00
             -0.312585146489178E+00
              0.244386134207045E+01
              0.509309510966460E+00
              0.302006578840763E+01
              0.121498942022925E+01
             -0.918220386639010E+00
              0.752718039572145E+00
             -0.240727342834715E+00
             -0.987390328193317E+00
              0.641140386363841E+00
              0.554041247769163E+00
              0.331653021181090E+01
              0.283738932207411E+01
              0.202044824167698E+01
              0.239389903799942E+01
              0.197703428983647E+00
             -0.897420525259253E+00
              0.538206511239016E+00
             -0.117136083703696E+01
             -0.206231751951301E+01
             -0.206833944741108E+01
             -0.113856416852520E+01
             -0.388119918531069E+01
             -0.135290245496503E+01
             -0.317046102597445E+01
              0.832454335502840E+00
             -0.159422286540840E+01
              0.181286469740348E+01
             -0.364434078849163E+01
             -0.112601275632250E+01
              0.141512855756321E+01
              0.842747972276467E+00
             -0.336514962338037E+01
              0.202132894077632E+01
             -0.977082973935399E+00
              0.199172423488582E+01
             -0.943384770810864E+00
             -0.293607015590387E+01
              0.594129154414627E+00
             -0.245335948219101E+01
             -0.110631724665126E+00
             -0.324954224379179E-01
              0.149920115596510E+01
              0.459328842433319E+01
             -0.156356852102363E+01
             -0.137680270251389E+01
             -0.152352118256882E+00
             -0.289493331058621E+00
             -0.296828083879824E+01
             -0.196809951018901E+01
              0.174862640923723E+01
             -0.671551207746385E+00
              0.862204551190811E+00
             -0.180626723319467E+01
             -0.642357102740666E+00
             -0.147197627180019E+01
              0.182000411548793E+01
              0.459793229623273E+00
             -0.861841462038903E+00
             -0.668443365212418E+00
              0.489502854669377E+00
             -0.256376968836278E+00
              0.153718878783381E+01
             -0.930463451635244E+00
              0.385224723812584E+00
              0.124042333951629E+01
              0.497584218479652E+00
             -0.826685325066430E+00
              0.563833808669494E+01
              0.213024277992867E+01
              0.359339377302771E+00
              0.289883366359046E+00
             -0.218605450163331E+01
              0.122493277501180E+01
             -0.293376477233295E+01
             -0.122053383330094E+01
             -0.213596396597440E+01
             -0.665005422140695E+00
              0.212955793174716E+01
             -0.209967637429073E+01
              0.965478459994022E+00
             -0.127628175759813E+00
              0.717641533256614E-01
             -0.114211537165252E+01
             -0.154168411669422E+01
             -0.144447603565450E+00
             -0.122499006962051E+01
             -0.824439510307956E+00
             -0.149127969550200E+01
             -0.241457154838694E+00
             -0.120720469851696E+01
             -0.179492541639648E+01
              0.703340278524399E+00
             -0.443537781126881E+00
              0.894686570084520E+00
              0.262243089812821E+00
             -0.276541507395582E+01
             -0.186345484707361E+01
             -0.175589831966233E+01
              0.114997938291170E+01
             -0.254168737358264E+00
             -0.224166382986401E+01
              0.206736175824595E+01
             -0.149882849042653E+01
              0.220185781892560E+01
             -0.113325539925310E+01
             -0.180126515371714E+01
              0.906329232863179E+00
             -0.265416058873197E+01
             -0.115868167083555E+01
              0.204242509574013E+01
              0.656751681982247E+00
             -0.163229655654825E+01
              0.195854465672471E+01
             -0.580082074859973E+00
             -0.139970921603445E+01
             -0.106807835294987E+01
             -0.184784945146076E+01
              0.918439412669091E+00
             -0.314197623578926E+01
             -0.277231604118032E+01
             -0.352774645299263E+00
             -0.108850296950543E+01
             -0.211649211101602E+01
              0.280105751158010E+01
              0.501351844147757E+01
             -0.815998414558366E+00
             -0.192338736604706E+00
             -0.211825618549381E+01
              0.248078497295544E+01
              0.767933734499900E+00
             -0.759180322780896E+00
             -0.129250325626863E+01
              0.603119620098597E+00
             -0.219212918937855E+01
             -0.486732562819610E+00
             -0.311898821600604E+01
              0.129842015339499E+01
              0.314604126312988E+00
             -0.197699836008166E+00
             -0.414698691793788E+00
             -0.149691256851384E+01
             -0.445240508164549E+00
              0.488492463644662E+01
             -0.646228210560487E+00
             -0.174728748608180E+01
             -0.255037500466938E+01
              0.501292827861882E+00
             -0.141449013273084E+01
              0.416640991628779E+00
              0.121274436098782E+01
              0.154101097989830E+00
              0.121160237162229E+01
              0.591173656159424E+00
              0.212707926080888E+01
              0.927586208699732E+00
             -0.134065556099735E+01
              0.201601686266280E+01
              0.121407458318519E+01
              0.442089905857877E+00
              0.130895031564292E+01
             -0.118100452925766E+01
              0.261149269934403E+01
              0.958662944713683E+00
             -0.127183444679658E+01
             -0.111392295834921E+00
             -0.632432300553768E+00
              0.624378174473193E+00
             -0.958282708836239E+00
             -0.410977016124929E+00
             -0.456323256875510E+00
              0.306390354824662E+01
              0.209015523222523E+01
             -0.232062979121786E+01
             -0.266342856339318E+00
             -0.180982630830536E+01
             -0.559083383584836E+00
             -0.689237819854852E+00
              0.416027847538480E+00
             -0.119886055679647E+00
             -0.101073845719249E+01
              0.687219488456536E+00
             -0.336380320243760E+00
             -0.211369945319807E+00
              0.324588232148673E+01
              0.558049137479754E+00
             -0.305716854980403E+01
             -0.134917522330280E+01
              0.350984124743847E+01
              0.914779987200705E+00
             -0.301723548377836E+00
              0.397208829001472E+01
             -0.618678218383673E+00
             -0.313741882124752E+00
             -0.351815706267566E+00
              0.550292577699313E+00
              0.121217490049893E+01
              0.582323496060710E-01
              0.995353367417657E+00
             -0.433401865352451E+00
             -0.140170508632363E+01
             -0.149081856572731E+01
             -0.171914017361383E+01
              0.143888142131139E+01
              0.499224875771233E+00
              0.134825620432719E+01
              0.523024839844508E+00
              0.331773291923231E+01
              0.791961288846747E+00
             -0.288857137355320E+01
             -0.120321330189637E+01
              0.114833685515956E+00
             -0.100425367944977E+01
              0.233315553065362E+01
             -0.588918586394513E+00
              0.707710825596427E+00
              0.201999719525205E+01
             -0.293943818525729E+01
              0.539703749742462E+01
              0.679054462090213E+00
              0.876427945248203E+00
              0.135680538569120E+01
              0.103507108532899E+00
             -0.504377171687835E-01
              0.122171757440373E+01
             -0.124064473888055E+01
              0.319189680780783E+01
              0.273492106290761E+01
             -0.146350388419587E+01
              0.506666258642809E+00
              0.265678307815508E+01
             -0.791894998550107E+00
              0.741484133567736E+00
              0.125409190098764E+01
              0.150018573367494E+01
             -0.273483439027604E+01
             -0.241818940181538E+00
             -0.103778096167341E+01
             -0.149376251402099E+00
             -0.146539408097827E+00
              0.185027517263954E+00
             -0.420588910946874E+00
             -0.109515861121293E+01
              0.542228252040051E+00
              0.223256007679023E+00
              0.191882948194282E+01
             -0.169294329339552E+01
              0.166330194884642E+01
              0.174105991860225E+01
             -0.377099279055660E+00
              0.289064028290095E+01
             -0.249232273985295E+01
             -0.382677550164977E+01
             -0.358105380818503E+00
             -0.299873227549700E+00
             -0.109868747923535E+00
              0.288917339651702E+01
             -0.469042730260929E-01
              0.155027269183644E+01
              0.210472029450052E+01
              0.142227081671326E+01
             -0.347605112544308E+00
              0.218357688032471E+01
             -0.609119931783838E+00
             -0.139855429113889E+01
             -0.126008277318755E+01
              0.400063042874790E+00
              0.125290034050559E+01
             -0.830355328189647E-01
              0.124946938761681E+01
             -0.793650317059864E-01
              0.212094090651752E+01
              0.647363778144163E+00
              0.322807266685620E+00
              0.100305955876514E+00
              0.111487318468081E+01
              0.151997486754316E+01
              0.556290859039526E+00
             -0.126537119303611E+00
             -0.199715585048716E+01
              0.116840616532399E+01
              0.787109217612652E+00
              0.118458564955459E+01
              0.112433082221127E+01
              0.136103013409094E+01
             -0.378317993846630E+00
              0.121107123295200E+01
             -0.977173611419076E+00
             -0.576839055993261E-02
             -0.191982246669399E+01
             -0.129567933945661E+01
              0.154825578854326E+01
             -0.318254482764225E+01
              0.895301000681933E+00
              0.498588112355410E+00
              0.307842566783535E+01
             -0.512006287457661E+00
              0.114666793101253E+01
             -0.388792027456706E+00
             -0.185170213420765E+01
             -0.241732477191641E+01
             -0.515695461190942E+00
             -0.324069765457383E+01
              0.299538001098593E+00
             -0.697500089711050E+00
              0.118674600024390E+01
              0.835773445775267E+00
             -0.103699530280921E+01
             -0.101040109139710E+01
              0.151698356942024E+01
             -0.214929371288094E+01
             -0.468872462170047E+00
             -0.664191305853770E+00
              0.100893842331174E+01
              0.174278141534622E+00
              0.186663331346780E+00
             -0.606675284844772E+00
              0.201539998686190E+01
             -0.210316474012934E+01
              0.215099887968428E+00
              0.218825761095094E+01
             -0.138956975080764E+01
              0.120848712732670E+00
              0.115142178780584E+00
             -0.235410984291561E+01
             -0.140563708086750E+01
             -0.982863765494457E-01
              0.111658807017540E+01
              0.130389819974716E+01
              0.725687102635035E-01
             -0.512675454850179E+00
              0.705780675384901E+00
             -0.149751280840098E+01
             -0.155671453215033E+00
             -0.185299025446392E+01
             -0.957936853206914E+00
              0.183360959175786E+01
             -0.110835131626627E+01
              0.253246656918164E+01
             -0.802971437232710E+00
              0.123179467846024E+01
              0.898249076746315E+00
             -0.219217606561836E+01
             -0.934644018376580E+00
              0.406573833586763E+00
             -0.158761143387000E+01
             -0.143526585604093E+01
             -0.333609992529064E+01
             -0.199266910714183E+01
             -0.184435207777836E+01
             -0.168306002959225E+01
              0.355232595260135E-01
              0.845846593891689E+00
              0.309770102357345E+00
              0.103168504076679E+01
             -0.213127680834124E+01
              0.498238725706592E+00
              0.903087372411520E+00
             -0.247966313011791E+01
             -0.211121111467572E+01
             -0.143920865290490E+01
             -0.118409513519973E+01
              0.556441930710941E+00
             -0.141534115611503E+00
             -0.162980884406461E+01
              0.105797295699939E+01
             -0.858071206948443E+00
              0.185000344006776E+01
             -0.330196574659132E+01
              0.236180550260004E+01
             -0.417012710824222E+00
             -0.145246244363719E+01
             -0.107171089220897E+01
              0.445652655370692E-01
              0.185469172878845E+01
             -0.258271936206040E+01
             -0.525849684050458E+00
             -0.620790134898437E+00
              0.151567537781354E+01
              0.296599192065816E+01
             -0.362347852416125E+01
              0.337519508652746E+01
              0.148988615874418E+01
             -0.279696961784123E+01
             -0.115149147111055E+01
              0.287956358550137E+01
              0.207076883962406E+01
             -0.663758710158991E+00
             -0.227355863541799E+00
              0.625578319499621E+00
              0.284981636913867E+01
             -0.214574496449531E+01
              0.462670800769285E+00
             -0.345280571770619E+00
              0.930093163293453E+00
             -0.259531739560299E+01
             -0.141639145232501E+00
             -0.987928422617121E+00
              0.179853393705321E+01
              0.145270010596798E+01
             -0.322467034250359E+01
             -0.174636563972405E+01
             -0.743290805241916E+00
             -0.164650816481411E+01
             -0.493328039136114E+00
             -0.672344807525532E+00
              0.160533036952165E+01
              0.160949628548277E+01
             -0.469470436143595E-01
             -0.172270956258888E+01
             -0.309424888686307E+01
              0.182648396705009E+01
             -0.170077575249316E+01
             -0.137469111059665E+01
              0.233244427681103E+00
             -0.137219316841360E+01
             -0.152061006274452E+01
             -0.106754138965797E+01
             -0.179068318935625E+01
             -0.957907338538971E+00
             -0.187675128209158E+01
              0.202155218082209E+01
              0.216454901902612E+01
             -0.391195384385622E+00
             -0.764111132557026E+00
              0.171886330576456E+00
              0.153797319734831E+01
             -0.309450868465418E+01
             -0.867592516871817E+00
              0.176737390114241E+01
              0.261079527150960E+01
             -0.345872658435361E+00
              0.388822917397945E+00
              0.192892689692053E+01
              0.501581793125278E+00
             -0.344128164637070E-01
             -0.149418106160832E+01
              0.519107710810687E+00
             -0.120238258993701E+01
             -0.221538124363908E+00
             -0.833425507990825E+00
             -0.535766504592480E+00
              0.882579502203850E+00
              0.280150667029133E+01
             -0.187597018539901E+00
              0.808444803022086E-01
             -0.330825359702936E+01
             -0.587104368205406E+00
             -0.135093611275342E+01
              0.650947975621463E-02
             -0.178941023889126E+01
              0.330793903276096E+01
              0.314707501046330E+01
              0.634773236652716E+00
             -0.762034317444728E+00
              0.682466017835014E+00
              0.717114849006194E+00
             -0.171719768381927E+01
             -0.321647818756698E+00
              0.686181767142369E+00
              0.476721947381249E+00
              0.192844235676444E+01
              0.149019319274345E+01
             -0.789893632382505E+00
              0.786027570390690E+00
             -0.348166312569724E+01
             -0.708808001858920E-01
              0.327242189117177E+01
              0.616894338983704E+00
             -0.126317111251691E+00
              0.982394954772522E+00
             -0.961451622571965E+00
              0.319043311612241E+01
             -0.682199498396677E+00
              0.283328308621576E+01
              0.138841319250827E+01
             -0.151497888985764E+01
              0.119745688811555E+01
             -0.107379138480908E+01
             -0.248732045229771E+01
             -0.268465777825773E+00
             -0.200557910277454E+01
             -0.186673768371515E+01
             -0.110510497909778E+00
              0.133926232139588E+01
             -0.484767235232573E+00
             -0.108755822537354E+01
              0.250547032580847E+00
             -0.246191139209388E+01
             -0.175974172762995E+00
             -0.314829490207707E+01
              0.192856923463216E+01
             -0.162396377532631E+00
             -0.181190713184366E+01
             -0.490796902229814E+00
              0.651539261450583E+00
             -0.137754464665008E+01
             -0.168683439332398E+01
              0.332959467522130E+01
             -0.994786531586779E+00
             -0.138486411360723E+01
              0.107968622297622E+01
             -0.713119405701115E+00
              0.214344866054317E+01
             -0.643696696730416E-01
              0.195714829061408E+00
              0.401830534613637E+01
             -0.331351560555424E+00
             -0.141027843443392E+01
             -0.170973691527771E+01
             -0.185565415833510E+01
             -0.136249015999202E+01
              0.114029971273574E+01
              0.106168713827229E+01
              0.980516202527660E+00
              0.282172877813883E+01
              0.262995285764127E+00
              0.787878716592352E+00
             -0.212620001155973E+01
              0.113316170293924E+00
             -0.543653230222231E+00
             -0.920902514364204E+00
             -0.255531189347003E+00
              0.122294764348332E+01
              0.139203579460182E+01
             -0.347367238735167E-01
              0.524689403576691E+00
              0.959032165878530E+00
              0.125146302846970E+01
             -0.981330166209570E+00
             -0.403668395949950E+00
              0.386534164180325E-01
             -0.939017978720319E+00
             -0.805277016580312E-01
             -0.140509693520172E+01
              0.291537161798337E+01
              0.228124605194996E+01
             -0.554802566714955E+00
              0.537394777382357E+00
             -0.174910402095669E+00
             -0.108286565590599E+01
              0.136817713098715E+01
             -0.360469970405958E+00
              0.145540450449479E+01
             -0.180467573933861E+01
              0.703989135172236E+00
             -0.287295731822084E+00
             -0.204644221434784E+01
             -0.913440621809762E+00
              0.938542424998425E+00
             -0.345849029129326E+01
              0.149360717158792E+01
              0.177880576351679E+01
             -0.355784804387777E+00
             -0.297473698941197E+00
             -0.183300490283525E+00
              0.103446158012015E+01
             -0.124390154535439E+01
              0.110215916507651E+01
              0.118650492584919E+01
             -0.334330794094089E+01
             -0.138833651886885E+01
              0.865228901234980E+00
             -0.473870131947706E+00
              0.172927662789380E+01
             -0.224762524384651E+01
             -0.317622847145749E+00
             -0.150607934039662E+01
             -0.472102555598390E+01
              0.289271953176902E+01
             -0.221630859412767E+01
             -0.242432483342277E+01
              0.192425837113257E+00
              0.472342180481241E+01
              0.261153866622363E+00
             -0.107703562155594E+01
             -0.482902705895505E-01
             -0.211094652323783E+00
             -0.320176806992963E+01
             -0.205032503254050E+01
              0.307278275691534E+01
             -0.325097026825992E+00
             -0.138451391533971E+01
              0.177026849356852E+01
             -0.121152746461796E+01
              0.124979506481595E+01
              0.178461859939498E+01
             -0.203000716402538E+01
             -0.100039075498474E+01
             -0.126589688747818E+01
             -0.618601551982865E+00
             -0.651231486471681E+00
             -0.581884871993179E+00
              0.777722060608490E+00
             -0.129786920159009E+01
              0.100806032739844E+01
              0.203746684363311E+01
             -0.359505212500726E+00
             -0.760772314210076E+00
              0.525152617525658E+00
              0.205782917332331E+01
              0.203763987056355E+01
              0.319509601172395E+00
             -0.313263547770067E+00
             -0.349669613487573E+00
             -0.193261985526711E+01
              0.142527991717199E+01
             -0.894059917063480E+00
              0.838449089337715E+00
             -0.467706825184251E+00
              0.100366357245471E+01
              0.651303246871925E+00
             -0.295227824607375E+01
             -0.902375341505003E+00
             -0.289970984094077E+01
             -0.146863852413832E+01
              0.206489639440138E+00
             -0.765872797458625E+00
              0.129981878847671E+01
             -0.106735254554432E+01
              0.125282913217186E+00
              0.281831938720373E+00
              0.263088223211051E+01
              0.132565300744658E+01
             -0.118708588841570E+01
              0.247810129222037E-01
              0.498925129350237E+00
              0.139577701191423E+01
             -0.536692058483847E-01
              0.199406836918412E+01
              0.963398386360907E+00
              0.333474534176561E+01
              0.941869484753299E-01
              0.224863718350501E+01
             -0.109310172276783E+01
             -0.146680995843164E+01
              0.812452829259271E-01
              0.419596848500145E+00
              0.892043469415583E+00
             -0.609838326447043E+00
             -0.429901065943158E+00
              0.866809280126700E+00
             -0.164628725270205E+01
             -0.220031835962897E+01
              0.298937128945583E+01
             -0.237322435251205E+00
             -0.133414577097506E+01
             -0.129275903127893E+00
             -0.515995537191404E+00
              0.154816557358337E+01
              0.132198986233170E+01
             -0.742593706109044E+00
              0.198030839035539E-01
             -0.935414004894175E+00
             -0.126051361543576E+01
             -0.963217670608209E+00
             -0.365624737173447E+01
             -0.340563360488932E-02
             -0.233245829888063E+01
             -0.219042871663169E+01
             -0.138038886567185E+01
              0.814695116060729E+00
             -0.142721157312267E+01
              0.893065576437164E+00
             -0.231841853047000E+01
             -0.303491954351323E-01
             -0.160073329767680E+01
              0.352357358068642E+00
              0.308344872731332E+00
              0.117389591907510E+01
             -0.705979124159956E+00
             -0.607887963567514E+00
              0.113776733851438E+01
              0.210973104778610E+01
              0.121314416336420E+01
              0.413482382309859E+00
             -0.268849980769162E+01
             -0.520399687259436E+00
             -0.104724824318106E+01
             -0.223798531636018E+01
              0.153109804418686E+01
             -0.123900659265101E+01
             -0.300133863861706E+00
             -0.887937468019807E+00
             -0.366233626541180E+01
              0.200596737029274E+01
             -0.587186806461130E+00
              0.142720353880797E+01
             -0.271128689279467E+01
              0.236650141170323E+01
              0.261481488827357E+00
             -0.977308987071482E+00
              0.382041967970029E+00
             -0.773667685833898E+00
             -0.227411372703329E+01
              0.591476951410063E+00
              0.132233545885837E+01
             -0.344538535045089E-01
             -0.128689256832058E+01
             -0.546355420921666E+00
              0.687589768738206E+00
              0.135127583268685E+01
              0.227518765747646E+01
              0.812498579171749E+00
             -0.877168065300944E+00
              0.362979135544203E+01
              0.900353488592460E+00
              0.165499273397165E+01
             -0.641967147692551E+00
              0.109430094818586E+01
              0.847918499680174E+00
             -0.218699297880912E+01
             -0.829164681532878E+00
             -0.149519303972247E+01
             -0.144355824279151E+01
             -0.441987929724394E+00
             -0.372945984085877E+00
             -0.160064063132532E+01
             -0.404292283761114E+01
             -0.102711044931497E+01
              0.500617950162621E+00
              0.284040657087182E+00
              0.542454063231744E+00
              0.160527573908741E+01
              0.455388639385964E+00
              0.121996964860305E+01
             -0.154170937685962E+01
              0.156177536747985E+01
             -0.155932763263806E+01
             -0.253796319010682E+01
              0.792714415688163E+00
             -0.156390726376193E+01
             -0.145890784794206E+01
             -0.583461398638415E+01
             -0.253803741689357E+00
              0.308576964273073E+01
              0.153784503929027E+01
             -0.318839545078216E+00
             -0.423580112882819E+00
              0.156993552917445E+01
              0.238603098131957E+01
             -0.138071798044812E+01
             -0.518525486308821E+00
             -0.134479065306086E+01
             -0.123417393214940E+01
             -0.108782359495851E+01
              0.441456507983806E+00
              0.260508897075175E+01
             -0.231794457886325E+01
             -0.196905760875706E+01
              0.134044695989466E+00
             -0.536017418770868E+00
             -0.549300004024855E+00
             -0.336336032433931E+01
              0.223786600142456E+01
              0.731527846705966E+00
              0.423805970143326E+00
              0.194744499704838E+01
             -0.120470782220964E+01
              0.119619095737368E+01
              0.106854482940751E+01
              0.383393996136707E-01
             -0.241116658248976E+00
              0.310978137405462E+00
             -0.582007568821111E+00
              0.200877524785170E+01
             -0.150865367324751E+01
              0.174569345839620E+01
              0.285761617450392E+00
              0.546494323637168E+00
              0.750236973673900E+00
             -0.302033347959828E+01
              0.351893035237282E+00
             -0.237122424519067E+01
             -0.176831387910602E+01
             -0.175254524003818E+01
             -0.189725280305368E+01
             -0.475059054501656E-01
              0.652302564198187E+00
              0.186707431958661E+01
              0.286536078805923E+00
              0.523636683325162E+00
             -0.256622421868379E+01
             -0.101946778306653E+01
              0.113692669635363E+01
             -0.121674900295664E+00
             -0.902190583546769E-01
             -0.323424906509093E+00
              0.137255389220778E+01
             -0.331047145741404E+01
              0.490558178759763E+00
              0.774837984084989E+00
              0.146754289491487E+01
              0.139996526419468E+01
             -0.209818185534316E+01
              0.493686803499561E+00
              0.174414052999859E+00
              0.192657549719549E+00
              0.208266234299979E+00
             -0.599882008190606E+00
             -0.153557794853748E+01
              0.649319576128070E+00
              0.217487922478298E+01
             -0.205596887623614E-01
              0.483678573851080E+00
              0.516756231784559E+00
             -0.108429201229798E+01
             -0.119347632340409E+01
             -0.449546461200578E+01
             -0.133046440393762E+01
             -0.204734954998076E+01
             -0.163161606795097E+00
             -0.244050674973916E+01
              0.274558049302489E+01
             -0.119063463022935E+01
             -0.203924134619037E+01
             -0.573151722329727E+01
              0.243901730762976E+01
              0.531786476076242E+00
              0.345164433799225E+00
             -0.225247613809064E+01
              0.124178920202876E+00
             -0.591313345500859E+00
             -0.116093316021734E+01
              0.433493902549108E+00
              0.116330946001711E+01
              0.154983429913097E+00
             -0.738738643986643E+00
              0.826335913873777E-01
              0.718150749295177E-02
              0.517439961340383E+00
             -0.232172787686188E+01
              0.267269407355104E+01
             -0.156810540329352E+01
             -0.943462748991196E+00
             -0.181721642087206E+01
             -0.392325974498565E+01
              0.238249370916591E+00
             -0.212106220846747E+01
             -0.675064716438384E+00
              0.112456111596329E+01
             -0.101956459550578E+01
             -0.370213891926046E+00
             -0.480434376153914E+00
             -0.725433428134622E+00
              0.149322147885581E+00
              0.182527632324530E+01
             -0.179019232448150E+01
              0.371657018304274E+01
             -0.866384909585513E+00
              0.117453523565245E+01
             -0.643271423188659E+00
              0.470915923304008E+00
             -0.481212736158517E+00
              0.167308943144647E+01
              0.230904992573523E+01
              0.687834785910542E+00
              0.162113488482950E+01
             -0.116314651312359E+01
             -0.264480214156237E+00
             -0.824310906362900E+00
              0.234871779849718E+01
              0.196393240762553E+01
              0.147544714689629E+01
             -0.399163042308270E+00
             -0.996543217849155E+00
              0.918972574357585E+00
             -0.106862877637460E+01
             -0.514031033903020E+00
             -0.225056165073946E+00
             -0.121015711345950E+01
              0.182562229484927E+01
             -0.340772799424150E+00
              0.141353296525334E+01
              0.783412722430995E+00
              0.559466601347534E+00
             -0.127961373895269E+01
              0.938260294076652E+00
             -0.575407298543594E+00
             -0.240376134784970E+00
             -0.548139062167294E-01
             -0.173739999756553E+01
              0.285443373735289E+01
             -0.101862627732135E+01
             -0.821676960540270E-01
              0.876638158285202E+00
              0.723793604009915E+00
              0.279092701328605E+01
             -0.733038347121143E+00
              0.275421162354929E+01
              0.242211368846307E+01
             -0.335032527808056E+01
              0.348176624244818E+00
             -0.745614323365828E+00
              0.458393058038212E+00
              0.154146976305175E+00
              0.825842653707262E+00
              0.234017996927085E+01
              0.365946373116726E+01
             -0.267647304951497E+01
              0.278602230517381E+01
             -0.366213117591334E+01
             -0.312692784638814E+01
             -0.514122308180284E+00
             -0.948783652102314E-02
              0.277586962745246E+01
[...]
             -0.881086321630177E+00
              0.189103946852756E+01
              0.495648059495337E+00
             -0.293396202741601E+01
              0.116079534444514E+01
              0.219025207248485E+00
              0.354914047002831E+00
             -0.178028144377237E+01
              0.309307038296149E+00
              0.128167543701733E+01
              0.166058865883232E+01
              0.240416385859965E+01
              0.120493308088331E+01
              0.327797763801430E+00
             -0.199245310642802E+01
             -0.154556334565047E+01
             -0.241100040518346E+01
             -0.526749335594356E+00
              0.117375027434371E+01
              0.780714564108558E-01
              0.188444064443252E+01
             -0.116236076028558E+01
              0.706349414555820E+00
             -0.727525229714094E+00
             -0.997031537240244E+00
              0.214902393751965E+01
              0.197002965090515E+00
              0.229354383015767E+01
              0.127836433010554E+00
              0.719745485340133E+00
             -0.680466407920186E+00
              0.226753750562112E+01
             -0.562261696541088E+00
             -0.238347501409835E-01
             -0.284291072549530E+01
             -0.250626606458232E+00
              0.254826771305586E+01
              0.229936626263695E+01
              0.100538118057060E+01
             -0.690537300232607E+00
              0.206628637014325E+00
             -0.839245807820018E+00
             -0.695240277755925E+00
              0.330459193750482E+01
              0.253918462735360E+00
             -0.109262948592441E+01
             -0.390424286515578E+01
             -0.160997403735994E+01
             -0.136765964154308E+01
             -0.231557284866555E+01
             -0.210160996177137E+01
             -0.256565649438922E+01
             -0.164723652151397E+01
             -0.103730779782291E+01
             -0.184432420231859E+01
              0.160679800954442E+01
             -0.638484622292701E+00
             -0.307669899752149E+01
              0.140720869315153E+01
             -0.116632613783873E+01
             -0.299625516061907E+01
              0.364593813271495E+01
             -0.954616984064321E+00
              0.544391215232995E+00
              0.131043893111556E+01
              0.386386712445603E+00
              0.100174785306126E+01
              0.158190295432235E-01
              0.307289748120715E-01
             -0.426936389910390E+00
             -0.265817349081712E+01
              0.354889263991719E+00
             -0.441824319030472E+01
              0.261700065200440E+01
             -0.149564873220838E+01
             -0.709229377779099E+00
             -0.829875229879356E+00
              0.712957812939221E+00
             -0.528212250374859E+00
              0.102006940381268E+01
             -0.217412218640338E+01
              0.127468853240928E+01
              0.151163071680227E+01
              0.342380312297062E+00
              0.296693394948123E+00
              0.776512559071916E+00
              0.407786527701850E+00
              0.103781026902771E+01
             -0.160843344767055E+00
             -0.271120912221521E+01
              0.343723545362465E+00
             -0.118972628221428E+01
             -0.160295231782463E+00
              0.199283502382208E+01
             -0.284094379259241E+01
              0.321982702957460E-01
              0.136050025357562E+00
              0.324668789159018E+00
              0.115943182195514E+01
             -0.443595927312749E+00
              0.309836511208825E+01
              0.141538025442915E+01
             -0.561215519159667E+00
             -0.346297964949127E+00
              0.210333129590222E+00
              0.285499640984160E+01
             -0.186176156501315E+01
             -0.368158691232297E+01
              0.100271603789494E+01
             -0.321446428333034E+00
             -0.487644250536804E+00
              0.736792599047910E+00
              0.277504909965027E+01
              0.157144602540324E+01
             -0.620567417342739E+00
             -0.195415900724024E+01
             -0.423898154222876E+00
              0.100680832428164E+01
             -0.638134240147878E+00
             -0.277337289100741E+01
             -0.297972431289621E+00
             -0.360072782296910E+01
             -0.195017336731065E+01
              0.314553543062276E+01
             -0.192645509205867E+01
             -0.260574054291715E+01
             -0.185508587894723E+01
             -0.143760220310311E+01
              0.118116619558893E+01
              0.310574410395058E+01
             -0.324199668407834E+00
              0.975638199094006E+00
             -0.758103267583587E+00
             -0.255817617953074E+01
              0.175231439983277E+01
             -0.175441287025886E+01
              0.860214314453740E+00
              0.111700006237187E+01
             -0.518546314394724E+00
              0.137582140534289E+01
              0.145823014184401E+01
              0.439137661976298E+01
             -0.358012294884738E+00
             -0.203937899549598E+01
             -0.243106507959334E+01
             -0.778865966992520E+00
             -0.142794792678583E+01
              0.337290350752636E+01
             -0.154404277069763E+01
              0.434543413815992E+00
              0.104246722966211E+00
             -0.755428479572380E+00
             -0.313422109005063E+01
             -0.202093121760157E+00
              0.364136427294859E+01
              0.777665027590686E+00
              0.260745498595123E+00
             -0.220044890864973E+01
             -0.212075621477481E+01
             -0.684302912201201E+00
              0.168346528355951E+01
             -0.919852034988317E+00
              0.372890574235690E+01
             -0.169762932058622E+01
              0.756135051334953E+00
             -0.498015442946969E+00
             -0.229584579992846E+01
              0.241830808833328E+00
             -0.202201825179614E+01
             -0.272276998559613E+01
              0.445841231492206E+00
              0.102399974830098E+00
              0.185328889122738E+01
              0.984563004886281E+00
             -0.125256424143255E+01
              0.768357412007749E+00
             -0.324055766782965E+01
             -0.178567314599618E+01
              0.334816538070071E+01
              0.249909390269916E+00
             -0.187748491718263E+00
             -0.954106626390844E+00
             -0.833922693657847E-01
             -0.462490799238722E+00
              0.326146605513080E+01
              0.145878873074957E+01
             -0.354023296458255E+00
              0.325099214802442E-01
             -0.137019131542704E+01
             -0.524248465508393E+00
             -0.232614911524202E+01
              0.182106769665151E+01
              0.234122585984768E+00
              0.292238752240380E+00
              0.706607238056065E+00
             -0.475841178519556E+00
             -0.816705141125497E+00
              0.343269588631471E+00
             -0.415407961864862E+01
             -0.391212011339935E+00
             -0.333093114915156E+00
             -0.250615809696493E+00
              0.184800072008662E+01
              0.237967454902684E+01
              0.668201582934717E+00
             -0.344309986110121E+01
              0.235477930973766E+01
             -0.819531814139287E+00
             -0.140841820100705E+01
             -0.324051929373377E+01
             -0.913819373932053E+00
              0.234635904693540E+01
              0.113235687287661E+01
              0.437009766730256E+00
              0.129670802741815E+01
             -0.210279334306580E+01
             -0.183587960098925E+01
              0.221347019486695E+01
              0.149924564247322E+01
              0.176885262633150E+01
              0.269104330866722E+00
              0.323403740728770E+00
              0.196005344347803E+01
              0.363174985042983E+01
             -0.627047164520139E+00
              0.151154273708854E+01
             -0.107559955551232E+01
             -0.159217613755940E+01
             -0.128494564261132E+01
             -0.123498689382337E+01
             -0.566557058995530E+00
             -0.180925936491973E+01
             -0.722974933587107E+00
             -0.480991661711685E+01
              0.107959440922911E+01
              0.979264610041560E+00
             -0.147016037681068E+00
             -0.144754976887667E+01
             -0.736308097745013E+00
             -0.210213625740957E+01
              0.161598599067593E+00
              0.292511379023639E+01
             -0.682521708076607E+00
             -0.660351553176139E+00
              0.773019497728455E+00
             -0.180061798246541E+01
              0.309118581240701E+01
              0.560484284268975E+00
              0.309597239225635E+00
              0.194115274815015E+01
             -0.153777660479966E+00
              0.217913365878317E+01
              0.752066947268774E+00
             -0.499690074863262E-01
              0.494623576994748E+00
             -0.273557986403761E+00
              0.240793259455585E+01
              0.222575621451956E+00
              0.739158446293949E+00
             -0.271525234856126E+00
              0.402665855720889E+00
             -0.346607921490689E+01
             -0.131938532011837E+01
             -0.182645809674574E+01
              0.184238040916690E+01
             -0.124558940469315E+01
             -0.207581619033066E+01
              0.226226112123701E+01
             -0.474351887862664E+00
              0.148868120970054E+01
             -0.331020594621138E+01
              0.640335399674488E+00
              0.198482141049613E+00
              0.280461699722832E+00
             -0.497245017137693E+00
             -0.244427531597356E+00
              0.181547244143691E+01
              0.562658251978760E-01
             -0.199961488786637E+01
             -0.694814265972235E+00
              0.726670133947110E+00
             -0.414925937442779E+01
             -0.319475419404968E+01
              0.568885561991195E-02
              0.599550741756310E+00
             -0.179010035040412E+01
              0.246486594399666E-01
              0.376362484091783E+01
              0.113008663351049E+01
             -0.194759162244523E+01
              0.332977687063412E+00
             -0.419846754227116E+00
              0.399119530968447E+00
             -0.131328917174983E+01
              0.806807120592365E+00
              0.921261931370918E+00
             -0.389362125285615E+00
              0.421724447245683E+01
             -0.987220271206510E-01
             -0.114658391248410E+01
              0.114170656431412E+01
              0.148612289806977E+01
             -0.113689284986875E+01
             -0.830353189238258E-01
              0.353636051043776E+01
             -0.359343602633864E-01
              0.200326315195007E+01
              0.574829076844873E+00
             -0.296771266027736E+00
             -0.642356792122328E+00
              0.185811178845394E+01
             -0.221484016580504E+01
             -0.261229909059359E-01
             -0.696478913650164E+00
             -0.146494824595166E+01
              0.447982216296527E+00
              0.893492493824997E+00
             -0.128769867025937E-01
             -0.517007800460121E-01
             -0.156856771074669E+01
              0.606607845851543E+00
              0.219017423569676E-01
             -0.861088777294713E+00
             -0.750339725202861E+00
              0.603532381215741E+00
              0.318569425706379E-01
             -0.141488898971022E+01
             -0.393176104244122E+01
              0.324220379275124E+00
              0.540280730113215E+00
             -0.189815155874100E+01
             -0.913020825304187E+00
              0.303279551651247E+01
              0.462762669545098E+00
              0.165646012758582E+01
              0.447600325799628E+00
              0.155384424016817E+01
              0.855301530617076E-01
             -0.148038989105878E+01
             -0.428631163802513E+00
              0.203954246291216E+00
              0.117986447566745E+01
              0.279569881895906E+01
              0.182124376840002E+01
              0.140657722866244E+00
              0.439006961748445E+00
              0.219884910437610E+01
              0.107909785904150E+01
             -0.250372899204944E+01
             -0.988794512564922E+00
              0.319741102794131E+00
              0.406379227801310E+00
              0.991323489492277E+00
             -0.185528696229343E+01
              0.296143956361642E+00
              0.154112066256356E+01
              0.181857441358853E+01
             -0.162596394399167E+01
              0.104616270525169E+00
             -0.115507929505107E+00
             -0.736469431410240E+00
             -0.100928089358050E+01
             -0.479683257502417E+00
             -0.432956047369616E+00
              0.391442004759909E+00
              0.153553269939099E+01
             -0.127487211183682E+01
              0.292318867375123E+01
              0.132421578294313E+01
              0.985970059615378E+00
              0.126842778268145E+01
              0.905561208199844E+00
              0.127101140426789E+01
              0.204110243522642E+01
             -0.170748279478912E+01
              0.230076102053536E+01
             -0.414591245005119E+01
              0.116603351342325E+01
             -0.393755032643420E+01
              0.303814639820184E+01
              0.285951620724767E+01
             -0.357845339479294E+00
             -0.173209781994686E+01
             -0.154383414582134E+01
             -0.193807456440779E+01
             -0.237383744597775E+01
              0.205498860675581E+01
              0.161094179289005E+01
              0.933441578443082E+00
              0.901041280121053E+00
              0.171887332868857E+01
             -0.149398875899955E+01
             -0.599477048737645E+00
              0.191401727197263E+01
             -0.415528127804655E+00
              0.181576071743109E+01
              0.287248827331158E+01
             -0.124743302539039E+00
             -0.276676496969631E+01
              0.150014829326697E+00
              0.175875551514525E-01
             -0.419002834791755E+00
              0.162567382080182E+00
             -0.238087174997237E+01
             -0.348444894634014E+00
              0.407147786733154E+00
              0.482912865013777E+00
              0.186546669185189E+01
             -0.161071691106538E+01
              0.185660630260411E+01
             -0.141013585564294E+01
              0.984122043224714E+00
              0.160683999835700E+01
 
 BEEF-vdW xc energy contributions
            1 :    -26.66367839023372     
            2 :     23.14329401394085     
            3 :    -17.24767202528309     
            4 :     10.73848703084400     
            5 :    -5.230166677762607     
            6 :     1.594517084363744     
            7 :    0.1943682054209610     
            8 :   -0.7761394464242422     
            9 :    0.9161493846305682     
           10 :    -1.108735463536267     
           11 :     1.448674120352980     
           12 :    -1.756713554382998     
           13 :     1.811183912376887     
           14 :    -1.524936912044293     
           15 :    0.9883134548696262     
           16 :   -0.3978080652562177     
           17 :   -5.6086185482588036E-002
           18 :    0.2730571574446294     
           19 :   -0.2673215232585129     
           20 :    0.1367303128477992     
           21 :   -1.5826592456527067E-003
           22 :   -5.6208844932289281E-002
           23 :    2.6814472561138558E-002
           24 :    3.5272144882377177E-002
           25 :   -5.4555491529146849E-002
           26 :   -1.2551907093563131E-002
           27 :    0.1479643289592971     
           28 :   -0.2839612302632766     
           29 :    0.3481263897164588     
           30 :   -0.3102093772256431     
           31 :    -3.496613452722283     
           32 :    -2.453480728879860     

     Writing all to output data dir ./diamond.save/
 
     init_run     :      2.44s CPU      2.47s WALL (       1 calls)
     electrons    :      0.48s CPU      0.55s WALL (       1 calls)
     forces       :      0.06s CPU      0.06s WALL (       1 calls)
     stress       :      0.23s CPU      0.23s WALL (       1 calls)

     Called by init_run:
     wfcinit      :      0.05s CPU      0.06s WALL (       1 calls)
     potinit      :      2.31s CPU      2.33s WALL (       1 calls)
     hinit0       :      0.04s CPU      0.05s WALL (       1 calls)

     Called by electrons:
     c_bands      :      0.35s CPU      0.40s WALL (       2 calls)
     sum_band     :      0.04s CPU      0.04s WALL (       2 calls)
     v_of_rho     :      2.28s CPU      2.30s WALL (       2 calls)
     v_h          :      0.00s CPU      0.00s WALL (       2 calls)
     v_xc         :      3.29s CPU      3.36s WALL (      38 calls)
     newd         :      0.00s CPU      0.01s WALL (       2 calls)
     PAW_pot      :      0.12s CPU      0.12s WALL (       2 calls)
     mix_rho      :      0.00s CPU      0.00s WALL (       2 calls)
     vdW_kernel   :      2.22s CPU      2.23s WALL (       1 calls)

     Called by c_bands:
     init_us_2    :      0.00s CPU      0.00s WALL (      78 calls)
     init_us_2:cp :      0.00s CPU      0.00s WALL (      78 calls)
     cegterg      :      0.32s CPU      0.33s WALL (      26 calls)

     Called by sum_band:
     sum_band:wei :      0.00s CPU      0.00s WALL (       2 calls)
     sum_band:loo :      0.03s CPU      0.03s WALL (       2 calls)
     sum_band:buf :      0.00s CPU      0.00s WALL (      26 calls)
     sum_band:ini :      0.00s CPU      0.00s WALL (      26 calls)
     sum_band:cal :      0.00s CPU      0.00s WALL (      26 calls)
     sum_band:bec :      0.00s CPU      0.00s WALL (      26 calls)
     addusdens    :      0.00s CPU      0.00s WALL (       2 calls)
                                        0.00s GPU  (       2 calls)
     addusd:skk   :      0.00s CPU      0.00s WALL (       2 calls)
                                        0.00s GPU  (       2 calls)

     Called by *egterg:
     cdiaghg      :      0.10s CPU      0.10s WALL (     136 calls)
     cegterg:over :      0.02s CPU      0.02s WALL (     136 calls)
     cegterg:upda :      0.01s CPU      0.01s WALL (     136 calls)
     cegterg:last :      0.00s CPU      0.00s WALL (      30 calls)
     h_psi        :      0.17s CPU      0.18s WALL (     162 calls)
     s_psi        :      0.01s CPU      0.01s WALL (     162 calls)
     g_psi        :      0.00s CPU      0.00s WALL (     136 calls)

     Called by h_psi:
     h_psi:calbec :      0.02s CPU      0.02s WALL (     162 calls)
     vloc_psi     :      0.15s CPU      0.16s WALL (     162 calls)
     add_vuspsi   :      0.01s CPU      0.01s WALL (     162 calls)

     General routines
     calbec       :      0.03s CPU      0.03s WALL (     253 calls)
     fft          :      0.44s CPU      0.45s WALL (    2232 calls)
     ffts         :      0.00s CPU      0.00s WALL (       4 calls)
     fftw         :      0.16s CPU      0.17s WALL (    2840 calls)
     interpolate  :      0.00s CPU      0.00s WALL (       2 calls)
 
     Parallel routines

     PAW routines
     PAW_pot      :      0.12s CPU      0.12s WALL (       2 calls)
     PAW_symme    :      0.00s CPU      0.00s WALL (       3 calls)
 
     PWSCF        :      4.35s CPU      4.73s WALL

 
   This run was terminated on:  22:23:28  27Mar2024            

=------------------------------------------------------------------------------=
   JOB DONE.
=------------------------------------------------------------------------------=
