
     Program PWSCF v.7.1 starts on 20Feb2024 at 16:51:41 

     This program is part of the open-source Quantum ESPRESSO suite
     for quantum simulation of materials; please cite
         "P. Giannozzi et al., J. Phys.:Condens. Matter 21 395502 (2009);
         "P. Giannozzi et al., J. Phys.:Condens. Matter 29 465901 (2017);
         "P. Giannozzi et al., J. Chem. Phys. 152 154105 (2020);
          URL http://www.quantum-espresso.org", 
     in publications or presentations arising from this work. More details at
     http://www.quantum-espresso.org/quote

     Parallel version (MPI & OpenMP), running on     128 processor cores
     Number of MPI processes:               128
     Threads/MPI process:                     1

     MPI processes distributed on     1 nodes
     1952126 MiB available memory on the printing compute node when the environment starts
 
     Reading input from espresso.pwi
Warning: card &CELL ignored
Warning: card    CELL_DYNAMICS    = 'BFGS' ignored
Warning: card / ignored

     Current dimensions of program PWSCF are:
     Max number of different atomic species (ntypx) = 10
     Max number of k-points (npk) =  40000
     Max angular momentum in pseudopotentials (lmaxx) =  4
     file I.pbe-dn-kjpaw_psl.1.0.0.UPF: wavefunction(s)  5S 5P renormalized

     **************************************************************************
     Initializing libbeef V0.1.2 with the BEEF-vdW functional.
     Citation: Wellendorff et al., PRB 85, 235149 (2012).
     **************************************************************************


     IMPORTANT: XC functional enforced from input :
     Exchange-correlation= BEEF-VDW
                           (   1   4  43  14   2   0   0)
     Any further DFT definition will be discarded
     Please, verify this is what you really want

     Found identity + (  0.5000 -0.5000  0.5000) symmetry
     This is a supercell, fractional translations are disabled
 
     K-points division:     npool     =       4
     R & G space division:  proc/nbgrp/npool/nimage =      32
     Subspace diagonalization in iterative solution of the eigenvalue problem:
     a serial algorithm will be used

 
     Parallelization info
     --------------------
     sticks:   dense  smooth     PW     G-vecs:    dense   smooth      PW
     Min          41      32      9                 2383     1700     267
     Max          42      33     10                 2392     1709     276
     Sum        1315    1049    303                76329    54533    8689
 
     Using Slab Decomposition
 


     bravais-lattice index     =            8
     lattice parameter (alat)  =       5.5265  a.u.
     unit-cell volume          =     689.6954 (a.u.)^3
     number of atoms/cell      =            2
     number of atomic types    =            1
     number of electrons       =        34.00
     number of Kohn-Sham states=           21
     kinetic-energy cutoff     =      70.0000  Ry
     charge density cutoff     =     350.0000  Ry
     scf convergence threshold =      1.0E-07
     mixing beta               =       0.7000
     number of iterations used =            8  plain     mixing
     Exchange-correlation= BEEF-VDW
                           (   1   4  43  14   2   0   0)

     celldm(1)=   5.526471  celldm(2)=   1.542654  celldm(3)=   2.648776
     celldm(4)=   0.000000  celldm(5)=   0.000000  celldm(6)=   0.000000

     crystal axes: (cart. coord. in units of alat)
               a(1) = (   1.000000   0.000000   0.000000 )  
               a(2) = (   0.000000   1.542654   0.000000 )  
               a(3) = (   0.000000   0.000000   2.648776 )  

     reciprocal axes: (cart. coord. in units 2 pi/alat)
               b(1) = (  1.000000  0.000000  0.000000 )  
               b(2) = (  0.000000  0.648234  0.000000 )  
               b(3) = (  0.000000  0.000000  0.377533 )  


     PseudoPot. # 1 for I  read from file:
     //group///packages/espresso/pseudo/psl_1.0.0/pslibrary.1.0.0/pbe/PSEUDOPOTENTIALS/I.pbe-dn-kjpaw_psl.1.0.0.UPF
     MD5 check sum: bfa8781bc1224d19af3f3980e3fab11e
     Pseudo is Projector augmented-wave + core cor, Zval = 17.0
     Generated using 'atomic' code by A. Dal Corso  v.7.1
     Shape of augmentation charge: PSQ
     Using radial grid of 1247 points,  6 beta functions with: 
                l(1) =   0
                l(2) =   0
                l(3) =   1
                l(4) =   1
                l(5) =   2
                l(6) =   2
     Q(r) pseudized with 0 coefficients 


     atomic species   valence    mass     pseudopotential
        I             17.00   126.90447     I ( 1.00)

      8 Sym. Ops., with inversion, found


                                    s                        frac. trans.

      isym =  1     identity                                     

 cryst.   s( 1) = (     1          0          0      )
                  (     0          1          0      )
                  (     0          0          1      )

 cart.    s( 1) = (  1.0000000  0.0000000  0.0000000 )
                  (  0.0000000  1.0000000  0.0000000 )
                  (  0.0000000  0.0000000  1.0000000 )


      isym =  2     180 deg rotation - cart. axis [0,0,1]        

 cryst.   s( 2) = (    -1          0          0      )
                  (     0         -1          0      )
                  (     0          0          1      )

 cart.    s( 2) = ( -1.0000000  0.0000000  0.0000000 )
                  (  0.0000000 -1.0000000  0.0000000 )
                  (  0.0000000  0.0000000  1.0000000 )


      isym =  3     180 deg rotation - cart. axis [0,1,0]        

 cryst.   s( 3) = (    -1          0          0      )
                  (     0          1          0      )
                  (     0          0         -1      )

 cart.    s( 3) = ( -1.0000000  0.0000000  0.0000000 )
                  (  0.0000000  1.0000000  0.0000000 )
                  (  0.0000000  0.0000000 -1.0000000 )


      isym =  4     180 deg rotation - cart. axis [1,0,0]        

 cryst.   s( 4) = (     1          0          0      )
                  (     0         -1          0      )
                  (     0          0         -1      )

 cart.    s( 4) = (  1.0000000  0.0000000  0.0000000 )
                  (  0.0000000 -1.0000000  0.0000000 )
                  (  0.0000000  0.0000000 -1.0000000 )


      isym =  5     inversion                                    

 cryst.   s( 5) = (    -1          0          0      )
                  (     0         -1          0      )
                  (     0          0         -1      )

 cart.    s( 5) = ( -1.0000000  0.0000000  0.0000000 )
                  (  0.0000000 -1.0000000  0.0000000 )
                  (  0.0000000  0.0000000 -1.0000000 )


      isym =  6     inv. 180 deg rotation - cart. axis [0,0,1]   

 cryst.   s( 6) = (     1          0          0      )
                  (     0          1          0      )
                  (     0          0         -1      )

 cart.    s( 6) = (  1.0000000  0.0000000  0.0000000 )
                  (  0.0000000  1.0000000  0.0000000 )
                  (  0.0000000  0.0000000 -1.0000000 )


      isym =  7     inv. 180 deg rotation - cart. axis [0,1,0]   

 cryst.   s( 7) = (     1          0          0      )
                  (     0         -1          0      )
                  (     0          0          1      )

 cart.    s( 7) = (  1.0000000  0.0000000  0.0000000 )
                  (  0.0000000 -1.0000000  0.0000000 )
                  (  0.0000000  0.0000000  1.0000000 )


      isym =  8     inv. 180 deg rotation - cart. axis [1,0,0]   

 cryst.   s( 8) = (    -1          0          0      )
                  (     0          1          0      )
                  (     0          0          1      )

 cart.    s( 8) = ( -1.0000000  0.0000000  0.0000000 )
                  (  0.0000000  1.0000000  0.0000000 )
                  (  0.0000000  0.0000000  1.0000000 )


     point group D_2h (mmm) 
     there are  8 classes
     the character table:

       E     C2    C2'   C2''  i     s_v   s_v'  s_v''
A_g    1.00  1.00  1.00  1.00  1.00  1.00  1.00  1.00
B_1g   1.00  1.00 -1.00 -1.00  1.00  1.00 -1.00 -1.00
B_2g   1.00 -1.00  1.00 -1.00  1.00 -1.00  1.00 -1.00
B_3g   1.00 -1.00 -1.00  1.00  1.00 -1.00 -1.00  1.00
A_u    1.00  1.00  1.00  1.00 -1.00 -1.00 -1.00 -1.00
B_1u   1.00  1.00 -1.00 -1.00 -1.00 -1.00  1.00  1.00
B_2u   1.00 -1.00  1.00 -1.00 -1.00  1.00 -1.00  1.00
B_3u   1.00 -1.00 -1.00  1.00 -1.00  1.00  1.00 -1.00

     the symmetry operations in each class and the name of the first element:

     E        1
          identity                                               
     C2       2
          180 deg rotation - cart. axis [0,0,1]                  
     C2'      4
          180 deg rotation - cart. axis [1,0,0]                  
     C2''     3
          180 deg rotation - cart. axis [0,1,0]                  
     i        5
          inversion                                              
     s_v      6
          inv. 180 deg rotation - cart. axis [0,0,1]             
     s_v'     8
          inv. 180 deg rotation - cart. axis [1,0,0]             
     s_v''    7
          inv. 180 deg rotation - cart. axis [0,1,0]             

   Cartesian axes

     site n.     atom                  positions (alat units)
         1           I   tau(   1) = (   0.0000000   0.7713269   0.0000000  )
         2           I   tau(   2) = (   0.5000000   0.0000000   1.3243878  )

   Crystallographic axes

     site n.     atom                  positions (cryst. coord.)
         1           I   tau(   1) = (  0.0000000  0.5000000  0.0000000  )
         2           I   tau(   2) = (  0.5000000  0.0000000  0.5000000  )

     number of k points=    24  Gaussian smearing, width (Ry)=  0.0100
                       cart. coord. in units 2pi/alat
        k(    1) = (   0.0000000   0.0000000   0.0000000), wk =   0.0416667
        k(    2) = (   0.0000000   0.0000000  -0.1887665), wk =   0.0416667
        k(    3) = (   0.0000000   0.1620584   0.0000000), wk =   0.0833333
        k(    4) = (   0.0000000   0.1620584  -0.1887665), wk =   0.0833333
        k(    5) = (   0.0000000  -0.3241168   0.0000000), wk =   0.0416667
        k(    6) = (   0.0000000  -0.3241168  -0.1887665), wk =   0.0416667
        k(    7) = (   0.1666667   0.0000000   0.0000000), wk =   0.0833333
        k(    8) = (   0.1666667   0.0000000  -0.1887665), wk =   0.0833333
        k(    9) = (   0.1666667   0.1620584   0.0000000), wk =   0.1666667
        k(   10) = (   0.1666667   0.1620584  -0.1887665), wk =   0.1666667
        k(   11) = (   0.1666667  -0.3241168   0.0000000), wk =   0.0833333
        k(   12) = (   0.1666667  -0.3241168  -0.1887665), wk =   0.0833333
        k(   13) = (   0.3333333   0.0000000   0.0000000), wk =   0.0833333
        k(   14) = (   0.3333333   0.0000000  -0.1887665), wk =   0.0833333
        k(   15) = (   0.3333333   0.1620584   0.0000000), wk =   0.1666667
        k(   16) = (   0.3333333   0.1620584  -0.1887665), wk =   0.1666667
        k(   17) = (   0.3333333  -0.3241168   0.0000000), wk =   0.0833333
        k(   18) = (   0.3333333  -0.3241168  -0.1887665), wk =   0.0833333
        k(   19) = (  -0.5000000   0.0000000   0.0000000), wk =   0.0416667
        k(   20) = (  -0.5000000   0.0000000  -0.1887665), wk =   0.0416667
        k(   21) = (  -0.5000000   0.1620584   0.0000000), wk =   0.0833333
        k(   22) = (  -0.5000000   0.1620584  -0.1887665), wk =   0.0833333
        k(   23) = (  -0.5000000  -0.3241168   0.0000000), wk =   0.0416667
        k(   24) = (  -0.5000000  -0.3241168  -0.1887665), wk =   0.0416667

                       cryst. coord.
        k(    1) = (   0.0000000   0.0000000   0.0000000), wk =   0.0416667
        k(    2) = (   0.0000000   0.0000000  -0.5000000), wk =   0.0416667
        k(    3) = (   0.0000000   0.2500000   0.0000000), wk =   0.0833333
        k(    4) = (   0.0000000   0.2500000  -0.5000000), wk =   0.0833333
        k(    5) = (   0.0000000  -0.5000000   0.0000000), wk =   0.0416667
        k(    6) = (   0.0000000  -0.5000000  -0.5000000), wk =   0.0416667
        k(    7) = (   0.1666667   0.0000000   0.0000000), wk =   0.0833333
        k(    8) = (   0.1666667   0.0000000  -0.5000000), wk =   0.0833333
        k(    9) = (   0.1666667   0.2500000   0.0000000), wk =   0.1666667
        k(   10) = (   0.1666667   0.2500000  -0.5000000), wk =   0.1666667
        k(   11) = (   0.1666667  -0.5000000   0.0000000), wk =   0.0833333
        k(   12) = (   0.1666667  -0.5000000  -0.5000000), wk =   0.0833333
        k(   13) = (   0.3333333   0.0000000   0.0000000), wk =   0.0833333
        k(   14) = (   0.3333333   0.0000000  -0.5000000), wk =   0.0833333
        k(   15) = (   0.3333333   0.2500000   0.0000000), wk =   0.1666667
        k(   16) = (   0.3333333   0.2500000  -0.5000000), wk =   0.1666667
        k(   17) = (   0.3333333  -0.5000000   0.0000000), wk =   0.0833333
        k(   18) = (   0.3333333  -0.5000000  -0.5000000), wk =   0.0833333
        k(   19) = (  -0.5000000   0.0000000   0.0000000), wk =   0.0416667
        k(   20) = (  -0.5000000   0.0000000  -0.5000000), wk =   0.0416667
        k(   21) = (  -0.5000000   0.2500000   0.0000000), wk =   0.0833333
        k(   22) = (  -0.5000000   0.2500000  -0.5000000), wk =   0.0833333
        k(   23) = (  -0.5000000  -0.5000000   0.0000000), wk =   0.0416667
        k(   24) = (  -0.5000000  -0.5000000  -0.5000000), wk =   0.0416667

     Dense  grid:    76329 G-vectors     FFT dimensions: (  36,  54,  90)

     Smooth grid:    54533 G-vectors     FFT dimensions: (  30,  45,  80)

     Dynamical RAM for                 wfc:       0.07 MB

     Dynamical RAM for     wfc (w. buffer):       0.48 MB

     Dynamical RAM for           str. fact:       0.04 MB

     Dynamical RAM for           local pot:       0.00 MB

     Dynamical RAM for          nlocal pot:       0.12 MB

     Dynamical RAM for                qrad:       1.50 MB

     Dynamical RAM for          rho,v,vnew:       0.24 MB

     Dynamical RAM for               rhoin:       0.08 MB

     Dynamical RAM for            rho*nmix:       0.58 MB

     Dynamical RAM for           G-vectors:       0.15 MB

     Dynamical RAM for          h,s,v(r/c):       0.32 MB

     Dynamical RAM for          <psi|beta>:       0.01 MB

     Dynamical RAM for                 psi:       0.27 MB

     Dynamical RAM for                hpsi:       0.27 MB

     Dynamical RAM for                spsi:       0.27 MB

     Dynamical RAM for      wfcinit/wfcrot:       0.15 MB

     Dynamical RAM for           addusdens:       1.74 MB

     Dynamical RAM for          addusforce:       1.75 MB

     Dynamical RAM for         addusstress:       1.84 MB

     Estimated static dynamical RAM per process >       2.90 MB

     Estimated max dynamical RAM per process >       5.32 MB

     Estimated total dynamical RAM >     625.64 MB

     Atomic positions and unit cell read from directory:
     ./PbI2.save/
 

     Check: negative core charge=   -0.000002

     The initial density is read from file :
     ./PbI2.save/charge-density



     %%%%%%%%%%%%%%%%%%%%%%%%%%%%%%%%%%%%%%%%%%%%%%%%%%%%%%%%%%%%%%%%%%%%%%%%
     %                                                                      %
     % You are using vdW-DF, which was implemented by the Thonhauser group. %
     % Please cite the following two papers that made this development      %
     % possible and the two reviews that describe the various versions:     %
     %                                                                      %
     %   T. Thonhauser et al., PRL 115, 136402 (2015).                      %
     %   T. Thonhauser et al., PRB 76, 125112 (2007).                       %
     %   K. Berland et al., Rep. Prog. Phys. 78, 066501 (2015).             %
     %   D.C. Langreth et al., J. Phys.: Condens. Matter 21, 084203 (2009). %
     %                                                                      %
     % If you are calculating stress with vdW-DF, please also cite:         %
     %                                                                      %
     %   R. Sabatini et al., J. Phys.: Condens. Matter 24, 424209 (2012).   %
     %                                                                      %
     %%%%%%%%%%%%%%%%%%%%%%%%%%%%%%%%%%%%%%%%%%%%%%%%%%%%%%%%%%%%%%%%%%%%%%%%

     %%%%%%%%%%%%%%%%%%%%%%%%%%%%%%%%%%%%%%%%%%%%%%%%%%%%%%%%%%%%%%%%%%%%%%%%
     %                                                                      %
     %  vdW-DF NEWS:                                                        %
     %                                                                      %
     %  * vdW-DF3 is now available. DOI: 10.1021/acs.jctc.0c00471           %
     %    use with input_dft = 'vdW-DF3-opt1' or 'vdW-DF3-opt2'             %
     %                                                                      %
     %  * Unscreened and range-separated vdW-DF hybrid functionals          %
     %    DOI: 10.1063/1.4986522 and 10.1088/1361-648X/ac2ad2               %
     %    use with input_dft = 'vdW-DF-cx0' (etc) and 'vdW-DF-ahcx'         %
     %                                                                      %
     %%%%%%%%%%%%%%%%%%%%%%%%%%%%%%%%%%%%%%%%%%%%%%%%%%%%%%%%%%%%%%%%%%%%%%%%


     Carrying out vdW-DF run using the following parameters:
     Nqs    =  20  Npoints =  1024  r_max =  100.000
     q_mesh =  0.00001000  0.04494208  0.09755937  0.15916263
               0.23128650  0.31572767  0.41458969  0.53033537
               0.66584808  0.82450364  1.01025438  1.22772762
               1.48234092  1.78043706  2.12944203  2.53805004
               3.01644009  3.57652955  4.23227104  5.00000000


     -----------------------------------------------
     Non-local corr. energy    =       1.16943014 Ry
     -----------------------------------------------

     Starting wfcs from file
     Checking if some PAW data can be deallocated... 

     total cpu time spent up to now is        2.1 secs

     Self-consistent Calculation

     iteration #  1     ecut=    70.00 Ry     beta= 0.70
     Davidson diagonalization with overlap

---- Real-time Memory Report at c_bands before calling an iterative solver
           149 MiB given to the printing process from OS
             0 MiB allocation reported by mallinfo(arena+hblkhd)
       1947918 MiB available memory on the node where the printing process lives
------------------
     ethr =  1.00E-05,  avg # of iterations =  2.0

     Threshold (ethr) on eigenvalues was too large:
     Diagonalizing with lowered threshold

     Davidson diagonalization with overlap

---- Real-time Memory Report at c_bands before calling an iterative solver
           154 MiB given to the printing process from OS
             0 MiB allocation reported by mallinfo(arena+hblkhd)
       1947878 MiB available memory on the node where the printing process lives
------------------
     ethr =  2.03E-11,  avg # of iterations =  6.4


     -----------------------------------------------
     Non-local corr. energy    =       1.16943235 Ry
     -----------------------------------------------


     total cpu time spent up to now is        4.0 secs

     End of self-consistent calculation

          k = 0.0000 0.0000 0.0000 (  6847 PWs)   bands (ev):

   -42.9285 -42.9276 -42.7419 -42.7411 -42.7396 -42.7387 -42.3621 -42.3619
   -42.3612 -42.3610 -10.4498 -10.2976  -0.1690   0.8800   1.2033   1.2109
     6.3218   6.4332   7.3831   8.3557  10.8865

     occupation numbers 
     1.0000   1.0000   1.0000   1.0000   1.0000   1.0000   1.0000   1.0000
     1.0000   1.0000   1.0000   1.0000   1.0000   1.0000   1.0000   1.0000
     0.0000   0.0000   0.0000   0.0000   0.0000

          k = 0.0000 0.0000-0.1888 (  6858 PWs)   bands (ev):

   -42.9285 -42.9276 -42.7419 -42.7411 -42.7396 -42.7387 -42.3621 -42.3619
   -42.3612 -42.3610 -10.3753 -10.3751   0.4386   0.4387   1.0349   1.0350
     6.3767   6.3769   8.5330   8.5331  10.2941

     occupation numbers 
     1.0000   1.0000   1.0000   1.0000   1.0000   1.0000   1.0000   1.0000
     1.0000   1.0000   1.0000   1.0000   1.0000   1.0000   1.0000   1.0000
     0.0000   0.0000   0.0000   0.0000   0.0000

          k = 0.0000 0.1621 0.0000 (  6839 PWs)   bands (ev):

   -42.9284 -42.9276 -42.7419 -42.7411 -42.7396 -42.7387 -42.3621 -42.3619
   -42.3612 -42.3610 -10.3918 -10.2824   0.0499   0.4002   0.6035   1.0452
     6.3637   6.4432   8.5242   9.8630  10.0074

     occupation numbers 
     1.0000   1.0000   1.0000   1.0000   1.0000   1.0000   1.0000   1.0000
     1.0000   1.0000   1.0000   1.0000   1.0000   1.0000   1.0000   1.0000
     0.0000   0.0000   0.0000   0.0000   0.0000

          k = 0.0000 0.1621-0.1888 (  6830 PWs)   bands (ev):

   -42.9284 -42.9276 -42.7419 -42.7411 -42.7396 -42.7387 -42.3621 -42.3619
   -42.3612 -42.3610 -10.3379 -10.3377   0.1818   0.1818   0.8737   0.8737
     6.4031   6.4032   9.0289   9.0289  10.2739

     occupation numbers 
     1.0000   1.0000   1.0000   1.0000   1.0000   1.0000   1.0000   1.0000
     1.0000   1.0000   1.0000   1.0000   1.0000   1.0000   1.0000   1.0000
     0.0000   0.0000   0.0000   0.0000   0.0000

          k = 0.0000-0.3241 0.0000 (  6830 PWs)   bands (ev):

   -42.9284 -42.9275 -42.7420 -42.7411 -42.7396 -42.7387 -42.3621 -42.3618
   -42.3613 -42.3609 -10.2998 -10.2997   0.0579   0.0580   0.5716   0.5717
     6.4297   6.4298   9.9111   9.9111  10.2948

     occupation numbers 
     1.0000   1.0000   1.0000   1.0000   1.0000   1.0000   1.0000   1.0000
     1.0000   1.0000   1.0000   1.0000   1.0000   1.0000   1.0000   1.0000
     0.0000   0.0000   0.0000   0.0000   0.0000

          k = 0.0000-0.3241-0.1888 (  6788 PWs)   bands (ev):

   -42.9284 -42.9275 -42.7420 -42.7411 -42.7396 -42.7387 -42.3621 -42.3618
   -42.3613 -42.3609 -10.2996 -10.2994  -0.1748  -0.1748   0.8971   0.8972
     6.4297   6.4299   8.3874   8.3874  12.7270

     occupation numbers 
     1.0000   1.0000   1.0000   1.0000   1.0000   1.0000   1.0000   1.0000
     1.0000   1.0000   1.0000   1.0000   1.0000   1.0000   1.0000   1.0000
     0.0000   0.0000   0.0000   0.0000   0.0000

          k = 0.1667 0.0000 0.0000 (  6829 PWs)   bands (ev):

   -42.9070 -42.9062 -42.7473 -42.7464 -42.7450 -42.7441 -42.3617 -42.3615
   -42.3608 -42.3606 -10.0220  -9.8742   0.2495   1.2699   1.5714   1.5785
     3.2726   3.4232   7.8566   8.8245  11.3397

     occupation numbers 
     1.0000   1.0000   1.0000   1.0000   1.0000   1.0000   1.0000   1.0000
     1.0000   1.0000   1.0000   1.0000   1.0000   1.0000   1.0000   1.0000
     0.0769   0.0014   0.0000   0.0000   0.0000

          k = 0.1667 0.0000-0.1888 (  6830 PWs)   bands (ev):

   -42.9070 -42.9062 -42.7473 -42.7464 -42.7450 -42.7441 -42.3617 -42.3615
   -42.3608 -42.3606  -9.9496  -9.9494   0.8342   0.8343   1.4181   1.4182
     3.3487   3.3489   8.9867   8.9867  10.6887

     occupation numbers 
     1.0000   1.0000   1.0000   1.0000   1.0000   1.0000   1.0000   1.0000
     1.0000   1.0000   1.0000   1.0000   1.0000   1.0000   1.0000   1.0000
     0.0133   0.0132   0.0000   0.0000   0.0000

          k = 0.1667 0.1621 0.0000 (  6827 PWs)   bands (ev):

   -42.9070 -42.9062 -42.7473 -42.7464 -42.7450 -42.7441 -42.3617 -42.3614
   -42.3608 -42.3605  -9.9648  -9.8585   0.4623   0.7994   0.9945   1.4161
     3.3303   3.4386   8.9608  10.2639  10.4396

     occupation numbers 
     1.0000   1.0000   1.0000   1.0000   1.0000   1.0000   1.0000   1.0000
     1.0000   1.0000   1.0000   1.0000   1.0000   1.0000   1.0000   1.0000
     0.0214   0.0008   0.0000   0.0000   0.0000

          k = 0.1667 0.1621-0.1888 (  6828 PWs)   bands (ev):

   -42.9070 -42.9062 -42.7473 -42.7465 -42.7450 -42.7441 -42.3617 -42.3614
   -42.3608 -42.3605  -9.9124  -9.9122   0.5890   0.5890   1.2522   1.2522
     3.3846   3.3848   9.4754   9.4754  10.6759

     occupation numbers 
     1.0000   1.0000   1.0000   1.0000   1.0000   1.0000   1.0000   1.0000
     1.0000   1.0000   1.0000   1.0000   1.0000   1.0000   1.0000   1.0000
     0.0048   0.0048   0.0000   0.0000   0.0000

          k = 0.1667-0.3241 0.0000 (  6810 PWs)   bands (ev):

   -42.9070 -42.9061 -42.7473 -42.7465 -42.7450 -42.7441 -42.3617 -42.3614
   -42.3608 -42.3605  -9.8745  -9.8743   0.4608   0.4609   0.9657   0.9658
     3.4215   3.4217  10.2916  10.2916  10.6601

     occupation numbers 
     1.0000   1.0000   1.0000   1.0000   1.0000   1.0000   1.0000   1.0000
     1.0000   1.0000   1.0000   1.0000   1.0000   1.0000   1.0000   1.0000
     0.0015   0.0015   0.0000   0.0000   0.0000

          k = 0.1667-0.3241-0.1888 (  6844 PWs)   bands (ev):

   -42.9070 -42.9061 -42.7473 -42.7465 -42.7450 -42.7441 -42.3617 -42.3614
   -42.3608 -42.3605  -9.8743  -9.8741   0.2388   0.2388   1.2727   1.2728
     3.4210   3.4211   8.8567   8.8567  12.6691

     occupation numbers 
     1.0000   1.0000   1.0000   1.0000   1.0000   1.0000   1.0000   1.0000
     1.0000   1.0000   1.0000   1.0000   1.0000   1.0000   1.0000   1.0000
     0.0015   0.0015   0.0000   0.0000   0.0000

          k = 0.3333 0.0000 0.0000 (  6811 PWs)   bands (ev):

   -42.8641 -42.8632 -42.7581 -42.7572 -42.7557 -42.7548 -42.3608 -42.3606
   -42.3599 -42.3597  -8.8575  -8.7342  -0.6533  -0.5239   1.3708   2.2544
     2.3853   2.4879   9.2655  10.2063  10.7962

     occupation numbers 
     1.0000   1.0000   1.0000   1.0000   1.0000   1.0000   1.0000   1.0000
     1.0000   1.0000   1.0000   1.0000   1.0000   1.0000   1.0000   1.0000
     1.0000   1.0000   0.0000   0.0000   0.0000

          k = 0.3333 0.0000-0.1888 (  6792 PWs)   bands (ev):

   -42.8641 -42.8632 -42.7581 -42.7572 -42.7557 -42.7548 -42.3608 -42.3606
   -42.3599 -42.3597  -8.7968  -8.7966  -0.5960  -0.5959   1.8518   1.8519
     2.3678   2.3679   9.9303   9.9303  11.0471

     occupation numbers 
     1.0000   1.0000   1.0000   1.0000   1.0000   1.0000   1.0000   1.0000
     1.0000   1.0000   1.0000   1.0000   1.0000   1.0000   1.0000   1.0000
     1.0000   1.0000   0.0000   0.0000   0.0000

          k = 0.3333 0.1621 0.0000 (  6819 PWs)   bands (ev):

   -42.8641 -42.8632 -42.7581 -42.7572 -42.7557 -42.7548 -42.3608 -42.3605
   -42.3599 -42.3597  -8.8040  -8.7154  -0.5969  -0.5041   1.5521   1.8215
     1.9741   2.2860   9.8529  10.5941  10.6836

     occupation numbers 
     1.0000   1.0000   1.0000   1.0000   1.0000   1.0000   1.0000   1.0000
     1.0000   1.0000   1.0000   1.0000   1.0000   1.0000   1.0000   1.0000
     1.0000   1.0000   0.0000   0.0000   0.0000

          k = 0.3333 0.1621-0.1888 (  6804 PWs)   bands (ev):

   -42.8641 -42.8632 -42.7581 -42.7572 -42.7557 -42.7548 -42.3608 -42.3605
   -42.3599 -42.3597  -8.7602  -8.7600  -0.5535  -0.5533   1.6567   1.6567
     2.1679   2.1679  10.3675  10.3675  10.7840

     occupation numbers 
     1.0000   1.0000   1.0000   1.0000   1.0000   1.0000   1.0000   1.0000
     1.0000   1.0000   1.0000   1.0000   1.0000   1.0000   1.0000   1.0000
     1.0000   1.0000   0.0000   0.0000   0.0000

          k = 0.3333-0.3241 0.0000 (  6798 PWs)   bands (ev):

   -42.8641 -42.8632 -42.7581 -42.7572 -42.7557 -42.7548 -42.3608 -42.3605
   -42.3599 -42.3596  -8.7230  -8.7228  -0.5120  -0.5119   1.4963   1.4964
     1.9595   1.9596  10.0243  10.0243  10.5278

     occupation numbers 
     1.0000   1.0000   1.0000   1.0000   1.0000   1.0000   1.0000   1.0000
     1.0000   1.0000   1.0000   1.0000   1.0000   1.0000   1.0000   1.0000
     1.0000   1.0000   0.0000   0.0000   0.0000

          k = 0.3333-0.3241-0.1888 (  6828 PWs)   bands (ev):

   -42.8641 -42.8632 -42.7581 -42.7572 -42.7557 -42.7548 -42.3608 -42.3605
   -42.3599 -42.3596  -8.7228  -8.7226  -0.5098  -0.5096   1.3286   1.3287
     2.1680   2.1680  10.2501  10.2501  10.3134

     occupation numbers 
     1.0000   1.0000   1.0000   1.0000   1.0000   1.0000   1.0000   1.0000
     1.0000   1.0000   1.0000   1.0000   1.0000   1.0000   1.0000   1.0000
     1.0000   1.0000   0.0000   0.0000   0.0000

          k =-0.5000 0.0000 0.0000 (  6814 PWs)   bands (ev):

   -42.8426 -42.8417 -42.7634 -42.7625 -42.7611 -42.7602 -42.3604 -42.3602
   -42.3595 -42.3593  -7.8677  -7.8675  -2.5151  -2.5150   2.5195   2.5196
     3.0042   3.0044   9.6622   9.6623  10.8311

     occupation numbers 
     1.0000   1.0000   1.0000   1.0000   1.0000   1.0000   1.0000   1.0000
     1.0000   1.0000   1.0000   1.0000   1.0000   1.0000   1.0000   1.0000
     0.9136   0.9133   0.0000   0.0000   0.0000

          k =-0.5000 0.0000-0.1888 (  6784 PWs)   bands (ev):

   -42.8426 -42.8417 -42.7634 -42.7625 -42.7611 -42.7602 -42.3604 -42.3602
   -42.3595 -42.3593  -7.8673  -7.8671  -2.5216  -2.5215   2.5599   2.5600
     3.0050   3.0051   9.1154   9.1154  10.7635

     occupation numbers 
     1.0000   1.0000   1.0000   1.0000   1.0000   1.0000   1.0000   1.0000
     1.0000   1.0000   1.0000   1.0000   1.0000   1.0000   1.0000   1.0000
     0.9124   0.9122   0.0000   0.0000   0.0000

          k =-0.5000 0.1621 0.0000 (  6836 PWs)   bands (ev):

   -42.8426 -42.8417 -42.7634 -42.7626 -42.7611 -42.7602 -42.3604 -42.3601
   -42.3595 -42.3592  -7.8318  -7.8316  -2.4764  -2.4762   2.5832   2.5833
     2.5941   2.5942   9.3424   9.3425   9.5787

     occupation numbers 
     1.0000   1.0000   1.0000   1.0000   1.0000   1.0000   1.0000   1.0000
     1.0000   1.0000   1.0000   1.0000   1.0000   1.0000   1.0000   1.0000
     1.0000   1.0000   0.0000   0.0000   0.0000

          k =-0.5000 0.1621-0.1888 (  6800 PWs)   bands (ev):

   -42.8426 -42.8417 -42.7634 -42.7626 -42.7611 -42.7602 -42.3604 -42.3601
   -42.3595 -42.3592  -7.8315  -7.8313  -2.4791  -2.4790   2.5858   2.5859
     2.5986   2.5987   9.4708   9.4709   9.5290

     occupation numbers 
     1.0000   1.0000   1.0000   1.0000   1.0000   1.0000   1.0000   1.0000
     1.0000   1.0000   1.0000   1.0000   1.0000   1.0000   1.0000   1.0000
     1.0000   1.0000   0.0000   0.0000   0.0000

          k =-0.5000-0.3241 0.0000 (  6828 PWs)   bands (ev):

   -42.8425 -42.8417 -42.7635 -42.7626 -42.7611 -42.7602 -42.3604 -42.3600
   -42.3595 -42.3592  -7.7951  -7.7949  -2.4368  -2.4367   2.2351   2.2353
     2.6497   2.6498   8.6123   8.6123   9.4612

     occupation numbers 
     1.0000   1.0000   1.0000   1.0000   1.0000   1.0000   1.0000   1.0000
     1.0000   1.0000   1.0000   1.0000   1.0000   1.0000   1.0000   1.0000
     1.0000   1.0000   0.0000   0.0000   0.0000

          k =-0.5000-0.3241-0.1888 (  6784 PWs)   bands (ev):

   -42.8425 -42.8417 -42.7635 -42.7626 -42.7611 -42.7602 -42.3604 -42.3600
   -42.3595 -42.3592  -7.7950  -7.7948  -2.4355  -2.4354   2.2201   2.2202
     2.6371   2.6372   8.8392   8.8393   9.8929

     occupation numbers 
     1.0000   1.0000   1.0000   1.0000   1.0000   1.0000   1.0000   1.0000
     1.0000   1.0000   1.0000   1.0000   1.0000   1.0000   1.0000   1.0000
     1.0000   1.0000   0.0000   0.0000   0.0000

     the Fermi energy is     3.1354 ev

!    total energy              =   -1127.13437496 Ry
     total all-electron energy =    -28490.296333 Ry
     estimated scf accuracy    <       0.00000002 Ry
     smearing contrib. (-TS)   =      -0.00042241 Ry
     internal energy E=F+TS    =   -1127.13395255 Ry

     The total energy is F=E-TS. E is the sum of the following terms:
     one-electron contribution =    -320.73023605 Ry
     hartree contribution      =     170.48385314 Ry
     xc contribution           =    -107.91068559 Ry
     ewald contribution        =    -225.89318359 Ry
     one-center paw contrib.   =    -643.08370045 Ry
      -> PAW hartree energy AE =     153.10331916 Ry
      -> PAW hartree energy PS =    -154.19763792 Ry
      -> PAW xc energy AE      =    -373.21553201 Ry
      -> PAW xc energy PS      =      52.76809939 Ry
      -> total E_H with PAW    =     169.38953439 Ry
      -> total E_XC with PAW   =    -428.35811821 Ry

     convergence has been achieved in   1 iterations


     -----------------------------------------------
     Non-local corr. energy    =       1.16943235 Ry
     -----------------------------------------------


     Forces acting on atoms (cartesian axes, Ry/au):

     atom    1 type  1   force =     0.00000000    0.00000000    0.00000000
     atom    2 type  1   force =     0.00000000    0.00000000    0.00000000
     The non-local contrib.  to forces
     atom    1 type  1   force =     0.00000000    0.00000000    0.00000000
     atom    2 type  1   force =     0.00000000    0.00000000    0.00000000
     The ionic contribution  to forces
     atom    1 type  1   force =    -0.00000000    0.00000002   -0.00000037
     atom    2 type  1   force =     0.00000000   -0.00000002    0.00000037
     The local contribution  to forces
     atom    1 type  1   force =     0.00000000    0.00000351    0.00000000
     atom    2 type  1   force =     0.00000209    0.00000000    0.00000629
     The core correction contribution to forces
     atom    1 type  1   force =     0.00000000    0.00000028    0.00000000
     atom    2 type  1   force =     0.00000018    0.00000000    0.00000050
     The Hubbard contrib.    to forces
     atom    1 type  1   force =     0.00000000    0.00000000    0.00000000
     atom    2 type  1   force =     0.00000000    0.00000000    0.00000000
     The SCF correction term to forces
     atom    1 type  1   force =    -0.00000000    0.00000000   -0.00000000
     atom    2 type  1   force =    -0.00000000    0.00000000   -0.00000000

     Total force =     0.000000     Total SCF correction =     0.000000


     Computing stress (Cartesian axis) and pressure



     -----------------------------------------------
     Non-local corr. energy    =       1.16943235 Ry
     -----------------------------------------------

          total   stress  (Ry/bohr**3)                   (kbar)     P=        2.91
   0.00001055   0.00000000   0.00000000            1.55        0.00        0.00
   0.00000000   0.00003206   0.00000000            0.00        4.72        0.00
   0.00000000   0.00000000   0.00001682            0.00        0.00        2.47

     kinetic stress (kbar)  11389.14      0.00      0.00
                                0.00  11903.24      0.00
                                0.00      0.00  11903.74

     local   stress (kbar) -25380.47     -0.00     -0.00
                               -0.00   4449.77      0.00
                               -0.00      0.00   4253.45

     nonloc. stress (kbar)   1870.29      0.00      0.00
                                0.00   2296.97      0.00
                                0.00      0.00   2299.66

     hartree stress (kbar)  20010.89     -0.00     -0.00
                               -0.00   8130.03     -0.00
                               -0.00     -0.00   8221.57

     exc-cor stress (kbar)   7522.78      0.00      0.00
                                0.00   7504.48     -0.00
                                0.00     -0.00   7504.29

     corecor stress (kbar) -11984.20     -0.00     -0.00
                               -0.00 -11995.26     -0.00
                               -0.00     -0.00 -11995.19

     ewald   stress (kbar)  -3515.67      0.00     -0.00
                                0.00 -22382.28     -0.00
                               -0.00     -0.00 -22282.79

     hubbard stress (kbar)      0.00      0.00      0.00
                                0.00      0.00      0.00
                                0.00      0.00      0.00

     DFT-D   stress (kbar)      0.00      0.00      0.00
                                0.00      0.00      0.00
                                0.00      0.00      0.00

     XDM     stress (kbar)      0.00      0.00      0.00
                                0.00      0.00      0.00
                                0.00      0.00      0.00

     dft-nl  stress (kbar)     88.79      0.00     -0.00
                                0.00     97.77     -0.00
                               -0.00     -0.00     97.74

     TS-vdW  stress (kbar)      0.00      0.00      0.00
                                0.00      0.00      0.00
                                0.00      0.00      0.00

     MDB     stress (kbar)      0.00      0.00      0.00
                                0.00      0.00      0.00
                                0.00      0.00      0.00

     3D-RISM stress (kbar)      0.00      0.00      0.00
                                0.00      0.00      0.00
                                0.00      0.00      0.00



     -----------------------------------------------
     Non-local corr. energy    =       1.16943235 Ry
     -----------------------------------------------



     -----------------------------------------------
     Non-local corr. energy    =       1.16943235 Ry
     -----------------------------------------------



     -----------------------------------------------
     Non-local corr. energy    =       1.16943235 Ry
     -----------------------------------------------



     -----------------------------------------------
     Non-local corr. energy    =       1.16943235 Ry
     -----------------------------------------------



     -----------------------------------------------
     Non-local corr. energy    =       1.16943235 Ry
     -----------------------------------------------



     -----------------------------------------------
     Non-local corr. energy    =       1.16943235 Ry
     -----------------------------------------------



     -----------------------------------------------
     Non-local corr. energy    =       1.16943235 Ry
     -----------------------------------------------



     -----------------------------------------------
     Non-local corr. energy    =       1.16943235 Ry
     -----------------------------------------------



     -----------------------------------------------
     Non-local corr. energy    =       1.16943235 Ry
     -----------------------------------------------



     -----------------------------------------------
     Non-local corr. energy    =       1.16943235 Ry
     -----------------------------------------------



     -----------------------------------------------
     Non-local corr. energy    =       1.16943235 Ry
     -----------------------------------------------



     -----------------------------------------------
     Non-local corr. energy    =       1.16943235 Ry
     -----------------------------------------------



     -----------------------------------------------
     Non-local corr. energy    =       1.16943235 Ry
     -----------------------------------------------



     -----------------------------------------------
     Non-local corr. energy    =       1.16943235 Ry
     -----------------------------------------------



     -----------------------------------------------
     Non-local corr. energy    =       1.16943235 Ry
     -----------------------------------------------



     -----------------------------------------------
     Non-local corr. energy    =       1.16943235 Ry
     -----------------------------------------------



     -----------------------------------------------
     Non-local corr. energy    =       1.16943235 Ry
     -----------------------------------------------



     -----------------------------------------------
     Non-local corr. energy    =       1.16943235 Ry
     -----------------------------------------------



     -----------------------------------------------
     Non-local corr. energy    =       1.16943235 Ry
     -----------------------------------------------



     -----------------------------------------------
     Non-local corr. energy    =       1.16943235 Ry
     -----------------------------------------------



     -----------------------------------------------
     Non-local corr. energy    =       1.16943235 Ry
     -----------------------------------------------



     -----------------------------------------------
     Non-local corr. energy    =       1.16943235 Ry
     -----------------------------------------------



     -----------------------------------------------
     Non-local corr. energy    =       1.16943235 Ry
     -----------------------------------------------



     -----------------------------------------------
     Non-local corr. energy    =       1.16943235 Ry
     -----------------------------------------------



     -----------------------------------------------
     Non-local corr. energy    =       1.16943235 Ry
     -----------------------------------------------



     -----------------------------------------------
     Non-local corr. energy    =       1.16943235 Ry
     -----------------------------------------------



     -----------------------------------------------
     Non-local corr. energy    =       1.16943235 Ry
     -----------------------------------------------



     -----------------------------------------------
     Non-local corr. energy    =       1.16943235 Ry
     -----------------------------------------------



     -----------------------------------------------
     Non-local corr. energy    =       1.16943235 Ry
     -----------------------------------------------



     -----------------------------------------------
     Non-local corr. energy    =       1.16943235 Ry
     -----------------------------------------------



     -----------------------------------------------
     Non-local corr. energy    =       1.16943235 Ry
     -----------------------------------------------



     -----------------------------------------------
     Non-local corr. energy    =       1.16943235 Ry
     -----------------------------------------------



     -----------------------------------------------
     Non-local corr. energy    =       1.16943235 Ry
     -----------------------------------------------



     -----------------------------------------------
     Non-local corr. energy    =       1.16943235 Ry
     -----------------------------------------------

 BEEFens 2000 ensemble energies
             -0.917933961524305E+00
             -0.928848190260484E+01
             -0.422469779046756E+01
              0.321819133562579E+01
             -0.705000763011495E+01
             -0.867930058478095E+01
              0.443548305282536E+01
              0.652578497170140E-01
              0.752210979137864E+01
             -0.488629819278678E+00
              0.381227520035031E+01
              0.429157347222494E+00
             -0.278188410261006E+00
             -0.205566328242092E+00
              0.485109514946946E+01
             -0.355387901185014E+01
             -0.707138081415627E+01
             -0.228897711811836E+01
              0.209040213615205E+01
              0.560821001698741E-03
              0.104410250886693E+02
              0.873925612731265E+01
             -0.538472790091527E+01
              0.186004806824119E+01
             -0.111942762671726E+02
              0.920873665312625E+01
              0.311918430747253E+01
              0.832725945954322E+01
              0.562418101658888E+01
             -0.260873051988518E+01
              0.203363976323152E+01
             -0.374731348567267E+01
              0.153437878616819E+01
              0.557661476475407E+01
              0.591632770010948E+01
             -0.264216971559360E+01
              0.132422031441633E+02
             -0.525910367997544E+01
             -0.359647416113517E+01
              0.529941277007322E+01
              0.231944214239719E+01
              0.395720994235711E+01
             -0.771950113609757E+01
             -0.485169999047628E+00
              0.743097287226696E+01
              0.970301431460443E+01
             -0.981369300069485E+01
              0.667863032346451E+00
              0.343272018198985E+01
              0.220370025354091E+01
              0.387470515135553E+01
              0.846038945928673E+01
             -0.544591801095810E+01
             -0.528402558506107E+01
             -0.744949484967934E+01
             -0.112279763822421E+01
             -0.639854297000802E+01
              0.825615679223574E+00
             -0.918068520319046E+00
             -0.501000298455442E+01
              0.824228276619746E+01
              0.834500817176210E+01
             -0.232914803762612E+01
             -0.630244602432282E+01
             -0.381827843129754E+01
             -0.285395110805495E+00
              0.608184667682024E+01
             -0.826608180169124E+00
             -0.606891584961084E+01
              0.561252826413028E+01
             -0.103288553388961E+02
              0.914166366768950E+01
             -0.106589947593412E+02
             -0.471027676306415E+01
             -0.155356979087568E+01
             -0.983951409574855E+00
              0.557685115604421E+00
              0.741166764653774E+01
              0.459438028429707E+01
             -0.775332271899532E+01
             -0.102591477669336E+02
             -0.537159559153906E+01
             -0.397700106451862E+01
              0.606450855956176E+00
             -0.128620679169069E+01
             -0.374628699755547E+01
              0.459858190119873E+01
             -0.388592310438771E+01
              0.151184706832758E+02
             -0.693588528538085E+01
              0.151345139620591E+01
              0.155506160901859E+01
              0.233462185446129E+01
              0.530652446101925E+01
              0.375627237373753E+01
              0.355276577024855E+01
             -0.586861681547621E+01
              0.343819429174147E+01
              0.857938816415100E+00
             -0.125859630761816E+00
              0.689120396291310E+01
             -0.811517474603336E+01
              0.137526825807964E+02
             -0.324153292980832E+01
             -0.147041855842533E+02
              0.888901475119425E+00
              0.130854832558906E+01
             -0.400907212980697E+01
             -0.775378115819967E+01
             -0.389989772267890E+01
             -0.286511612769891E+01
              0.816221761007512E-01
             -0.610537489120313E+01
              0.313843504717006E+00
              0.674682819777587E+00
              0.140956537571743E+01
              0.131993709588583E+02
              0.162096831511406E+01
             -0.801182239349887E+01
             -0.605352433371409E+01
             -0.185804060781201E+01
             -0.521167609875263E+01
              0.882978583235251E+01
             -0.559521851036050E+01
              0.232108271361939E+00
             -0.116277229008992E+01
              0.146700738231615E+01
              0.517935776650158E+01
             -0.564976601441830E+01
             -0.112237114035845E+02
             -0.201923225044943E+01
             -0.229156991814416E+01
             -0.156103345386725E+01
              0.571620610050562E+01
             -0.980242780001731E+01
             -0.110788428332847E+02
             -0.144344526184160E+01
             -0.239646403244744E+01
             -0.416905694358316E+00
              0.305320354815821E+01
              0.671499563092518E+01
              0.342572745013960E+01
             -0.333893880022936E+01
             -0.351070687319757E+01
             -0.101197140074960E+02
             -0.753598576149322E+00
             -0.477565041638645E+01
             -0.300462523908979E+01
              0.843110474098648E+01
             -0.649898671037157E+01
             -0.227167840357849E+01
              0.785800660634312E+01
             -0.104187171502780E+01
             -0.205407657771627E+01
              0.135289010308023E+01
              0.307472646218500E+01
             -0.503187846696424E+01
              0.294102183140371E+01
              0.191667367838999E+01
              0.459878234618170E+01
             -0.476220567782577E+01
             -0.384363439241540E+01
              0.587470970031121E+01
             -0.497735472504608E+00
             -0.233890559582825E+01
             -0.203198749184807E+01
             -0.272919315491165E+01
             -0.373118562111522E+01
             -0.877382945360303E+01
             -0.110725146227551E+02
             -0.350770543645479E+01
             -0.348209318394273E+01
             -0.410055170612247E+01
             -0.672725891637000E+01
             -0.350549750042468E+01
              0.598383971982726E+01
              0.259350035793983E+01
              0.854389590568952E+01
             -0.363979438264201E+01
              0.291148648222183E+01
              0.158757261502911E+01
             -0.893994895320002E+01
             -0.210882680299134E+01
              0.480183105693197E+01
             -0.143928134911179E+02
              0.315052771743778E+01
              0.236355138291599E+01
              0.920532901840616E+01
             -0.280068545221268E+01
              0.793264261559996E+01
              0.121344220103407E+02
              0.100149214517523E+02
             -0.565902212320960E+01
             -0.310395622534838E+01
             -0.176040583041780E+01
              0.401400854773294E+01
              0.203814477492864E+01
             -0.215466241544084E+01
              0.583158997460282E+01
              0.118111759263586E+02
             -0.409705051296124E+01
             -0.289919433316635E+01
              0.199667278954838E+01
             -0.668825396845344E+01
             -0.573677822641513E+01
              0.500550483368306E+00
              0.170714760176367E+00
             -0.104601748098905E+01
              0.100509016701905E+02
              0.322114690968021E+01
             -0.173266851034529E+01
             -0.659203801855828E+00
             -0.131662694418362E+02
             -0.141456488302987E+01
             -0.303689202114526E+01
             -0.346420746577593E+00
              0.654744609649951E+01
             -0.342843867042575E+00
              0.914653496823055E+01
             -0.587192888049910E+01
             -0.599414448003786E+01
              0.604420915356701E+01
              0.797798889348769E+01
              0.106098660124360E+02
             -0.599171538535879E+01
             -0.332648867852768E+01
              0.630437166915092E+01
              0.693450676354218E+01
             -0.780368799138034E+01
             -0.195051652734816E+01
              0.839754161592690E+01
              0.546869682517556E+01
              0.324191709978631E+01
              0.308529367563641E+01
             -0.218770971671550E+01
             -0.500989288613688E+00
              0.351249208492663E+01
             -0.364963736317298E+01
             -0.462217001534643E+01
              0.111473496444766E+01
             -0.215381017882243E+01
              0.320057983774640E+01
             -0.543512556168776E+01
              0.652686803007961E+01
             -0.955574869983622E+00
              0.633987758067512E+01
             -0.229095092932964E+01
             -0.785881191435557E+01
             -0.364388700221028E-01
              0.210953137723650E+01
              0.176246578331720E+01
              0.763571540361060E+00
              0.900706352910806E+00
              0.151197492062362E+01
              0.119458835681545E+02
             -0.881080117252354E+01
              0.198138794769375E+01
             -0.427779248243137E+00
              0.178413397267391E+00
              0.477507101851939E+01
              0.349293669443104E+01
             -0.358876297154028E+01
              0.105658131130188E+01
             -0.604913884776282E+01
             -0.197959813867786E+01
             -0.180440930371013E+00
             -0.131728240006164E+02
              0.316205527334164E+01
              0.644210118580037E+01
              0.328664858981374E+01
              0.475488670557776E+01
             -0.284002057517368E+01
              0.272407355765576E+01
              0.712629088986544E+01
             -0.542160655585010E+01
              0.319365722208701E+01
              0.883612884554140E+01
             -0.120892989414628E+01
              0.565715634484648E+01
             -0.173434053720896E+01
             -0.241881284659316E+01
             -0.605342590283886E+00
             -0.621210112590738E+01
              0.357906319030549E+01
              0.343258357951857E+01
              0.662881823766110E+01
             -0.363649277884867E+01
              0.590910544488561E+01
              0.117589240266232E+02
              0.633289342835257E+01
             -0.535359871703895E+01
             -0.212257759696049E+01
             -0.103354719470626E+02
              0.100658613533928E+01
              0.141800344128690E+01
             -0.294781278414685E+00
             -0.202361507539732E+01
              0.155876333308419E+01
              0.743652994439174E+01
             -0.868799660003816E-01
              0.342503075714254E+01
              0.334842668193019E+01
             -0.167489131897212E+01
             -0.107152757445358E+02
              0.387614629560933E+01
             -0.690882170737188E-01
              0.555605536279166E+01
             -0.142075669742648E+01
             -0.203078273424448E+01
             -0.241174986859254E+01
              0.154262683089958E+01
              0.507719242447394E+00
              0.275566661849480E+01
              0.277064329182653E+01
             -0.767628758945564E+01
              0.417978699024159E+01
              0.504987880773858E+01
              0.407657542045529E+01
              0.791498481516794E+01
              0.316519947887701E+01
              0.918376833446517E+01
             -0.273328160352269E+01
             -0.310698254911053E+01
              0.446958549526717E+01
              0.453298716504432E+01
              0.116964485988092E+00
              0.694630011572994E+00
              0.487528628885194E+01
              0.376621140693085E+01
             -0.240941861864323E+01
             -0.473110709205613E+00
             -0.866880763233006E+00
             -0.805475849952472E+00
             -0.865859453735919E+01
             -0.274215037759641E+01
              0.417420746890515E+01
              0.234019983376503E+01
              0.348282198631674E+01
             -0.659542872612159E+01
             -0.931189420334512E+01
              0.230572476428236E+01
              0.919423418752249E+01
              0.476018517311901E+01
             -0.463607557915819E+01
             -0.915934202296061E+01
             -0.545892025311836E+00
              0.307114605995805E+01
              0.302998121973705E+01
             -0.120050643384597E+01
              0.806871808776449E+01
              0.245731969699443E+01
             -0.566756512410523E+01
              0.611994409352618E+01
              0.332485610015972E+01
              0.516618009755035E+00
             -0.193718535331143E+01
             -0.411402652957751E+01
             -0.629366880411148E+01
              0.195654927107594E+01
             -0.123539296550532E+01
             -0.406641259379578E+01
              0.276697207517453E+00
             -0.371714141365149E+01
              0.231424313832451E+01
             -0.100554416793622E+02
              0.236903857426337E+01
             -0.107950046569899E+01
             -0.517349046591614E+00
              0.299057890682352E+01
              0.290081376338544E+01
              0.127548588001554E+02
              0.346305284643698E+00
             -0.415256898623160E+01
             -0.937531196984026E+01
              0.488023125698616E+01
             -0.454066692968397E+00
              0.341212610070107E+01
              0.208104065188714E+01
             -0.118413260403545E+01
              0.779836943499346E+01
              0.642498439852511E+01
             -0.156258321452609E+01
              0.672072235802872E+01
             -0.851767478814965E+01
              0.201852121970332E+01
              0.493338167313754E+01
             -0.600281012288023E+01
             -0.784396008444786E+01
             -0.861038789081073E+01
             -0.844759426869533E+01
              0.804422749534552E+01
             -0.656022336550190E+01
             -0.102342703161700E+01
              0.406452276640905E+01
             -0.326951229037449E+01
              0.130312672362142E+01
              0.203671245965741E+01
              0.452389595534639E+01
             -0.729719304627687E+01
              0.519746005505094E+01
             -0.248816860676502E+01
             -0.108361857735905E+02
              0.401859411042439E+01
             -0.253462822683961E+01
             -0.603032298371588E+01
             -0.280470801370299E+01
              0.504589632253530E+01
              0.393567308692085E+01
              0.137014267247198E+01
              0.239151767797044E+01
             -0.112542615379887E+00
              0.215419949300630E+01
             -0.667946743334912E+01
              0.120768058220227E+01
             -0.134508971087280E+01
             -0.544494701381569E+01
              0.151465527934693E+01
             -0.801878518738668E+00
              0.774869094923519E+01
              0.124969655781688E+01
              0.868559426427105E+01
              0.124314774396255E+01
              0.249270402729611E+01
             -0.231450520480191E+01
             -0.216607727869107E+01
              0.494187696021625E+01
              0.192380003759941E+01
             -0.429189349388403E+01
              0.973875950516113E+01
              0.722014062737429E+01
              0.730460500195128E+01
              0.490787454278171E+01
             -0.171700973606219E+01
             -0.120964398392709E+02
             -0.876790726432290E+00
             -0.337463908246301E+01
             -0.460956367107256E+01
              0.517801348611961E+01
             -0.112734737756172E+02
              0.478272066912234E+01
              0.384263488626314E+01
             -0.387389865833467E+01
             -0.626804822759880E+00
             -0.159306400053224E+01
             -0.345181042365369E+01
              0.362732551685927E+01
              0.449620910454632E+01
             -0.626493175919478E+00
             -0.272863518574626E+01
              0.997816275087132E+00
             -0.180662538686349E+00
             -0.717162386574235E+01
             -0.492135429359799E+01
             -0.341190477691313E+00
             -0.553802864033187E+01
             -0.300243159026599E+01
              0.177439446318669E+00
             -0.917105727651667E+01
             -0.479466045674403E+01
              0.365974601088611E+00
             -0.117356242837928E+02
              0.145443648811145E+01
             -0.111574555638003E+02
              0.613802643167769E+01
             -0.480281315580591E+01
              0.644267579043525E+01
             -0.228393799499213E+01
             -0.914358033372246E+01
             -0.477658887850103E+00
             -0.498122519875272E+01
             -0.275982843596990E+01
              0.174364192151603E+01
             -0.102715768063605E+02
              0.177360253654562E+01
              0.501225571582229E+01
             -0.990123175061110E+01
             -0.114460499124166E+01
             -0.911760439051342E+01
             -0.101598067786047E+02
             -0.645784886980631E+01
             -0.103840753358875E+01
             -0.509609366392642E+01
              0.494284497372445E+01
              0.549964846512118E+01
             -0.406904613150441E+01
              0.282261717210280E+01
             -0.395407957894919E+01
              0.353161022121975E+01
             -0.534585305364255E+01
             -0.532934431748625E+01
              0.493566444336891E+01
              0.378882535412284E+01
              0.147393061967020E+01
              0.560297066132007E+01
              0.122049819179944E+02
             -0.202348337667884E+01
              0.381573936598486E+01
             -0.108380402864421E+02
             -0.995021390102812E+01
             -0.463090789430019E+00
              0.105088722164589E+01
              0.312530201703116E+01
             -0.803618959440706E+01
              0.151925726612759E+01
              0.973200437943885E+01
             -0.765802926562259E+01
             -0.133747289827431E+01
             -0.105863518547958E+02
             -0.110670881071416E+01
              0.583998894056577E+00
             -0.739089258568225E+01
              0.220824294242296E+01
             -0.109157821951177E+02
             -0.503076488407757E+00
             -0.849996535780662E+00
              0.999976879154715E+00
             -0.667123870131981E+01
              0.495788324597161E+01
             -0.851952100741620E+00
             -0.851365890154113E+00
              0.853860782973022E+00
              0.338822580464454E+01
              0.697009351643405E+01
             -0.195035260004262E+01
              0.534427889244039E+01
              0.910674127817283E+01
              0.173198419040050E+01
             -0.372720647952178E+00
              0.280986022122754E+01
              0.824672764316089E+00
             -0.106460697892123E+01
              0.428242126042788E+01
             -0.122314769802661E+01
             -0.598079622269515E+01
              0.331274417081318E+01
             -0.427085773397833E+01
             -0.342547555669735E+01
             -0.113301466383993E+00
             -0.787075831404064E+01
             -0.202974860688200E+01
             -0.857910889118297E+01
             -0.499585286554963E+00
             -0.227181468210023E+01
              0.431600926116481E+01
             -0.910865846492710E+01
              0.778469457838220E+00
              0.322033186715501E+00
             -0.740037656727531E+01
              0.429440035294035E+01
              0.817515426176222E+01
              0.215224195779098E+01
             -0.702285891605548E+01
             -0.785366686295437E+01
              0.104979211761351E+02
              0.792959027938216E+01
              0.343886898820773E+01
             -0.263908124282563E+01
             -0.484779056370285E+01
              0.459065016773896E+01
              0.189975920939332E+01
              0.902899799724860E+01
              0.830790333781749E+01
              0.700154089694587E+01
              0.368111811448088E+01
             -0.146641700244114E+02
             -0.393719322282890E+01
              0.188542637122795E+01
             -0.312083640745985E+01
              0.853082389947065E+01
              0.364800386533122E+01
             -0.336189157901359E+01
             -0.992846500564369E+00
              0.981043612724899E+01
              0.953714043597444E+00
             -0.111776162515440E+01
             -0.166387373535917E+02
              0.410147366068123E+01
             -0.355567879967024E+01
              0.739277341397419E+01
             -0.649074774937237E+01
             -0.969610600035502E+00
              0.256723310023057E+01
             -0.568665111607665E+01
             -0.935961574500826E+01
              0.439342773212857E+00
              0.325813321128357E+01
             -0.336488895325047E+00
             -0.239353922821428E+01
             -0.137610886667656E+01
             -0.563809975315808E+01
             -0.106265626027420E+02
              0.152984323776170E+00
             -0.403791083392255E+01
             -0.101387363796693E+01
             -0.421380411790942E+01
              0.169619958010008E+02
              0.356737916212774E+01
             -0.568761143992250E+01
             -0.526739775327232E+01
              0.218098504445656E+01
              0.410372393621549E+01
              0.647997308507335E+01
             -0.466521141390874E+01
             -0.101891743617272E+02
             -0.299098338219941E+01
             -0.556555878063040E+01
              0.578343122460669E+01
              0.647791734671231E+01
              0.908989834872287E+00
              0.261142308841967E+01
              0.445804824428555E+01
              0.542067327196683E+01
             -0.102257425329622E+02
             -0.220041115900183E+01
              0.681542431721624E+00
             -0.155355523752242E+01
             -0.441548147145328E+01
              0.128305196918980E+00
             -0.170148331190823E+01
             -0.413457732829602E+01
             -0.420313267254692E+01
              0.174423309473143E+01
             -0.128910861316926E+02
             -0.663242207407056E+01
             -0.556961716628619E+01
              0.116318099146219E+02
             -0.206413626072158E+01
             -0.119921645371242E+01
              0.125543993234328E+02
             -0.616887753411316E+01
              0.763759187127790E+01
             -0.476139812135017E+01
             -0.202276269509534E+00
              0.242631292839164E+00
             -0.109485589218220E+01
             -0.576611300820786E+01
              0.155666296639528E+01
              0.958153071173733E+00
             -0.446575846904607E+01
              0.401210456975249E+01
             -0.436870188691114E+01
             -0.121911114528866E+01
              0.120193282419831E+01
              0.556672817337486E+00
             -0.286166038976613E+01
             -0.218420932390800E+01
              0.575827400034082E+01
              0.137151662555895E+01
              0.235780766787934E+01
             -0.517667092710320E+01
             -0.476795383399363E+00
             -0.200184693416087E+01
             -0.188326022710469E+01
              0.951009874816584E+00
             -0.512089949146448E+01
             -0.361314575696279E+01
             -0.290741097178584E+01
             -0.270901615461156E+00
              0.597797442515007E+01
              0.114201144176401E+02
              0.147962804752140E+00
              0.634632017148904E+01
             -0.676325580895980E+00
             -0.562908281355103E+01
              0.233778885181984E+00
             -0.554485812851712E+01
             -0.318556927083100E+01
              0.228053971171331E+01
              0.102816649918802E+02
              0.399549098697520E+00
             -0.576663686191409E+01
              0.461811645929448E+01
              0.161793938614886E+01
              0.208666461527677E+00
             -0.227969775144471E+01
             -0.566225079272095E+01
              0.625568069628414E+00
              0.853281513729346E+01
              0.521203981648693E+01
              0.158524468380945E+01
              0.122437536040648E+02
              0.486333990626377E+01
             -0.435832778675334E+01
              0.855915794490659E+01
              0.406276653644935E+01
              0.439897194620774E+01
              0.345505170514059E+01
              0.521094223897087E+00
              0.307523867610409E+01
              0.600752606608521E+01
             -0.123625520254416E+02
             -0.627968932730001E+01
             -0.586156293401141E+01
             -0.845360972099571E+01
              0.473116252497339E+01
             -0.660894509364256E+01
              0.134629801037102E+01
             -0.538261141293949E+01
             -0.111021233635438E+02
             -0.255447504264671E+01
             -0.572780260238493E+01
             -0.140973267393749E+02
             -0.923459137187851E+01
             -0.268845016609315E+01
              0.251441636143917E+01
             -0.499187889765366E+01
             -0.534724224145616E+01
              0.330704834945895E+01
              0.658588290616714E+01
              0.997068093485717E+01
             -0.341879087615951E+00
              0.165838282414735E+01
             -0.201930054536400E+01
             -0.513729328346708E+01
              0.197644940689724E+00
             -0.514780539334893E+01
             -0.679368102392189E+01
              0.648861093805074E+01
             -0.595509819781827E+01
              0.168782616530009E+00
             -0.658936353693832E+00
              0.874047541120122E+01
             -0.298494174824754E+01
              0.549251548257345E+00
             -0.144404715792804E+01
             -0.706236226552143E+00
              0.381008360524014E+01
             -0.693043418821412E+01
              0.193625092279881E+00
              0.997430963796771E+01
              0.944347664270634E+01
              0.107908431886537E+02
             -0.316329180212480E+01
             -0.619941894742039E+01
             -0.105339957577181E+01
             -0.420910281532043E+01
             -0.342587475336964E+01
              0.154891077851270E+01
             -0.247681401560229E+01
              0.950031534510913E+01
             -0.186772500270575E+01
              0.816958057074935E-01
              0.739745682190019E+00
             -0.196116584646333E+01
             -0.141152504867198E+01
              0.439286237400671E+01
             -0.713099318543125E+01
             -0.247997443372011E+01
              0.181309655298734E+01
              0.510853118944467E+01
             -0.395135527997590E+01
              0.345752603156414E+01
             -0.796693146860557E+01
             -0.101337784097083E+01
              0.974069533549482E+00
              0.195416945708606E+01
              0.152199292232842E+01
              0.920442010921900E+01
             -0.693001620657739E+01
              0.655036718826492E+01
             -0.714445387726556E+01
              0.565609547350619E+01
             -0.494568779820646E+01
              0.125631848608964E+01
             -0.595077105244103E+01
              0.321684611633380E+01
             -0.472478769228220E+00
             -0.166336106287505E+02
              0.677150297141419E+01
             -0.238866896272569E+00
              0.455970665671762E+01
             -0.388321215702930E+01
              0.931507370466856E+01
              0.361858279176482E+01
              0.639894254030504E+01
             -0.680725453777558E+00
             -0.122704386416096E+00
             -0.713818815434560E+01
             -0.671983474983279E+01
             -0.523546270092217E+01
              0.377297024582458E+01
             -0.794417181926176E+01
             -0.896094196490523E+00
             -0.253462647787416E+01
              0.427803150284277E+01
              0.359504960697032E+01
             -0.233612356832498E+01
              0.864294564556110E+01
             -0.166120898752342E+01
             -0.403239215721971E+01
             -0.252460686157356E+01
              0.810624938113261E+01
              0.811883408350139E+01
              0.711818458942400E+00
             -0.777563377960917E+01
              0.227281384719953E+01
              0.220108463953749E+01
              0.457496676880220E+01
              0.413264239505758E+01
              0.221171368653911E+01
             -0.993604374122924E+00
             -0.132024558350395E+02
              0.352042035264946E+01
              0.364813073650942E+01
              0.518685938186361E+01
              0.718700598725384E+00
              0.184956473862860E+01
              0.188129787411176E+01
             -0.285065421043954E+01
              0.552576582465510E+01
             -0.516058170977937E+01
              0.781259526933773E+00
              0.319911759517339E+00
              0.298743436249862E+01
             -0.118335925272963E+02
             -0.235588288957286E+00
             -0.330524613864269E+01
             -0.492404922439357E+01
              0.707369804405126E+00
             -0.574953186618288E+01
              0.725925368010227E+01
             -0.112320063909764E+02
              0.516742380059752E+01
              0.170129702431321E+01
             -0.103793652339593E+01
             -0.462774183367800E+01
              0.455478740035646E+01
             -0.554164095761065E+01
             -0.379889641607151E+01
             -0.498771071806571E+01
             -0.174553471534485E+01
             -0.318190810972122E+01
              0.117629931414013E+01
              0.433691769658044E+01
             -0.518618471829945E+00
             -0.565797412010101E+00
              0.101220232627816E+02
             -0.150287796432898E+01
             -0.603168353992345E+01
             -0.735311665264960E+01
              0.709351355726971E+01
              0.128351068677278E+01
              0.326442623749730E+01
              0.137222017607847E+01
              0.690695261496434E+01
             -0.288235820464606E+01
              0.268233415952704E+01
              0.525456665192191E+00
             -0.919865952459391E+01
             -0.256963861261499E+01
              0.203659335470840E+01
              0.192731206200229E+01
              0.634368270832188E+01
             -0.131928334069299E+01
              0.724208398417511E+01
              0.268117745194045E+01
             -0.135191525522117E+00
              0.954461568573258E+00
              0.485108713855509E+01
              0.112490787276168E+02
              0.114790410630113E+01
              0.828465148983047E+01
             -0.497618912588593E+01
             -0.849476483607651E+01
             -0.597403680505052E+01
             -0.228139226164018E+01
              0.542749752563472E+01
             -0.279447802508770E-02
              0.359447714390903E+00
             -0.446011784540986E+01
             -0.183338648863523E+01
              0.942517069876804E+00
              0.349641893611700E+01
             -0.395787795883300E+01
              0.682074112294436E+01
              0.214278595917580E+01
              0.828881758401631E+01
             -0.294628296650140E+01
              0.845014085284446E+01
             -0.230013850293047E+01
              0.888519452798014E+01
              0.251804142746322E+01
             -0.428787401052125E+01
             -0.567350337137703E+01
             -0.701850606738256E+00
              0.598563510794686E+01
              0.342075314359358E+01
             -0.381544722082578E+01
              0.301840506154832E+01
             -0.385800570772919E+01
              0.593679697905142E+01
             -0.738064724898898E+00
              0.246799420771144E+01
              0.962613116266875E+01
             -0.107242462518357E+01
              0.230162487494212E+01
             -0.393592442371491E+01
             -0.208509356751181E+01
             -0.724535960378350E+01
             -0.868522247904480E+00
             -0.148214222312883E+02
             -0.677569523977768E+01
             -0.440631989489500E+01
             -0.811943019697297E+01
              0.274346362743660E+01
             -0.322951975852479E+01
              0.292065172502132E+01
             -0.370579973561210E+01
              0.439669337233254E+01
              0.701418029190595E+01
              0.729680109578326E+01
             -0.373789765812309E+01
              0.294091143322006E+01
              0.667182595448323E+01
             -0.192368523908826E+01
             -0.284698308410727E+01
              0.569521257397767E-01
             -0.564778977572387E+01
             -0.594079537192485E+01
              0.384817235862957E+01
              0.256616007677619E+01
              0.422055680908968E+01
             -0.699582470046671E+00
             -0.718720695047631E+01
              0.343926475231652E+01
             -0.292327810390896E+01
             -0.913322312482705E+00
              0.700538885228351E+01
             -0.187713276894359E+01
              0.920243492569000E+00
              0.890890833703592E+01
              0.170341983401953E+01
              0.494435875885679E+01
             -0.355669659744922E+01
             -0.272157946260819E+01
              0.289263935793011E+01
             -0.301239465450096E+01
             -0.382705194611171E+01
              0.114236562561455E+02
             -0.407654271526280E+01
              0.400426965417156E+01
              0.372029837620840E+01
              0.335016933420066E+01
              0.559963229368865E+00
             -0.891366137267261E+01
              0.634923299687270E+01
             -0.111987487101647E+02
              0.734056703433006E+01
             -0.210613541399315E+01
              0.557181319301488E+01
             -0.336234363863440E+00
             -0.716250485895889E+01
              0.464902880467552E+00
              0.455955035556317E+01
             -0.710449924061818E+01
             -0.420965251301262E+01
             -0.943884509710287E+01
              0.104339018592457E+02
              0.158356327256806E+01
             -0.393145088366093E+01
             -0.295924581045664E+00
             -0.271887804599783E+01
              0.140566939619086E+01
              0.120447911360272E+02
              0.496240502078115E+01
             -0.343677444456587E+01
              0.785012455848240E+01
             -0.635178007304644E+01
              0.340609733307417E+00
              0.110785126258772E+02
             -0.723700774697811E+00
              0.565062035597482E+01
              0.639864360355246E+01
              0.277715778493070E+01
             -0.639003352890764E+01
              0.620499673363904E+00
              0.930552376697035E+01
             -0.766914779340098E+00
              0.498971742034526E+01
              0.589231449009421E+01
             -0.459871819176495E+00
             -0.296476137963518E+01
             -0.400085243837647E+01
              0.232743923486486E+01
             -0.280127375556106E+00
             -0.451807855652646E-01
             -0.568898332524931E+00
              0.358050504761708E+01
             -0.760979020000247E+00
             -0.914599577801935E+01
             -0.639403489876092E+01
             -0.687024420731445E+01
              0.290699196843736E+01
              0.403633312232834E+01
              0.312346736653623E+00
             -0.538380423557841E+01
              0.557563549611899E+01
             -0.323982396300438E+01
             -0.338887045200200E+01
             -0.456046098843945E+01
              0.596854484050887E+01
             -0.715773074390119E+01
             -0.134875379703166E+01
              0.458626948301017E+00
              0.167180775373888E+01
              0.768432003489472E+00
             -0.143231361114134E+01
             -0.284035763207359E+00
              0.809028548381306E+00
              0.917949199638913E+01
              0.338161756584924E+01
              0.311296843002188E+01
              0.891959539953955E+00
             -0.456359854140230E+01
             -0.567944460293687E+01
             -0.247254848411701E+01
             -0.272047507164700E+01
             -0.900377994812662E+01
             -0.200000434630356E+01
              0.241503181536637E+01
             -0.492293477897443E+01
              0.274718768742639E+01
             -0.149969728540207E+01
             -0.753777526402214E+00
             -0.988601241444119E+00
             -0.651018379411653E+01
             -0.174264045580182E+00
              0.143877874257301E+01
              0.957309501216827E+00
              0.623995005086762E+01
             -0.830488352507506E+01
              0.195513355230324E+01
              0.191579401409071E+01
              0.396119018619491E+01
              0.439351374017534E+00
              0.939533999338875E+01
              0.598286162788632E+01
             -0.939409210049590E+00
             -0.368851958930472E+01
             -0.125879722492844E+01
             -0.578947192624723E+01
             -0.569926569611733E+01
             -0.894624161992751E+01
             -0.917522713457822E+01
              0.413678506628818E+01
             -0.235236924565562E+01
              0.288631195893240E+01
             -0.106057582821195E+01
             -0.626487317728985E+01
             -0.193996893903397E+01
              0.192013360715286E+01
             -0.737715766713755E+01
[...]
              0.391539607400925E+01
             -0.263026292917110E+00
              0.120662906203709E+02
              0.200439363090630E+01
             -0.186225023968785E+01
              0.241332900194820E+00
             -0.117683793032547E+01
              0.985670468797732E+01
             -0.519543777911359E+00
              0.208090961205050E+01
              0.711062542024700E+01
              0.158970799505137E+01
             -0.564084571999478E+01
             -0.817602330702614E+01
              0.122200242925402E+00
             -0.920512783962160E+01
              0.309024262637979E+01
             -0.189059437016442E+01
             -0.422919042569262E+01
              0.388524366349301E+01
              0.152537349658827E+01
              0.352643016840202E+01
              0.310109824310729E+00
              0.554856618727530E+01
             -0.912767321618923E+01
             -0.804439203489316E+00
             -0.792453692930674E+01
              0.145540249343112E+01
              0.430089432966182E+01
             -0.722351678902399E+00
             -0.297149343907001E+01
              0.638340130401604E+01
             -0.302129684518911E+01
              0.207283788725187E+01
             -0.190905147369933E+01
              0.458805245894652E+01
              0.551023725921503E+01
             -0.236326461903025E+01
              0.481695510328573E+01
              0.182581158560397E+01
             -0.492210273428291E+01
             -0.293387543614777E+01
              0.790129140757142E+01
              0.371887172862628E+01
             -0.349431200461963E+00
             -0.999088752436975E+00
              0.116466762326064E+02
              0.695931445044311E+01
              0.256249206586062E+01
             -0.735479558585830E+01
              0.116687392073093E+02
             -0.527134561052647E+01
             -0.653106550275870E+01
             -0.100949743795330E+02
              0.486914662754597E+01
             -0.926340617110683E+01
              0.405673137208057E+01
              0.659722602261134E+01
              0.492119560509893E+01
              0.103546718015802E+01
              0.288173037500518E+01
             -0.731487081391227E+01
             -0.263427295452315E+01
             -0.227814974112871E+01
              0.351782337079666E+01
              0.783430352402175E+01
              0.775434560004020E+01
              0.590074312821111E+01
             -0.142207299592056E+01
              0.209531685813259E+01
              0.293498919181467E+00
             -0.232633812872514E+01
              0.348209586618061E+01
              0.328195074966356E+01
             -0.475311252726149E+01
             -0.485208334915824E+01
             -0.219360903334689E+01
              0.512107698034912E+01
              0.265155036582664E+01
             -0.353436334328874E+01
             -0.606293018092164E+01
             -0.833420582293643E+01
              0.179986553690698E+00
              0.236925010151717E+01
             -0.321287194005199E+01
              0.118433787186590E+02
              0.856134614302277E-01
             -0.137015654208175E+02
              0.342873261085542E+01
              0.566634920343706E+01
             -0.208506626900194E+01
              0.240336821571756E+00
             -0.310909001738709E+01
              0.525903837265394E+01
              0.264663696705611E+01
             -0.694138791231000E+01
              0.824702331449270E+01
              0.504899276315104E+00
             -0.328410368768098E+01
             -0.407764257365285E+01
              0.165517453869659E+02
              0.736775092211761E+01
             -0.186903958816754E+01
              0.411966276957040E+01
             -0.808493001509254E+01
             -0.173033789295970E+01
             -0.718111925396003E+01
              0.280199016034438E+01
              0.514989708639451E+01
              0.564048780383492E+01
             -0.246455257476138E+01
              0.417635733314512E+00
              0.704715055993281E+01
              0.226744335304841E+01
              0.416336955537571E+01
              0.168195512419423E+01
             -0.952675349211837E+00
              0.389273448511567E-01
             -0.133870809946459E+01
              0.147583953006669E+01
              0.462605952422507E+00
             -0.641553202386269E+01
              0.975566079564141E+01
              0.373013908691122E+01
             -0.696466668507381E+01
             -0.507803272070344E+01
             -0.720103040572670E+01
             -0.315776624437378E+01
             -0.229081882772392E+01
             -0.573156784141599E+01
             -0.562932833129765E+01
              0.676723309652740E+01
              0.541284306171239E+01
             -0.716539470247739E+00
              0.815788022072314E+01
              0.122107086579493E+01
             -0.130199238191888E+02
              0.699357828948587E+01
              0.120633445676469E+01
              0.548977178401686E+01
              0.754691717878700E+00
              0.563459285305520E+00
              0.108662743532459E+01
              0.294672474802289E+01
             -0.546560933621405E+01
             -0.258221318558538E+01
             -0.508578336812340E+01
             -0.430240516011258E+01
              0.174097068803836E+01
             -0.469462147788633E+01
              0.230633335709009E+01
              0.316309351230819E+01
             -0.288116650982408E+01
             -0.182365318618593E+01
              0.833943376996551E-01
              0.807485327743380E+01
              0.126413171147497E+01
              0.774724980212670E+01
              0.274092375521067E+01
             -0.103142438951053E+02
             -0.341734341633018E+01
              0.351073643710426E+01
              0.808992994899859E+01
              0.134968470100211E+01
              0.330784802885421E+01
              0.744678218517924E+01
             -0.432069393933623E+01
             -0.658373718906989E+01
              0.916450792376259E+01
              0.493774557260728E+00
             -0.971055872715998E+01
              0.349960911504232E+01
              0.615040430827433E+01
             -0.157745100847670E+01
             -0.638662604852464E+01
              0.135165366372115E+01
              0.237252691275330E+00
             -0.312665179224210E+01
              0.119871343590916E+01
             -0.106857027571913E+01
              0.144377808569792E+02
              0.420529367466072E+01
             -0.611780488915674E+01
              0.184271553144964E+01
              0.880272017444055E+01
             -0.591641492124012E+01
             -0.148613801126110E+01
             -0.558506769107741E+01
              0.444906027742508E+01
              0.144879462314223E+01
              0.295240874663856E+01
              0.541272727046081E+00
              0.102514110316610E+02
             -0.573748547815904E+01
             -0.458838267203704E+01
             -0.444477584960319E+01
              0.387186108024259E+01
              0.101774654127213E+02
             -0.170260517697137E+01
              0.417312668365359E+01
             -0.591034052892925E+01
              0.110724415764582E+01
             -0.192035147061488E+01
              0.352462189849561E+00
             -0.225228428795758E+01
             -0.187789327808747E+01
             -0.179341240819379E+01
              0.154290313206941E+01
              0.301760699478248E+01
             -0.639846227721522E+01
              0.474775718332814E+01
             -0.766741340036222E+01
              0.584743249682046E+01
             -0.614805390824689E+01
              0.987295499470095E+01
              0.542158846509644E+01
              0.623980947688363E+01
              0.153287605398782E+01
              0.183427609103289E+01
             -0.136314043493056E+02
              0.231299189264218E+01
              0.526633520249973E+00
              0.133668464381270E+01
             -0.222666646014883E+01
              0.105537346521747E+02
             -0.247854334400381E+01
             -0.439255742545760E+01
             -0.102797911853702E+02
             -0.356176663007459E+01
             -0.491338165390774E+01
             -0.423927123987982E+01
             -0.998446848971078E+00
             -0.236377163576078E+01
             -0.290999057356409E+01
             -0.453467976002311E+01
              0.349615493203791E+01
              0.109386820616054E+02
              0.926052733483531E+01
             -0.163387516438721E+01
             -0.111786994209083E+02
             -0.473500395044211E+01
              0.228430538106636E+01
              0.225865730606136E+01
              0.365066988821165E+01
              0.255638276128248E+01
              0.473175893688371E+00
              0.109142841558678E+02
             -0.266960645813743E+01
              0.535166520964971E+01
              0.268249623969756E+01
             -0.367478435623308E+01
             -0.176516247457032E+01
              0.494606170375268E+01
             -0.261266520146892E+01
             -0.161570525871440E+01
             -0.120974416806551E+01
              0.636449639698573E+01
             -0.833011849585344E+01
             -0.616700172731200E+00
             -0.643667666006058E+01
             -0.137126605291394E+02
              0.346143527893616E-02
             -0.197862645102379E+01
              0.530542092976395E+01
              0.596796763648167E+01
              0.814579460701169E+01
             -0.531144072463336E+01
              0.817469386358563E+01
              0.205571099152215E+01
             -0.300862126370921E+01
              0.112068829189765E+01
             -0.263451170875952E+01
             -0.158905246441213E+01
              0.470112554027787E+01
             -0.390141133075119E+01
              0.104720286270376E+02
             -0.281649505274316E+01
             -0.574154059923627E+01
              0.109440828942449E+02
             -0.592378159237049E+01
             -0.492295461609459E+00
              0.615369369149889E+00
              0.323602526242260E+01
             -0.467456900379457E+01
             -0.355747980492441E+01
              0.563668334301158E+01
             -0.843013736814189E+01
              0.698921704889768E+01
              0.103104306516689E+01
              0.500281081058875E+01
              0.729342960228871E+01
              0.183578182461519E+01
             -0.100607828277365E+02
             -0.436668506283697E+01
             -0.722423695504197E+01
             -0.435806303199959E+01
             -0.114473707370579E+01
              0.154809859530433E+01
             -0.344770034191836E+01
             -0.668864319097082E-01
             -0.101982298822764E+02
              0.587002981981048E+00
             -0.654388908861465E+01
              0.637426692818899E+01
             -0.379748774053812E+01
             -0.852333023125351E+00
              0.477338475969238E+01
              0.910814551721677E+00
              0.447255291263853E+01
             -0.845038115057307E+01
              0.146056326355888E+01
              0.568407312532882E+00
              0.362873366666702E+01
              0.584159480415518E+01
             -0.109168163485497E+01
             -0.668783240841494E+01
             -0.375424870418522E+01
             -0.275136274089334E+01
             -0.852921969521304E+00
              0.622597179652001E+01
              0.401695733835064E+01
             -0.411241419307575E+01
             -0.382525991101823E+01
              0.279690084802350E+01
              0.305357350653307E+01
             -0.824710681942466E+01
              0.195952845837211E+01
              0.599380869739747E+01
             -0.240552621762699E+00
              0.739117802662856E+01
              0.348404646427488E+01
              0.590668218061680E+01
              0.893030170605797E+01
              0.141724303767504E+01
             -0.122368484051107E+02
              0.169091677210587E+01
              0.132025754789917E+02
              0.959726247186665E+01
             -0.661595872238132E+01
              0.586365938163545E+00
              0.858832570659237E+01
              0.750744645727935E+01
              0.330445347785243E+01
             -0.197687333805883E+01
              0.328846571904245E+01
              0.680794622340231E+01
             -0.314100816224769E+01
             -0.200937730895459E+01
              0.461052052934584E+01
             -0.296181156857461E+00
              0.408050734522001E+01
             -0.133981883535826E+01
              0.861290477018426E+01
             -0.334717490899636E+01
              0.198802253307464E+01
             -0.369561199362818E+01
              0.428141062298327E+01
             -0.596993769922747E+00
              0.636382876667307E+01
              0.489214626618050E+00
              0.280357695210365E+01
             -0.401579207126698E+01
             -0.284201722425336E+01
             -0.142567145921237E+01
             -0.129742896064718E+01
              0.686522335927806E+01
              0.335576851995874E+01
              0.840070174285111E+01
              0.776779297563667E+01
              0.217069708794395E+01
              0.430508635629020E+00
              0.828188077183085E+01
              0.464206528037020E+01
             -0.699192997502678E-01
              0.800545304907790E+01
             -0.660446603981789E+01
              0.229781783427409E+01
             -0.426236481165672E+01
             -0.120152904400777E+01
              0.111509215864429E+02
             -0.157050639847297E+01
             -0.422214842343280E+00
             -0.123800084794492E+01
              0.914154462693175E+01
             -0.197645221600636E+01
             -0.167023656898159E+00
              0.184835288407232E+02
             -0.549682719896617E+01
             -0.679978582715608E+01
             -0.681100693856970E+01
             -0.437732199852681E+01
              0.392797949033011E+01
             -0.179004529926327E+01
              0.999902257495698E+00
             -0.487854061283485E+00
              0.228513729434400E+01
              0.377467277349905E+01
              0.441173294170484E+01
              0.626056764466881E+01
              0.404413673173853E+01
              0.412260529185336E+01
             -0.758152532916464E+01
             -0.784591854145457E+01
             -0.175696714918454E+01
             -0.702126767401754E+01
              0.111351527491376E+02
              0.941822454482004E+01
              0.442428133592931E+01
              0.122297798307938E+02
             -0.616647191666106E+01
             -0.260148063003252E+01
             -0.374701950682556E+01
              0.105361691634828E+02
 
 BEEF-vdW xc energy contributions
            1 :    -95.38750311135283     
            2 :     87.49105273765359     
            3 :    -73.99690390124186     
            4 :     58.41743726212061     
            5 :    -44.04282569863256     
            6 :     32.95208362833421     
            7 :    -25.74247419157203     
            8 :     21.77011495203550     
            9 :    -19.63896648302821     
           10 :     17.81807242974882     
           11 :    -15.25774195097853     
           12 :     11.75264911730510     
           13 :    -7.851714378306610     
           14 :     4.396760134760228     
           15 :    -2.011163010602957     
           16 :    0.8266210678481514     
           17 :   -0.5154595388310383     
           18 :    0.5217930952115353     
           19 :   -0.3478268988488082     
           20 :   -0.2244329986987452     
           21 :     1.069074467844075     
           22 :    -1.842246192985186     
           23 :     2.223509877769672     
           24 :    -2.119958816345829     
           25 :     1.710501050758893     
           26 :    -1.322832139164433     
           27 :     1.237714513844779     
           28 :    -1.537780042716861     
           29 :     2.073020730039886     
           30 :    -2.549152036577198     
           31 :    -7.815895550215444     
           32 :    -5.570953522592333     

     Writing all to output data dir ./PbI2.save/
 
     init_run     :      0.58s CPU      0.70s WALL (       1 calls)
     electrons    :      0.76s CPU      1.94s WALL (       1 calls)
     forces       :      0.06s CPU      0.07s WALL (       1 calls)
     stress       :      0.15s CPU      0.16s WALL (       1 calls)

     Called by init_run:
     wfcinit      :      0.12s CPU      0.19s WALL (       1 calls)
     potinit      :      0.32s CPU      0.36s WALL (       1 calls)
     hinit0       :      0.11s CPU      0.12s WALL (       1 calls)

     Called by electrons:
     c_bands      :      0.41s CPU      1.53s WALL (       2 calls)
     sum_band     :      0.05s CPU      0.05s WALL (       2 calls)
     v_of_rho     :      0.30s CPU      0.32s WALL (       2 calls)
     v_h          :      0.00s CPU      0.00s WALL (       2 calls)
     v_xc         :      1.21s CPU      1.30s WALL (      38 calls)
     newd         :      0.01s CPU      0.01s WALL (       2 calls)
     PAW_pot      :      0.08s CPU      0.10s WALL (       2 calls)
     mix_rho      :      0.00s CPU      0.00s WALL (       2 calls)
     vdW_kernel   :      0.25s CPU      0.25s WALL (       1 calls)

     Called by c_bands:
     init_us_2    :      0.00s CPU      0.00s WALL (      36 calls)
     init_us_2:cp :      0.00s CPU      0.00s WALL (      36 calls)
     cegterg      :      0.28s CPU      0.28s WALL (      12 calls)

     Called by sum_band:
     sum_band:wei :      0.00s CPU      0.00s WALL (       2 calls)
     sum_band:loo :      0.03s CPU      0.03s WALL (       2 calls)
     sum_band:buf :      0.00s CPU      0.00s WALL (      12 calls)
     sum_band:ini :      0.00s CPU      0.00s WALL (      12 calls)
     sum_band:cal :      0.00s CPU      0.00s WALL (      12 calls)
     sum_band:bec :      0.00s CPU      0.00s WALL (      12 calls)
     addusdens    :      0.01s CPU      0.01s WALL (       2 calls)
     addusd:skk   :      0.00s CPU      0.00s WALL (       2 calls)
     addusd:dgemm :      0.00s CPU      0.00s WALL (       2 calls)
     addusd:qvan2 :      0.00s CPU      0.00s WALL (       2 calls)

     Called by *egterg:
     cdiaghg      :      0.07s CPU      0.07s WALL (      65 calls)
     cegterg:over :      0.02s CPU      0.02s WALL (      65 calls)
     cegterg:upda :      0.01s CPU      0.01s WALL (      65 calls)
     cegterg:last :      0.00s CPU      0.00s WALL (      13 calls)
     h_psi        :      0.16s CPU      0.17s WALL (      77 calls)
     s_psi        :      0.00s CPU      0.00s WALL (      77 calls)
     g_psi        :      0.00s CPU      0.00s WALL (      65 calls)

     Called by h_psi:
     h_psi:calbec :      0.01s CPU      0.01s WALL (      77 calls)
     vloc_psi     :      0.15s CPU      0.15s WALL (      77 calls)
     add_vuspsi   :      0.00s CPU      0.00s WALL (      77 calls)

     General routines
     calbec       :      0.02s CPU      0.02s WALL (     119 calls)
     fft          :      0.50s CPU      0.52s WALL (    2232 calls)
     ffts         :      0.00s CPU      0.00s WALL (       4 calls)
     fftw         :      0.16s CPU      0.17s WALL (    1716 calls)
     interpolate  :      0.00s CPU      0.00s WALL (       2 calls)
 
     Parallel routines

     PAW routines
     PAW_pot      :      0.08s CPU      0.10s WALL (       2 calls)
     PAW_symme    :      0.00s CPU      0.00s WALL (       3 calls)
 
     PWSCF        :      2.80s CPU      6.02s WALL

 
   This run was terminated on:  16:51:47  20Feb2024            

=------------------------------------------------------------------------------=
   JOB DONE.
=------------------------------------------------------------------------------=
