
     Program PWSCF v.7.1 starts on 13Nov2023 at 22:51:28 

     This program is part of the open-source Quantum ESPRESSO suite
     for quantum simulation of materials; please cite
         "P. Giannozzi et al., J. Phys.:Condens. Matter 21 395502 (2009);
         "P. Giannozzi et al., J. Phys.:Condens. Matter 29 465901 (2017);
         "P. Giannozzi et al., J. Chem. Phys. 152 154105 (2020);
          URL http://www.quantum-espresso.org", 
     in publications or presentations arising from this work. More details at
     http://www.quantum-espresso.org/quote

     Parallel version (MPI & OpenMP), running on     256 processor cores
     Number of MPI processes:               256
     Threads/MPI process:                     1

     MPI processes distributed on     2 nodes
     1780871 MiB available memory on the printing compute node when the environment starts
 
     Reading input from espresso.pwi
Warning: card &CELL ignored
Warning: card    CELL_DYNAMICS    = 'BFGS' ignored
Warning: card / ignored

     Current dimensions of program PWSCF are:
     Max number of different atomic species (ntypx) = 10
     Max number of k-points (npk) =  40000
     Max angular momentum in pseudopotentials (lmaxx) =  4
     file Ga.pbe-dn-kjpaw_psl.1.0.0.UPF: wavefunction(s)  4S renormalized
     file N.pbe-n-kjpaw_psl.1.0.0.UPF: wavefunction(s)  2S renormalized

     **************************************************************************
     Initializing libbeef V0.1.2 with the BEEF-vdW functional.
     Citation: Wellendorff et al., PRB 85, 235149 (2012).
     **************************************************************************


     IMPORTANT: XC functional enforced from input :
     Exchange-correlation= BEEF-VDW
                           (   1   4  43  14   2   0   0)
     Any further DFT definition will be discarded
     Please, verify this is what you really want

 
     K-points division:     npool     =       4
     R & G space division:  proc/nbgrp/npool/nimage =      64
     Subspace diagonalization in iterative solution of the eigenvalue problem:
     a serial algorithm will be used

 
     Parallelization info
     --------------------
     sticks:   dense  smooth     PW     G-vecs:    dense   smooth      PW
     Min         354     283     73                42160    30167    3987
     Max         356     285     74                42163    30170    3996
     Sum       22693   18145   4705              2698283  1930731  255309
 
     Using Slab Decomposition
 


     bravais-lattice index     =            4
     lattice parameter (alat)  =      30.6565  a.u.
     unit-cell volume          =   24400.9461 (a.u.)^3
     number of atoms/cell      =          300
     number of atomic types    =            2
     number of electrons       =      2708.00
     number of Kohn-Sham states=         1625
     kinetic-energy cutoff     =      70.0000  Ry
     charge density cutoff     =     350.0000  Ry
     scf convergence threshold =      1.0E-09
     mixing beta               =       0.7000
     number of iterations used =            8  plain     mixing
     energy convergence thresh.=      1.0E-04
     force convergence thresh. =      1.0E-03
     Exchange-correlation= BEEF-VDW
                           (   1   4  43  14   2   0   0)
     nstep                     =           50


     celldm(1)=  30.656540  celldm(2)=   0.000000  celldm(3)=   0.977927
     celldm(4)=   0.000000  celldm(5)=   0.000000  celldm(6)=   0.000000

     crystal axes: (cart. coord. in units of alat)
               a(1) = (   1.000000   0.000000   0.000000 )  
               a(2) = (  -0.500000   0.866025   0.000000 )  
               a(3) = (   0.000000   0.000000   0.977927 )  

     reciprocal axes: (cart. coord. in units 2 pi/alat)
               b(1) = (  1.000000  0.577350 -0.000000 )  
               b(2) = (  0.000000  1.154701  0.000000 )  
               b(3) = (  0.000000 -0.000000  1.022571 )  


     PseudoPot. # 1 for Ga read from file:
     /trace/group/acmegroup/atimmins/packages/espresso/pseudo/psl_1.0.0/pslibrary.1.0.0/pbe/PSEUDOPOTENTIALS/Ga.pbe-dn-kjpaw_psl.1.0.0.UPF
     MD5 check sum: cd2a01e492f15b435d17032472d8505c
     Pseudo is Projector augmented-wave + core cor, Zval = 13.0
     Generated using 'atomic' code by A. Dal Corso  v.7.1
     Shape of augmentation charge: PSQ
     Using radial grid of 1205 points,  6 beta functions with: 
                l(1) =   0
                l(2) =   0
                l(3) =   1
                l(4) =   1
                l(5) =   2
                l(6) =   2
     Q(r) pseudized with 0 coefficients 


     PseudoPot. # 2 for N  read from file:
     /trace/group/acmegroup/atimmins/packages/espresso/pseudo/psl_1.0.0/pslibrary.1.0.0/pbe/PSEUDOPOTENTIALS/N.pbe-n-kjpaw_psl.1.0.0.UPF
     MD5 check sum: f77f775694dac7e2c3fe1c82443d1a16
     Pseudo is Projector augmented-wave + core cor, Zval =  5.0
     Generated using 'atomic' code by A. Dal Corso  v.7.1
     Shape of augmentation charge: PSQ
     Using radial grid of 1085 points,  4 beta functions with: 
                l(1) =   0
                l(2) =   0
                l(3) =   1
                l(4) =   1
     Q(r) pseudized with 0 coefficients 


     atomic species   valence    mass     pseudopotential
        Ga            13.00    69.72300     Ga( 1.00)
        N              5.00    14.00700     N ( 1.00)

      2 Sym. Ops. (no inversion) found


                                    s                        frac. trans.

      isym =  1     identity                                     

 cryst.   s( 1) = (     1          0          0      )
                  (     0          1          0      )
                  (     0          0          1      )

 cart.    s( 1) = (  1.0000000  0.0000000  0.0000000 )
                  (  0.0000000  1.0000000  0.0000000 )
                  (  0.0000000  0.0000000  1.0000000 )


      isym =  2     inv. 180 deg rotation - cryst. axis [0,1,0]  

 cryst.   s( 2) = (     1          1          0      )
                  (     0         -1          0      )
                  (     0          0          1      )

 cart.    s( 2) = (  0.5000000  0.8660254  0.0000000 )
                  (  0.8660254 -0.5000000  0.0000000 )
                  (  0.0000000  0.0000000  1.0000000 )


     point group C_s (m)    
     there are  2 classes
     the character table:

       E     s    
A'     1.00  1.00
A''    1.00 -1.00

     the symmetry operations in each class and the name of the first element:

     E        1
          identity                                               
     s        2
          inv. 180 deg rotation - cryst. axis [0,1,0]            

   Cartesian axes

     site n.     atom                  positions (alat units)
         1           Ga  tau(   1) = (   0.1000001   0.0577350   0.1627148  )
         2           Ga  tau(   2) = (   0.1000001   0.0577350   0.4886906  )
         3           Ga  tau(   3) = (   0.1000001   0.0577350   0.8146665  )
         4           Ga  tau(   4) = (   0.0000001   0.2309401   0.1627148  )
         5           Ga  tau(   5) = (   0.0000001   0.2309401   0.4886906  )
         6           Ga  tau(   6) = (   0.0000001   0.2309401   0.8146665  )
         7           Ga  tau(   7) = (  -0.0999999   0.4041451   0.1627148  )
         8           Ga  tau(   8) = (  -0.0999999   0.4041451   0.4886906  )
         9           Ga  tau(   9) = (  -0.0999999   0.4041451   0.8146665  )
        10           Ga  tau(  10) = (  -0.1999999   0.5773502   0.1627148  )
        11           Ga  tau(  11) = (  -0.1999999   0.5773502   0.4886906  )
        12           Ga  tau(  12) = (  -0.1999999   0.5773502   0.8146665  )
        13           Ga  tau(  13) = (  -0.2999999   0.7505553   0.1627148  )
        14           Ga  tau(  14) = (  -0.2999999   0.7505553   0.4886906  )
        15           Ga  tau(  15) = (  -0.2999999   0.7505553   0.8146665  )
        16           Ga  tau(  16) = (   0.3000001   0.0577350   0.1627148  )
        17           Ga  tau(  17) = (   0.3000001   0.0577350   0.4886906  )
        18           Ga  tau(  18) = (   0.3000001   0.0577350   0.8146665  )
        19           Ga  tau(  19) = (   0.2000001   0.2309401   0.1627148  )
        20           Ga  tau(  20) = (   0.2000001   0.2309401   0.4886906  )
        21           Ga  tau(  21) = (   0.2000001   0.2309401   0.8146665  )
        22           Ga  tau(  22) = (   0.1000001   0.4041451   0.1627148  )
        23           Ga  tau(  23) = (   0.1000001   0.4041451   0.4886906  )
        24           Ga  tau(  24) = (   0.1000001   0.4041451   0.8146665  )
        25           Ga  tau(  25) = (   0.0000001   0.5773502   0.1627148  )
        26           Ga  tau(  26) = (   0.0000001   0.5773502   0.4886906  )
        27           Ga  tau(  27) = (   0.0000001   0.5773502   0.8146665  )
        28           Ga  tau(  28) = (  -0.0999999   0.7505553   0.1627148  )
        29           Ga  tau(  29) = (  -0.0999999   0.7505553   0.4886906  )
        30           Ga  tau(  30) = (  -0.0999999   0.7505553   0.8146665  )
        31           Ga  tau(  31) = (   0.5000001   0.0577350   0.1627148  )
        32           Ga  tau(  32) = (   0.5000001   0.0577350   0.4886906  )
        33           Ga  tau(  33) = (   0.5000001   0.0577350   0.8146665  )
        34           Ga  tau(  34) = (   0.4000001   0.2309401   0.1627148  )
        35           Ga  tau(  35) = (   0.4000001   0.2309401   0.4886906  )
        36           Ga  tau(  36) = (   0.4000001   0.2309401   0.8146665  )
        37           Ga  tau(  37) = (   0.3000001   0.4041451   0.1627148  )
        38           Ga  tau(  38) = (   0.3000001   0.4041451   0.4886906  )
        39           Ga  tau(  39) = (   0.3000001   0.4041451   0.8146665  )
        40           Ga  tau(  40) = (   0.2000001   0.5773502   0.1627148  )
        41           Ga  tau(  41) = (   0.2000001   0.5773502   0.4886906  )
        42           Ga  tau(  42) = (   0.2000001   0.5773502   0.8146665  )
        43           Ga  tau(  43) = (   0.1000001   0.7505553   0.1627148  )
        44           Ga  tau(  44) = (   0.1000001   0.7505553   0.4886906  )
        45           Ga  tau(  45) = (   0.1000001   0.7505553   0.8146665  )
        46           Ga  tau(  46) = (   0.7000001   0.0577350   0.1627148  )
        47           Ga  tau(  47) = (   0.7000001   0.0577350   0.4886906  )
        48           Ga  tau(  48) = (   0.7000001   0.0577350   0.8146665  )
        49           Ga  tau(  49) = (   0.6000001   0.2309401   0.1627148  )
        50           Ga  tau(  50) = (   0.6000001   0.2309401   0.4886906  )
        51           Ga  tau(  51) = (   0.6000001   0.2309401   0.8146665  )
        52           Ga  tau(  52) = (   0.5000001   0.4041451   0.1627148  )
        53           Ga  tau(  53) = (   0.5000001   0.4041451   0.4886906  )
        54           Ga  tau(  54) = (   0.5000001   0.4041451   0.8146665  )
        55           Ga  tau(  55) = (   0.4000001   0.5773502   0.1627148  )
        56           Ga  tau(  56) = (   0.4000001   0.5773502   0.4886906  )
        57           Ga  tau(  57) = (   0.4000001   0.5773502   0.8146665  )
        58           Ga  tau(  58) = (   0.3000001   0.7505553   0.1627148  )
        59           Ga  tau(  59) = (   0.3000001   0.7505553   0.4886906  )
        60           Ga  tau(  60) = (   0.3000001   0.7505553   0.8146665  )
        61           Ga  tau(  61) = (   0.9000001   0.0577350   0.1627148  )
        62           Ga  tau(  62) = (   0.9000001   0.0577350   0.4886906  )
        63           Ga  tau(  63) = (   0.9000001   0.0577350   0.8146665  )
        64           Ga  tau(  64) = (   0.8000001   0.2309401   0.1627148  )
        65           Ga  tau(  65) = (   0.8000001   0.2309401   0.4886906  )
        66           Ga  tau(  66) = (   0.8000001   0.2309401   0.8146665  )
        67           Ga  tau(  67) = (   0.7000001   0.4041451   0.1627148  )
        68           Ga  tau(  68) = (   0.7000001   0.4041451   0.4886906  )
        69           Ga  tau(  69) = (   0.7000001   0.4041451   0.8146665  )
        70           Ga  tau(  70) = (   0.6000001   0.5773502   0.1627148  )
        71           Ga  tau(  71) = (   0.6000001   0.5773502   0.4886906  )
        72           Ga  tau(  72) = (   0.6000001   0.5773502   0.8146665  )
        73           Ga  tau(  73) = (   0.5000001   0.7505553   0.1627148  )
        74           Ga  tau(  74) = (   0.5000001   0.7505553   0.4886906  )
        75           Ga  tau(  75) = (   0.5000001   0.7505553   0.8146665  )
        76           Ga  tau(  76) = (  -0.0000001   0.1154701   0.3257027  )
        77           Ga  tau(  77) = (  -0.0000001   0.1154701   0.6516786  )
        78           Ga  tau(  78) = (  -0.0000001   0.1154701   0.9776544  )
        79           Ga  tau(  79) = (  -0.1000001   0.2886752   0.3257027  )
        80           Ga  tau(  80) = (  -0.1000001   0.2886752   0.6516786  )
        81           Ga  tau(  81) = (  -0.1000001   0.2886752   0.9776544  )
        82           Ga  tau(  82) = (  -0.2000001   0.4618803   0.3257027  )
        83           Ga  tau(  83) = (  -0.2000001   0.4618803   0.6516786  )
        84           Ga  tau(  84) = (  -0.2000001   0.4618803   0.9776544  )
        85           Ga  tau(  85) = (  -0.3000001   0.6350854   0.3257027  )
        86           Ga  tau(  86) = (  -0.3000001   0.6350854   0.6516786  )
        87           Ga  tau(  87) = (  -0.3000001   0.6350854   0.9776544  )
        88           Ga  tau(  88) = (  -0.4000001   0.8082905   0.3257027  )
        89           Ga  tau(  89) = (  -0.4000001   0.8082905   0.6516786  )
        90           Ga  tau(  90) = (  -0.4000001   0.8082905   0.9776544  )
        91           Ga  tau(  91) = (   0.1999999   0.1154701   0.3257027  )
        92           Ga  tau(  92) = (   0.1999999   0.1154701   0.6516786  )
        93           Ga  tau(  93) = (   0.1999999   0.1154701   0.9776544  )
        94           Ga  tau(  94) = (   0.0999999   0.2886752   0.3257027  )
        95           Ga  tau(  95) = (   0.0999999   0.2886752   0.6516786  )
        96           Ga  tau(  96) = (   0.0999999   0.2886752   0.9776544  )
        97           Ga  tau(  97) = (  -0.0000001   0.4618803   0.3257027  )
        98           Ga  tau(  98) = (  -0.0000001   0.4618803   0.6516786  )
        99           Ga  tau(  99) = (  -0.0000001   0.4618803   0.9776544  )
       100           Ga  tau( 100) = (  -0.1000001   0.6350854   0.3257027  )
       101           Ga  tau( 101) = (  -0.1000001   0.6350854   0.6516786  )
       102           Ga  tau( 102) = (  -0.1000001   0.6350854   0.9776544  )
       103           Ga  tau( 103) = (  -0.2000001   0.8082905   0.3257027  )
       104           Ga  tau( 104) = (  -0.2000001   0.8082905   0.6516786  )
       105           Ga  tau( 105) = (  -0.2000001   0.8082905   0.9776544  )
       106           Ga  tau( 106) = (   0.3999999   0.1154701   0.3257027  )
       107           Ga  tau( 107) = (   0.3999999   0.1154701   0.6516786  )
       108           Ga  tau( 108) = (   0.3999999   0.1154701   0.9776544  )
       109           Ga  tau( 109) = (   0.2999999   0.2886752   0.3257027  )
       110           Ga  tau( 110) = (   0.2999999   0.2886752   0.6516786  )
       111           Ga  tau( 111) = (   0.2999999   0.2886752   0.9776544  )
       112           Ga  tau( 112) = (   0.1999999   0.4618803   0.3257027  )
       113           Ga  tau( 113) = (   0.1999999   0.4618803   0.6516786  )
       114           Ga  tau( 114) = (   0.1999999   0.4618803   0.9776544  )
       115           Ga  tau( 115) = (   0.0999999   0.6350854   0.3257027  )
       116           Ga  tau( 116) = (   0.0999999   0.6350854   0.6516786  )
       117           Ga  tau( 117) = (   0.0999999   0.6350854   0.9776544  )
       118           Ga  tau( 118) = (  -0.0000001   0.8082905   0.3257027  )
       119           Ga  tau( 119) = (  -0.0000001   0.8082905   0.6516786  )
       120           Ga  tau( 120) = (  -0.0000001   0.8082905   0.9776544  )
       121           Ga  tau( 121) = (   0.5999999   0.1154701   0.3257027  )
       122           Ga  tau( 122) = (   0.5999999   0.1154701   0.6516786  )
       123           Ga  tau( 123) = (   0.5999999   0.1154701   0.9776544  )
       124           Ga  tau( 124) = (   0.4999999   0.2886752   0.3257027  )
       125           Ga  tau( 125) = (   0.4999999   0.2886752   0.6516786  )
       126           Ga  tau( 126) = (   0.4999999   0.2886752   0.9776544  )
       127           Ga  tau( 127) = (   0.3999999   0.4618803   0.3257027  )
       128           Ga  tau( 128) = (   0.3999999   0.4618803   0.6516786  )
       129           Ga  tau( 129) = (   0.3999999   0.4618803   0.9776544  )
       130           Ga  tau( 130) = (   0.2999999   0.6350854   0.3257027  )
       131           Ga  tau( 131) = (   0.2999999   0.6350854   0.6516786  )
       132           Ga  tau( 132) = (   0.2999999   0.6350854   0.9776544  )
       133           Ga  tau( 133) = (   0.1999999   0.8082905   0.3257027  )
       134           Ga  tau( 134) = (   0.1999999   0.8082905   0.6516786  )
       135           Ga  tau( 135) = (   0.1999999   0.8082905   0.9776544  )
       136           Ga  tau( 136) = (   0.7999999   0.1154701   0.3257027  )
       137           Ga  tau( 137) = (   0.7999999   0.1154701   0.6516786  )
       138           Ga  tau( 138) = (   0.7999999   0.1154701   0.9776544  )
       139           Ga  tau( 139) = (   0.6999999   0.2886752   0.3257027  )
       140           Ga  tau( 140) = (   0.6999999   0.2886752   0.6516786  )
       141           Ga  tau( 141) = (   0.6999999   0.2886752   0.9776544  )
       142           Ga  tau( 142) = (   0.5999999   0.4618803   0.3257027  )
       143           Ga  tau( 143) = (   0.5999999   0.4618803   0.6516786  )
       144           Ga  tau( 144) = (   0.5999999   0.4618803   0.9776544  )
       145           Ga  tau( 145) = (   0.4999999   0.6350854   0.3257027  )
       146           Ga  tau( 146) = (   0.4999999   0.6350854   0.6516786  )
       147           Ga  tau( 147) = (   0.4999999   0.6350854   0.9776544  )
       148           Ga  tau( 148) = (   0.3999999   0.8082905   0.3257027  )
       149           Ga  tau( 149) = (   0.3999999   0.8082905   0.6516786  )
       150           Ga  tau( 150) = (   0.3999999   0.8082905   0.9776544  )
       151           N   tau( 151) = (   0.1000001   0.0577350   0.6114777  )
       152           N   tau( 152) = (   0.1000001   0.0577350   0.9374535  )
       153           N   tau( 153) = (   0.0000001   0.2309401   0.2855019  )
       154           N   tau( 154) = (   0.0000001   0.2309401   0.6114777  )
       155           N   tau( 155) = (   0.0000001   0.2309401   0.9374535  )
       156           N   tau( 156) = (  -0.0999999   0.4041451   0.2855019  )
       157           N   tau( 157) = (  -0.0999999   0.4041451   0.6114777  )
       158           N   tau( 158) = (  -0.0999999   0.4041451   0.9374535  )
       159           N   tau( 159) = (  -0.1999999   0.5773502   0.2855019  )
       160           N   tau( 160) = (  -0.1999999   0.5773502   0.6114777  )
       161           N   tau( 161) = (  -0.1999999   0.5773502   0.9374535  )
       162           N   tau( 162) = (  -0.2999999   0.7505553   0.2855019  )
       163           N   tau( 163) = (  -0.2999999   0.7505553   0.6114777  )
       164           N   tau( 164) = (  -0.2999999   0.7505553   0.9374535  )
       165           N   tau( 165) = (   0.3000001   0.0577350   0.2855019  )
       166           N   tau( 166) = (   0.3000001   0.0577350   0.6114777  )
       167           N   tau( 167) = (   0.3000001   0.0577350   0.9374535  )
       168           N   tau( 168) = (   0.2000001   0.2309401   0.2855019  )
       169           N   tau( 169) = (   0.2000001   0.2309401   0.6114777  )
       170           N   tau( 170) = (   0.2000001   0.2309401   0.9374535  )
       171           N   tau( 171) = (   0.1000001   0.4041451   0.2855019  )
       172           N   tau( 172) = (   0.1000001   0.4041451   0.6114777  )
       173           N   tau( 173) = (   0.1000001   0.4041451   0.9374535  )
       174           N   tau( 174) = (   0.0000001   0.5773502   0.2855019  )
       175           N   tau( 175) = (   0.0000001   0.5773502   0.6114777  )
       176           N   tau( 176) = (   0.0000001   0.5773502   0.9374535  )
       177           N   tau( 177) = (  -0.0999999   0.7505553   0.2855019  )
       178           N   tau( 178) = (  -0.0999999   0.7505553   0.6114777  )
       179           N   tau( 179) = (  -0.0999999   0.7505553   0.9374535  )
       180           N   tau( 180) = (   0.5000001   0.0577350   0.2855019  )
       181           N   tau( 181) = (   0.5000001   0.0577350   0.6114777  )
       182           N   tau( 182) = (   0.5000001   0.0577350   0.9374535  )
       183           N   tau( 183) = (   0.4000001   0.2309401   0.2855019  )
       184           N   tau( 184) = (   0.4000001   0.2309401   0.6114777  )
       185           N   tau( 185) = (   0.4000001   0.2309401   0.9374535  )
       186           N   tau( 186) = (   0.3000001   0.4041451   0.2855019  )
       187           N   tau( 187) = (   0.3000001   0.4041451   0.6114777  )
       188           N   tau( 188) = (   0.3000001   0.4041451   0.9374535  )
       189           N   tau( 189) = (   0.2000001   0.5773502   0.2855019  )
       190           N   tau( 190) = (   0.2000001   0.5773502   0.6114777  )
       191           N   tau( 191) = (   0.2000001   0.5773502   0.9374535  )
       192           N   tau( 192) = (   0.1000001   0.7505553   0.2855019  )
       193           N   tau( 193) = (   0.1000001   0.7505553   0.6114777  )
       194           N   tau( 194) = (   0.1000001   0.7505553   0.9374535  )
       195           N   tau( 195) = (   0.7000001   0.0577350   0.2855019  )
       196           N   tau( 196) = (   0.7000001   0.0577350   0.6114777  )
       197           N   tau( 197) = (   0.7000001   0.0577350   0.9374535  )
       198           N   tau( 198) = (   0.6000001   0.2309401   0.2855019  )
       199           N   tau( 199) = (   0.6000001   0.2309401   0.6114777  )
       200           N   tau( 200) = (   0.6000001   0.2309401   0.9374535  )
       201           N   tau( 201) = (   0.5000001   0.4041451   0.2855019  )
       202           N   tau( 202) = (   0.5000001   0.4041451   0.6114777  )
       203           N   tau( 203) = (   0.5000001   0.4041451   0.9374535  )
       204           N   tau( 204) = (   0.4000001   0.5773502   0.2855019  )
       205           N   tau( 205) = (   0.4000001   0.5773502   0.6114777  )
       206           N   tau( 206) = (   0.4000001   0.5773502   0.9374535  )
       207           N   tau( 207) = (   0.3000001   0.7505553   0.2855019  )
       208           N   tau( 208) = (   0.3000001   0.7505553   0.6114777  )
       209           N   tau( 209) = (   0.3000001   0.7505553   0.9374535  )
       210           N   tau( 210) = (   0.9000001   0.0577350   0.2855019  )
       211           N   tau( 211) = (   0.9000001   0.0577350   0.6114777  )
       212           N   tau( 212) = (   0.9000001   0.0577350   0.9374535  )
       213           N   tau( 213) = (   0.8000001   0.2309401   0.2855019  )
       214           N   tau( 214) = (   0.8000001   0.2309401   0.6114777  )
       215           N   tau( 215) = (   0.8000001   0.2309401   0.9374535  )
       216           N   tau( 216) = (   0.7000001   0.4041451   0.2855019  )
       217           N   tau( 217) = (   0.7000001   0.4041451   0.6114777  )
       218           N   tau( 218) = (   0.7000001   0.4041451   0.9374535  )
       219           N   tau( 219) = (   0.6000001   0.5773502   0.2855019  )
       220           N   tau( 220) = (   0.6000001   0.5773502   0.6114777  )
       221           N   tau( 221) = (   0.6000001   0.5773502   0.9374535  )
       222           N   tau( 222) = (   0.5000001   0.7505553   0.2855019  )
       223           N   tau( 223) = (   0.5000001   0.7505553   0.6114777  )
       224           N   tau( 224) = (   0.5000001   0.7505553   0.9374535  )
       225           N   tau( 225) = (  -0.0000001   0.1154701   0.1225140  )
       226           N   tau( 226) = (  -0.0000001   0.1154701   0.4484898  )
       227           N   tau( 227) = (  -0.0000001   0.1154701   0.7744656  )
       228           N   tau( 228) = (  -0.1000001   0.2886752   0.1225140  )
       229           N   tau( 229) = (  -0.1000001   0.2886752   0.4484898  )
       230           N   tau( 230) = (  -0.1000001   0.2886752   0.7744656  )
       231           N   tau( 231) = (  -0.2000001   0.4618803   0.1225140  )
       232           N   tau( 232) = (  -0.2000001   0.4618803   0.4484898  )
       233           N   tau( 233) = (  -0.2000001   0.4618803   0.7744656  )
       234           N   tau( 234) = (  -0.3000001   0.6350854   0.1225140  )
       235           N   tau( 235) = (  -0.3000001   0.6350854   0.4484898  )
       236           N   tau( 236) = (  -0.3000001   0.6350854   0.7744656  )
       237           N   tau( 237) = (  -0.4000001   0.8082905   0.1225140  )
       238           N   tau( 238) = (  -0.4000001   0.8082905   0.4484898  )
       239           N   tau( 239) = (  -0.4000001   0.8082905   0.7744656  )
       240           N   tau( 240) = (   0.1999999   0.1154701   0.1225140  )
       241           N   tau( 241) = (   0.1999999   0.1154701   0.4484898  )
       242           N   tau( 242) = (   0.1999999   0.1154701   0.7744656  )
       243           N   tau( 243) = (   0.0999999   0.2886752   0.1225140  )
       244           N   tau( 244) = (   0.0999999   0.2886752   0.4484898  )
       245           N   tau( 245) = (   0.0999999   0.2886752   0.7744656  )
       246           N   tau( 246) = (  -0.0000001   0.4618803   0.1225140  )
       247           N   tau( 247) = (  -0.0000001   0.4618803   0.4484898  )
       248           N   tau( 248) = (  -0.0000001   0.4618803   0.7744656  )
       249           N   tau( 249) = (  -0.1000001   0.6350854   0.1225140  )
       250           N   tau( 250) = (  -0.1000001   0.6350854   0.4484898  )
       251           N   tau( 251) = (  -0.1000001   0.6350854   0.7744656  )
       252           N   tau( 252) = (  -0.2000001   0.8082905   0.1225140  )
       253           N   tau( 253) = (  -0.2000001   0.8082905   0.4484898  )
       254           N   tau( 254) = (  -0.2000001   0.8082905   0.7744656  )
       255           N   tau( 255) = (   0.3999999   0.1154701   0.1225140  )
       256           N   tau( 256) = (   0.3999999   0.1154701   0.4484898  )
       257           N   tau( 257) = (   0.3999999   0.1154701   0.7744656  )
       258           N   tau( 258) = (   0.2999999   0.2886752   0.1225140  )
       259           N   tau( 259) = (   0.2999999   0.2886752   0.4484898  )
       260           N   tau( 260) = (   0.2999999   0.2886752   0.7744656  )
       261           N   tau( 261) = (   0.1999999   0.4618803   0.1225140  )
       262           N   tau( 262) = (   0.1999999   0.4618803   0.4484898  )
       263           N   tau( 263) = (   0.1999999   0.4618803   0.7744656  )
       264           N   tau( 264) = (   0.0999999   0.6350854   0.1225140  )
       265           N   tau( 265) = (   0.0999999   0.6350854   0.4484898  )
       266           N   tau( 266) = (   0.0999999   0.6350854   0.7744656  )
       267           N   tau( 267) = (  -0.0000001   0.8082905   0.1225140  )
       268           N   tau( 268) = (  -0.0000001   0.8082905   0.4484898  )
       269           N   tau( 269) = (  -0.0000001   0.8082905   0.7744656  )
       270           N   tau( 270) = (   0.5999999   0.1154701   0.1225140  )
       271           N   tau( 271) = (   0.5999999   0.1154701   0.4484898  )
       272           N   tau( 272) = (   0.5999999   0.1154701   0.7744656  )
       273           N   tau( 273) = (   0.4999999   0.2886752   0.1225140  )
       274           N   tau( 274) = (   0.4999999   0.2886752   0.4484898  )
       275           N   tau( 275) = (   0.4999999   0.2886752   0.7744656  )
       276           N   tau( 276) = (   0.3999999   0.4618803   0.1225140  )
       277           N   tau( 277) = (   0.3999999   0.4618803   0.4484898  )
       278           N   tau( 278) = (   0.3999999   0.4618803   0.7744656  )
       279           N   tau( 279) = (   0.2999999   0.6350854   0.1225140  )
       280           N   tau( 280) = (   0.2999999   0.6350854   0.4484898  )
       281           N   tau( 281) = (   0.2999999   0.6350854   0.7744656  )
       282           N   tau( 282) = (   0.1999999   0.8082905   0.1225140  )
       283           N   tau( 283) = (   0.1999999   0.8082905   0.4484898  )
       284           N   tau( 284) = (   0.1999999   0.8082905   0.7744656  )
       285           N   tau( 285) = (   0.7999999   0.1154701   0.1225140  )
       286           N   tau( 286) = (   0.7999999   0.1154701   0.4484898  )
       287           N   tau( 287) = (   0.7999999   0.1154701   0.7744656  )
       288           N   tau( 288) = (   0.6999999   0.2886752   0.1225140  )
       289           N   tau( 289) = (   0.6999999   0.2886752   0.4484898  )
       290           N   tau( 290) = (   0.6999999   0.2886752   0.7744656  )
       291           N   tau( 291) = (   0.5999999   0.4618803   0.1225140  )
       292           N   tau( 292) = (   0.5999999   0.4618803   0.4484898  )
       293           N   tau( 293) = (   0.5999999   0.4618803   0.7744656  )
       294           N   tau( 294) = (   0.4999999   0.6350854   0.1225140  )
       295           N   tau( 295) = (   0.4999999   0.6350854   0.4484898  )
       296           N   tau( 296) = (   0.4999999   0.6350854   0.7744656  )
       297           N   tau( 297) = (   0.3999999   0.8082905   0.1225140  )
       298           N   tau( 298) = (   0.3999999   0.8082905   0.4484898  )
       299           N   tau( 299) = (   0.3999999   0.8082905   0.7744656  )
       300           Ga  tau( 300) = (   0.1000001   0.0577350   0.2855019  )

   Crystallographic axes

     site n.     atom                  positions (cryst. coord.)
         1           Ga  tau(   1) = (  0.1333334  0.0666666  0.1663874  )
         2           Ga  tau(   2) = (  0.1333334  0.0666666  0.4997208  )
         3           Ga  tau(   3) = (  0.1333334  0.0666666  0.8330541  )
         4           Ga  tau(   4) = (  0.1333334  0.2666666  0.1663874  )
         5           Ga  tau(   5) = (  0.1333334  0.2666666  0.4997208  )
         6           Ga  tau(   6) = (  0.1333334  0.2666666  0.8330541  )
         7           Ga  tau(   7) = (  0.1333334  0.4666666  0.1663874  )
         8           Ga  tau(   8) = (  0.1333334  0.4666666  0.4997208  )
         9           Ga  tau(   9) = (  0.1333334  0.4666666  0.8330541  )
        10           Ga  tau(  10) = (  0.1333334  0.6666666  0.1663874  )
        11           Ga  tau(  11) = (  0.1333334  0.6666666  0.4997208  )
        12           Ga  tau(  12) = (  0.1333334  0.6666666  0.8330541  )
        13           Ga  tau(  13) = (  0.1333334  0.8666666  0.1663874  )
        14           Ga  tau(  14) = (  0.1333334  0.8666666  0.4997208  )
        15           Ga  tau(  15) = (  0.1333334  0.8666666  0.8330541  )
        16           Ga  tau(  16) = (  0.3333334  0.0666666  0.1663874  )
        17           Ga  tau(  17) = (  0.3333334  0.0666666  0.4997208  )
        18           Ga  tau(  18) = (  0.3333334  0.0666666  0.8330541  )
        19           Ga  tau(  19) = (  0.3333334  0.2666666  0.1663874  )
        20           Ga  tau(  20) = (  0.3333334  0.2666666  0.4997208  )
        21           Ga  tau(  21) = (  0.3333334  0.2666666  0.8330541  )
        22           Ga  tau(  22) = (  0.3333334  0.4666666  0.1663874  )
        23           Ga  tau(  23) = (  0.3333334  0.4666666  0.4997208  )
        24           Ga  tau(  24) = (  0.3333334  0.4666666  0.8330541  )
        25           Ga  tau(  25) = (  0.3333334  0.6666666  0.1663874  )
        26           Ga  tau(  26) = (  0.3333334  0.6666666  0.4997208  )
        27           Ga  tau(  27) = (  0.3333334  0.6666666  0.8330541  )
        28           Ga  tau(  28) = (  0.3333334  0.8666666  0.1663874  )
        29           Ga  tau(  29) = (  0.3333334  0.8666666  0.4997208  )
        30           Ga  tau(  30) = (  0.3333334  0.8666666  0.8330541  )
        31           Ga  tau(  31) = (  0.5333334  0.0666666  0.1663874  )
        32           Ga  tau(  32) = (  0.5333334  0.0666666  0.4997208  )
        33           Ga  tau(  33) = (  0.5333334  0.0666666  0.8330541  )
        34           Ga  tau(  34) = (  0.5333334  0.2666666  0.1663874  )
        35           Ga  tau(  35) = (  0.5333334  0.2666666  0.4997208  )
        36           Ga  tau(  36) = (  0.5333334  0.2666666  0.8330541  )
        37           Ga  tau(  37) = (  0.5333334  0.4666666  0.1663874  )
        38           Ga  tau(  38) = (  0.5333334  0.4666666  0.4997208  )
        39           Ga  tau(  39) = (  0.5333334  0.4666666  0.8330541  )
        40           Ga  tau(  40) = (  0.5333334  0.6666666  0.1663874  )
        41           Ga  tau(  41) = (  0.5333334  0.6666666  0.4997208  )
        42           Ga  tau(  42) = (  0.5333334  0.6666666  0.8330541  )
        43           Ga  tau(  43) = (  0.5333334  0.8666666  0.1663874  )
        44           Ga  tau(  44) = (  0.5333334  0.8666666  0.4997208  )
        45           Ga  tau(  45) = (  0.5333334  0.8666666  0.8330541  )
        46           Ga  tau(  46) = (  0.7333334  0.0666666  0.1663874  )
        47           Ga  tau(  47) = (  0.7333334  0.0666666  0.4997208  )
        48           Ga  tau(  48) = (  0.7333334  0.0666666  0.8330541  )
        49           Ga  tau(  49) = (  0.7333334  0.2666666  0.1663874  )
        50           Ga  tau(  50) = (  0.7333334  0.2666666  0.4997208  )
        51           Ga  tau(  51) = (  0.7333334  0.2666666  0.8330541  )
        52           Ga  tau(  52) = (  0.7333334  0.4666666  0.1663874  )
        53           Ga  tau(  53) = (  0.7333334  0.4666666  0.4997208  )
        54           Ga  tau(  54) = (  0.7333334  0.4666666  0.8330541  )
        55           Ga  tau(  55) = (  0.7333334  0.6666666  0.1663874  )
        56           Ga  tau(  56) = (  0.7333334  0.6666666  0.4997208  )
        57           Ga  tau(  57) = (  0.7333334  0.6666666  0.8330541  )
        58           Ga  tau(  58) = (  0.7333334  0.8666666  0.1663874  )
        59           Ga  tau(  59) = (  0.7333334  0.8666666  0.4997208  )
        60           Ga  tau(  60) = (  0.7333334  0.8666666  0.8330541  )
        61           Ga  tau(  61) = (  0.9333334  0.0666666  0.1663874  )
        62           Ga  tau(  62) = (  0.9333334  0.0666666  0.4997208  )
        63           Ga  tau(  63) = (  0.9333334  0.0666666  0.8330541  )
        64           Ga  tau(  64) = (  0.9333334  0.2666666  0.1663874  )
        65           Ga  tau(  65) = (  0.9333334  0.2666666  0.4997208  )
        66           Ga  tau(  66) = (  0.9333334  0.2666666  0.8330541  )
        67           Ga  tau(  67) = (  0.9333334  0.4666666  0.1663874  )
        68           Ga  tau(  68) = (  0.9333334  0.4666666  0.4997208  )
        69           Ga  tau(  69) = (  0.9333334  0.4666666  0.8330541  )
        70           Ga  tau(  70) = (  0.9333334  0.6666666  0.1663874  )
        71           Ga  tau(  71) = (  0.9333334  0.6666666  0.4997208  )
        72           Ga  tau(  72) = (  0.9333334  0.6666666  0.8330541  )
        73           Ga  tau(  73) = (  0.9333334  0.8666666  0.1663874  )
        74           Ga  tau(  74) = (  0.9333334  0.8666666  0.4997208  )
        75           Ga  tau(  75) = (  0.9333334  0.8666666  0.8330541  )
        76           Ga  tau(  76) = (  0.0666666  0.1333334  0.3330541  )
        77           Ga  tau(  77) = (  0.0666666  0.1333334  0.6663874  )
        78           Ga  tau(  78) = (  0.0666666  0.1333334  0.9997208  )
        79           Ga  tau(  79) = (  0.0666666  0.3333334  0.3330541  )
        80           Ga  tau(  80) = (  0.0666666  0.3333334  0.6663874  )
        81           Ga  tau(  81) = (  0.0666666  0.3333334  0.9997208  )
        82           Ga  tau(  82) = (  0.0666666  0.5333334  0.3330541  )
        83           Ga  tau(  83) = (  0.0666666  0.5333334  0.6663874  )
        84           Ga  tau(  84) = (  0.0666666  0.5333334  0.9997208  )
        85           Ga  tau(  85) = (  0.0666666  0.7333334  0.3330541  )
        86           Ga  tau(  86) = (  0.0666666  0.7333334  0.6663874  )
        87           Ga  tau(  87) = (  0.0666666  0.7333334  0.9997208  )
        88           Ga  tau(  88) = (  0.0666666  0.9333334  0.3330541  )
        89           Ga  tau(  89) = (  0.0666666  0.9333334  0.6663874  )
        90           Ga  tau(  90) = (  0.0666666  0.9333334  0.9997208  )
        91           Ga  tau(  91) = (  0.2666666  0.1333334  0.3330541  )
        92           Ga  tau(  92) = (  0.2666666  0.1333334  0.6663874  )
        93           Ga  tau(  93) = (  0.2666666  0.1333334  0.9997208  )
        94           Ga  tau(  94) = (  0.2666666  0.3333334  0.3330541  )
        95           Ga  tau(  95) = (  0.2666666  0.3333334  0.6663874  )
        96           Ga  tau(  96) = (  0.2666666  0.3333334  0.9997208  )
        97           Ga  tau(  97) = (  0.2666666  0.5333334  0.3330541  )
        98           Ga  tau(  98) = (  0.2666666  0.5333334  0.6663874  )
        99           Ga  tau(  99) = (  0.2666666  0.5333334  0.9997208  )
       100           Ga  tau( 100) = (  0.2666666  0.7333334  0.3330541  )
       101           Ga  tau( 101) = (  0.2666666  0.7333334  0.6663874  )
       102           Ga  tau( 102) = (  0.2666666  0.7333334  0.9997208  )
       103           Ga  tau( 103) = (  0.2666666  0.9333334  0.3330541  )
       104           Ga  tau( 104) = (  0.2666666  0.9333334  0.6663874  )
       105           Ga  tau( 105) = (  0.2666666  0.9333334  0.9997208  )
       106           Ga  tau( 106) = (  0.4666666  0.1333334  0.3330541  )
       107           Ga  tau( 107) = (  0.4666666  0.1333334  0.6663874  )
       108           Ga  tau( 108) = (  0.4666666  0.1333334  0.9997208  )
       109           Ga  tau( 109) = (  0.4666666  0.3333334  0.3330541  )
       110           Ga  tau( 110) = (  0.4666666  0.3333334  0.6663874  )
       111           Ga  tau( 111) = (  0.4666666  0.3333334  0.9997208  )
       112           Ga  tau( 112) = (  0.4666666  0.5333334  0.3330541  )
       113           Ga  tau( 113) = (  0.4666666  0.5333334  0.6663874  )
       114           Ga  tau( 114) = (  0.4666666  0.5333334  0.9997208  )
       115           Ga  tau( 115) = (  0.4666666  0.7333334  0.3330541  )
       116           Ga  tau( 116) = (  0.4666666  0.7333334  0.6663874  )
       117           Ga  tau( 117) = (  0.4666666  0.7333334  0.9997208  )
       118           Ga  tau( 118) = (  0.4666666  0.9333334  0.3330541  )
       119           Ga  tau( 119) = (  0.4666666  0.9333334  0.6663874  )
       120           Ga  tau( 120) = (  0.4666666  0.9333334  0.9997208  )
       121           Ga  tau( 121) = (  0.6666666  0.1333334  0.3330541  )
       122           Ga  tau( 122) = (  0.6666666  0.1333334  0.6663874  )
       123           Ga  tau( 123) = (  0.6666666  0.1333334  0.9997208  )
       124           Ga  tau( 124) = (  0.6666666  0.3333334  0.3330541  )
       125           Ga  tau( 125) = (  0.6666666  0.3333334  0.6663874  )
       126           Ga  tau( 126) = (  0.6666666  0.3333334  0.9997208  )
       127           Ga  tau( 127) = (  0.6666666  0.5333334  0.3330541  )
       128           Ga  tau( 128) = (  0.6666666  0.5333334  0.6663874  )
       129           Ga  tau( 129) = (  0.6666666  0.5333334  0.9997208  )
       130           Ga  tau( 130) = (  0.6666666  0.7333334  0.3330541  )
       131           Ga  tau( 131) = (  0.6666666  0.7333334  0.6663874  )
       132           Ga  tau( 132) = (  0.6666666  0.7333334  0.9997208  )
       133           Ga  tau( 133) = (  0.6666666  0.9333334  0.3330541  )
       134           Ga  tau( 134) = (  0.6666666  0.9333334  0.6663874  )
       135           Ga  tau( 135) = (  0.6666666  0.9333334  0.9997208  )
       136           Ga  tau( 136) = (  0.8666666  0.1333334  0.3330541  )
       137           Ga  tau( 137) = (  0.8666666  0.1333334  0.6663874  )
       138           Ga  tau( 138) = (  0.8666666  0.1333334  0.9997208  )
       139           Ga  tau( 139) = (  0.8666666  0.3333334  0.3330541  )
       140           Ga  tau( 140) = (  0.8666666  0.3333334  0.6663874  )
       141           Ga  tau( 141) = (  0.8666666  0.3333334  0.9997208  )
       142           Ga  tau( 142) = (  0.8666666  0.5333334  0.3330541  )
       143           Ga  tau( 143) = (  0.8666666  0.5333334  0.6663874  )
       144           Ga  tau( 144) = (  0.8666666  0.5333334  0.9997208  )
       145           Ga  tau( 145) = (  0.8666666  0.7333334  0.3330541  )
       146           Ga  tau( 146) = (  0.8666666  0.7333334  0.6663874  )
       147           Ga  tau( 147) = (  0.8666666  0.7333334  0.9997208  )
       148           Ga  tau( 148) = (  0.8666666  0.9333334  0.3330541  )
       149           Ga  tau( 149) = (  0.8666666  0.9333334  0.6663874  )
       150           Ga  tau( 150) = (  0.8666666  0.9333334  0.9997208  )
       151           N   tau( 151) = (  0.1333334  0.0666666  0.6252792  )
       152           N   tau( 152) = (  0.1333334  0.0666666  0.9586126  )
       153           N   tau( 153) = (  0.1333334  0.2666666  0.2919459  )
       154           N   tau( 154) = (  0.1333334  0.2666666  0.6252792  )
       155           N   tau( 155) = (  0.1333334  0.2666666  0.9586126  )
       156           N   tau( 156) = (  0.1333334  0.4666666  0.2919459  )
       157           N   tau( 157) = (  0.1333334  0.4666666  0.6252792  )
       158           N   tau( 158) = (  0.1333334  0.4666666  0.9586126  )
       159           N   tau( 159) = (  0.1333334  0.6666666  0.2919459  )
       160           N   tau( 160) = (  0.1333334  0.6666666  0.6252792  )
       161           N   tau( 161) = (  0.1333334  0.6666666  0.9586126  )
       162           N   tau( 162) = (  0.1333334  0.8666666  0.2919459  )
       163           N   tau( 163) = (  0.1333334  0.8666666  0.6252792  )
       164           N   tau( 164) = (  0.1333334  0.8666666  0.9586126  )
       165           N   tau( 165) = (  0.3333334  0.0666666  0.2919459  )
       166           N   tau( 166) = (  0.3333334  0.0666666  0.6252792  )
       167           N   tau( 167) = (  0.3333334  0.0666666  0.9586126  )
       168           N   tau( 168) = (  0.3333334  0.2666666  0.2919459  )
       169           N   tau( 169) = (  0.3333334  0.2666666  0.6252792  )
       170           N   tau( 170) = (  0.3333334  0.2666666  0.9586126  )
       171           N   tau( 171) = (  0.3333334  0.4666666  0.2919459  )
       172           N   tau( 172) = (  0.3333334  0.4666666  0.6252792  )
       173           N   tau( 173) = (  0.3333334  0.4666666  0.9586126  )
       174           N   tau( 174) = (  0.3333334  0.6666666  0.2919459  )
       175           N   tau( 175) = (  0.3333334  0.6666666  0.6252792  )
       176           N   tau( 176) = (  0.3333334  0.6666666  0.9586126  )
       177           N   tau( 177) = (  0.3333334  0.8666666  0.2919459  )
       178           N   tau( 178) = (  0.3333334  0.8666666  0.6252792  )
       179           N   tau( 179) = (  0.3333334  0.8666666  0.9586126  )
       180           N   tau( 180) = (  0.5333334  0.0666666  0.2919459  )
       181           N   tau( 181) = (  0.5333334  0.0666666  0.6252792  )
       182           N   tau( 182) = (  0.5333334  0.0666666  0.9586126  )
       183           N   tau( 183) = (  0.5333334  0.2666666  0.2919459  )
       184           N   tau( 184) = (  0.5333334  0.2666666  0.6252792  )
       185           N   tau( 185) = (  0.5333334  0.2666666  0.9586126  )
       186           N   tau( 186) = (  0.5333334  0.4666666  0.2919459  )
       187           N   tau( 187) = (  0.5333334  0.4666666  0.6252792  )
       188           N   tau( 188) = (  0.5333334  0.4666666  0.9586126  )
       189           N   tau( 189) = (  0.5333334  0.6666666  0.2919459  )
       190           N   tau( 190) = (  0.5333334  0.6666666  0.6252792  )
       191           N   tau( 191) = (  0.5333334  0.6666666  0.9586126  )
       192           N   tau( 192) = (  0.5333334  0.8666666  0.2919459  )
       193           N   tau( 193) = (  0.5333334  0.8666666  0.6252792  )
       194           N   tau( 194) = (  0.5333334  0.8666666  0.9586126  )
       195           N   tau( 195) = (  0.7333334  0.0666666  0.2919459  )
       196           N   tau( 196) = (  0.7333334  0.0666666  0.6252792  )
       197           N   tau( 197) = (  0.7333334  0.0666666  0.9586126  )
       198           N   tau( 198) = (  0.7333334  0.2666666  0.2919459  )
       199           N   tau( 199) = (  0.7333334  0.2666666  0.6252792  )
       200           N   tau( 200) = (  0.7333334  0.2666666  0.9586126  )
       201           N   tau( 201) = (  0.7333334  0.4666666  0.2919459  )
       202           N   tau( 202) = (  0.7333334  0.4666666  0.6252792  )
       203           N   tau( 203) = (  0.7333334  0.4666666  0.9586126  )
       204           N   tau( 204) = (  0.7333334  0.6666666  0.2919459  )
       205           N   tau( 205) = (  0.7333334  0.6666666  0.6252792  )
       206           N   tau( 206) = (  0.7333334  0.6666666  0.9586126  )
       207           N   tau( 207) = (  0.7333334  0.8666666  0.2919459  )
       208           N   tau( 208) = (  0.7333334  0.8666666  0.6252792  )
       209           N   tau( 209) = (  0.7333334  0.8666666  0.9586126  )
       210           N   tau( 210) = (  0.9333334  0.0666666  0.2919459  )
       211           N   tau( 211) = (  0.9333334  0.0666666  0.6252792  )
       212           N   tau( 212) = (  0.9333334  0.0666666  0.9586126  )
       213           N   tau( 213) = (  0.9333334  0.2666666  0.2919459  )
       214           N   tau( 214) = (  0.9333334  0.2666666  0.6252792  )
       215           N   tau( 215) = (  0.9333334  0.2666666  0.9586126  )
       216           N   tau( 216) = (  0.9333334  0.4666666  0.2919459  )
       217           N   tau( 217) = (  0.9333334  0.4666666  0.6252792  )
       218           N   tau( 218) = (  0.9333334  0.4666666  0.9586126  )
       219           N   tau( 219) = (  0.9333334  0.6666666  0.2919459  )
       220           N   tau( 220) = (  0.9333334  0.6666666  0.6252792  )
       221           N   tau( 221) = (  0.9333334  0.6666666  0.9586126  )
       222           N   tau( 222) = (  0.9333334  0.8666666  0.2919459  )
       223           N   tau( 223) = (  0.9333334  0.8666666  0.6252792  )
       224           N   tau( 224) = (  0.9333334  0.8666666  0.9586126  )
       225           N   tau( 225) = (  0.0666666  0.1333334  0.1252792  )
       226           N   tau( 226) = (  0.0666666  0.1333334  0.4586126  )
       227           N   tau( 227) = (  0.0666666  0.1333334  0.7919459  )
       228           N   tau( 228) = (  0.0666666  0.3333334  0.1252792  )
       229           N   tau( 229) = (  0.0666666  0.3333334  0.4586126  )
       230           N   tau( 230) = (  0.0666666  0.3333334  0.7919459  )
       231           N   tau( 231) = (  0.0666666  0.5333334  0.1252792  )
       232           N   tau( 232) = (  0.0666666  0.5333334  0.4586126  )
       233           N   tau( 233) = (  0.0666666  0.5333334  0.7919459  )
       234           N   tau( 234) = (  0.0666666  0.7333334  0.1252792  )
       235           N   tau( 235) = (  0.0666666  0.7333334  0.4586126  )
       236           N   tau( 236) = (  0.0666666  0.7333334  0.7919459  )
       237           N   tau( 237) = (  0.0666666  0.9333334  0.1252792  )
       238           N   tau( 238) = (  0.0666666  0.9333334  0.4586126  )
       239           N   tau( 239) = (  0.0666666  0.9333334  0.7919459  )
       240           N   tau( 240) = (  0.2666666  0.1333334  0.1252792  )
       241           N   tau( 241) = (  0.2666666  0.1333334  0.4586126  )
       242           N   tau( 242) = (  0.2666666  0.1333334  0.7919459  )
       243           N   tau( 243) = (  0.2666666  0.3333334  0.1252792  )
       244           N   tau( 244) = (  0.2666666  0.3333334  0.4586126  )
       245           N   tau( 245) = (  0.2666666  0.3333334  0.7919459  )
       246           N   tau( 246) = (  0.2666666  0.5333334  0.1252792  )
       247           N   tau( 247) = (  0.2666666  0.5333334  0.4586126  )
       248           N   tau( 248) = (  0.2666666  0.5333334  0.7919459  )
       249           N   tau( 249) = (  0.2666666  0.7333334  0.1252792  )
       250           N   tau( 250) = (  0.2666666  0.7333334  0.4586126  )
       251           N   tau( 251) = (  0.2666666  0.7333334  0.7919459  )
       252           N   tau( 252) = (  0.2666666  0.9333334  0.1252792  )
       253           N   tau( 253) = (  0.2666666  0.9333334  0.4586126  )
       254           N   tau( 254) = (  0.2666666  0.9333334  0.7919459  )
       255           N   tau( 255) = (  0.4666666  0.1333334  0.1252792  )
       256           N   tau( 256) = (  0.4666666  0.1333334  0.4586126  )
       257           N   tau( 257) = (  0.4666666  0.1333334  0.7919459  )
       258           N   tau( 258) = (  0.4666666  0.3333334  0.1252792  )
       259           N   tau( 259) = (  0.4666666  0.3333334  0.4586126  )
       260           N   tau( 260) = (  0.4666666  0.3333334  0.7919459  )
       261           N   tau( 261) = (  0.4666666  0.5333334  0.1252792  )
       262           N   tau( 262) = (  0.4666666  0.5333334  0.4586126  )
       263           N   tau( 263) = (  0.4666666  0.5333334  0.7919459  )
       264           N   tau( 264) = (  0.4666666  0.7333334  0.1252792  )
       265           N   tau( 265) = (  0.4666666  0.7333334  0.4586126  )
       266           N   tau( 266) = (  0.4666666  0.7333334  0.7919459  )
       267           N   tau( 267) = (  0.4666666  0.9333334  0.1252792  )
       268           N   tau( 268) = (  0.4666666  0.9333334  0.4586126  )
       269           N   tau( 269) = (  0.4666666  0.9333334  0.7919459  )
       270           N   tau( 270) = (  0.6666666  0.1333334  0.1252792  )
       271           N   tau( 271) = (  0.6666666  0.1333334  0.4586126  )
       272           N   tau( 272) = (  0.6666666  0.1333334  0.7919459  )
       273           N   tau( 273) = (  0.6666666  0.3333334  0.1252792  )
       274           N   tau( 274) = (  0.6666666  0.3333334  0.4586126  )
       275           N   tau( 275) = (  0.6666666  0.3333334  0.7919459  )
       276           N   tau( 276) = (  0.6666666  0.5333334  0.1252792  )
       277           N   tau( 277) = (  0.6666666  0.5333334  0.4586126  )
       278           N   tau( 278) = (  0.6666666  0.5333334  0.7919459  )
       279           N   tau( 279) = (  0.6666666  0.7333334  0.1252792  )
       280           N   tau( 280) = (  0.6666666  0.7333334  0.4586126  )
       281           N   tau( 281) = (  0.6666666  0.7333334  0.7919459  )
       282           N   tau( 282) = (  0.6666666  0.9333334  0.1252792  )
       283           N   tau( 283) = (  0.6666666  0.9333334  0.4586126  )
       284           N   tau( 284) = (  0.6666666  0.9333334  0.7919459  )
       285           N   tau( 285) = (  0.8666666  0.1333334  0.1252792  )
       286           N   tau( 286) = (  0.8666666  0.1333334  0.4586126  )
       287           N   tau( 287) = (  0.8666666  0.1333334  0.7919459  )
       288           N   tau( 288) = (  0.8666666  0.3333334  0.1252792  )
       289           N   tau( 289) = (  0.8666666  0.3333334  0.4586126  )
       290           N   tau( 290) = (  0.8666666  0.3333334  0.7919459  )
       291           N   tau( 291) = (  0.8666666  0.5333334  0.1252792  )
       292           N   tau( 292) = (  0.8666666  0.5333334  0.4586126  )
       293           N   tau( 293) = (  0.8666666  0.5333334  0.7919459  )
       294           N   tau( 294) = (  0.8666666  0.7333334  0.1252792  )
       295           N   tau( 295) = (  0.8666666  0.7333334  0.4586126  )
       296           N   tau( 296) = (  0.8666666  0.7333334  0.7919459  )
       297           N   tau( 297) = (  0.8666666  0.9333334  0.1252792  )
       298           N   tau( 298) = (  0.8666666  0.9333334  0.4586126  )
       299           N   tau( 299) = (  0.8666666  0.9333334  0.7919459  )
       300           Ga  tau( 300) = (  0.1333334  0.0666666  0.2919459  )

     number of k points=     6  Gaussian smearing, width (Ry)=  0.0100
                       cart. coord. in units 2pi/alat
        k(    1) = (   0.0000000   0.0000000   0.0000000), wk =   0.2500000
        k(    2) = (   0.0000000   0.0000000  -0.5112854), wk =   0.2500000
        k(    3) = (   0.0000000  -0.5773503   0.0000000), wk =   0.5000000
        k(    4) = (   0.0000000  -0.5773503  -0.5112854), wk =   0.5000000
        k(    5) = (  -0.5000000  -0.2886751   0.0000000), wk =   0.2500000
        k(    6) = (  -0.5000000  -0.2886751  -0.5112854), wk =   0.2500000

                       cryst. coord.
        k(    1) = (   0.0000000   0.0000000   0.0000000), wk =   0.2500000
        k(    2) = (   0.0000000   0.0000000  -0.5000000), wk =   0.2500000
        k(    3) = (   0.0000000  -0.5000000   0.0000000), wk =   0.5000000
        k(    4) = (   0.0000000  -0.5000000  -0.5000000), wk =   0.5000000
        k(    5) = (  -0.5000000  -0.0000000   0.0000000), wk =   0.2500000
        k(    6) = (  -0.5000000  -0.0000000  -0.5000000), wk =   0.2500000

     Dense  grid:  2698283 G-vectors     FFT dimensions: ( 192, 192, 180)

     Smooth grid:  1930731 G-vectors     FFT dimensions: ( 180, 180, 160)

     Dynamical RAM for                 wfc:      93.48 MB

     Dynamical RAM for     wfc (w. buffer):     280.44 MB

     Dynamical RAM for           str. fact:       1.29 MB

     Dynamical RAM for           local pot:       0.00 MB

     Dynamical RAM for          nlocal pot:     224.93 MB

     Dynamical RAM for                qrad:       3.00 MB

     Dynamical RAM for          rho,v,vnew:       4.46 MB

     Dynamical RAM for               rhoin:       1.49 MB

     Dynamical RAM for            rho*nmix:      10.29 MB

     Dynamical RAM for           G-vectors:       2.64 MB

     Dynamical RAM for          h,s,v(r/c):    1934.05 MB

     Dynamical RAM for          <psi|beta>:      96.95 MB

     Dynamical RAM for                 psi:     373.92 MB

     Dynamical RAM for                hpsi:     373.92 MB

     Dynamical RAM for                spsi:     373.92 MB

     Dynamical RAM for      wfcinit/wfcrot:     247.41 MB

     Dynamical RAM for           addusdens:      54.68 MB

     Dynamical RAM for          addusforce:     103.36 MB

     Dynamical RAM for         addusstress:      32.57 MB

     Estimated static dynamical RAM per process >     524.39 MB

     Estimated max dynamical RAM per process >       3.60 GB

     Estimated total dynamical RAM >     919.93 GB

     Atomic positions and unit cell read from directory:
     ./GaN.save/
     Atomic positions from file used, from input discarded
 

     Check: negative core charge=   -0.000003

     The initial density is read from file :
     ./GaN.save/charge-density



     %%%%%%%%%%%%%%%%%%%%%%%%%%%%%%%%%%%%%%%%%%%%%%%%%%%%%%%%%%%%%%%%%%%%%%%%
     %                                                                      %
     % You are using vdW-DF, which was implemented by the Thonhauser group. %
     % Please cite the following two papers that made this development      %
     % possible and the two reviews that describe the various versions:     %
     %                                                                      %
     %   T. Thonhauser et al., PRL 115, 136402 (2015).                      %
     %   T. Thonhauser et al., PRB 76, 125112 (2007).                       %
     %   K. Berland et al., Rep. Prog. Phys. 78, 066501 (2015).             %
     %   D.C. Langreth et al., J. Phys.: Condens. Matter 21, 084203 (2009). %
     %                                                                      %
     % If you are calculating stress with vdW-DF, please also cite:         %
     %                                                                      %
     %   R. Sabatini et al., J. Phys.: Condens. Matter 24, 424209 (2012).   %
     %                                                                      %
     %%%%%%%%%%%%%%%%%%%%%%%%%%%%%%%%%%%%%%%%%%%%%%%%%%%%%%%%%%%%%%%%%%%%%%%%

     %%%%%%%%%%%%%%%%%%%%%%%%%%%%%%%%%%%%%%%%%%%%%%%%%%%%%%%%%%%%%%%%%%%%%%%%
     %                                                                      %
     %  vdW-DF NEWS:                                                        %
     %                                                                      %
     %  * vdW-DF3 is now available. DOI: 10.1021/acs.jctc.0c00471           %
     %    use with input_dft = 'vdW-DF3-opt1' or 'vdW-DF3-opt2'             %
     %                                                                      %
     %  * Unscreened and range-separated vdW-DF hybrid functionals          %
     %    DOI: 10.1063/1.4986522 and 10.1088/1361-648X/ac2ad2               %
     %    use with input_dft = 'vdW-DF-cx0' (etc) and 'vdW-DF-ahcx'         %
     %                                                                      %
     %%%%%%%%%%%%%%%%%%%%%%%%%%%%%%%%%%%%%%%%%%%%%%%%%%%%%%%%%%%%%%%%%%%%%%%%


     Carrying out vdW-DF run using the following parameters:
     Nqs    =  20  Npoints =  1024  r_max =  100.000
     q_mesh =  0.00001000  0.04494208  0.09755937  0.15916263
               0.23128650  0.31572767  0.41458969  0.53033537
               0.66584808  0.82450364  1.01025438  1.22772762
               1.48234092  1.78043706  2.12944203  2.53805004
               3.01644009  3.57652955  4.23227104  5.00000000


     -----------------------------------------------
     Non-local corr. energy    =      82.12430317 Ry
     -----------------------------------------------

     Cannot read wfcs: file not found
     Starting wfcs are 1955 randomized atomic wfcs
     Checking if some PAW data can be deallocated... 
       PAW data deallocated on  149 nodes for type:  1
       PAW data deallocated on  107 nodes for type:  2

     total cpu time spent up to now is      116.8 secs

     Self-consistent Calculation

     iteration #  1     ecut=    70.00 Ry     beta= 0.70
     Davidson diagonalization with overlap

---- Real-time Memory Report at c_bands before calling an iterative solver
          1271 MiB given to the printing process from OS
             0 MiB allocation reported by mallinfo(arena+hblkhd)
       1697442 MiB available memory on the node where the printing process lives
------------------
     ethr =  1.00E-05,  avg # of iterations = 26.7


     -----------------------------------------------
     Non-local corr. energy    =      82.10322795 Ry
     -----------------------------------------------


     total cpu time spent up to now is     3737.6 secs

     total energy              =  -47097.28961466 Ry
     estimated scf accuracy    <       0.58226459 Ry

     iteration #  2     ecut=    70.00 Ry     beta= 0.70
     Davidson diagonalization with overlap

---- Real-time Memory Report at c_bands before calling an iterative solver
          3635 MiB given to the printing process from OS
             0 MiB allocation reported by mallinfo(arena+hblkhd)
       1698111 MiB available memory on the node where the printing process lives
------------------
     ethr =  2.15E-05,  avg # of iterations = 11.2


     -----------------------------------------------
     Non-local corr. energy    =      82.10408566 Ry
     -----------------------------------------------


     total cpu time spent up to now is     6125.8 secs

     total energy              =  -47097.18634130 Ry
     estimated scf accuracy    <       1.12618814 Ry

     iteration #  3     ecut=    70.00 Ry     beta= 0.70
     Davidson diagonalization with overlap

---- Real-time Memory Report at c_bands before calling an iterative solver
          3635 MiB given to the printing process from OS
             0 MiB allocation reported by mallinfo(arena+hblkhd)
       1677532 MiB available memory on the node where the printing process lives
------------------
     ethr =  2.15E-05,  avg # of iterations = 11.2


     -----------------------------------------------
     Non-local corr. energy    =      82.10815973 Ry
     -----------------------------------------------


     total cpu time spent up to now is     8177.6 secs

     total energy              =  -47097.42971190 Ry
     estimated scf accuracy    <       0.28850407 Ry

     iteration #  4     ecut=    70.00 Ry     beta= 0.70
     Davidson diagonalization with overlap

---- Real-time Memory Report at c_bands before calling an iterative solver
          3635 MiB given to the printing process from OS
             0 MiB allocation reported by mallinfo(arena+hblkhd)
       1677388 MiB available memory on the node where the printing process lives
------------------
     ethr =  1.07E-05,  avg # of iterations = 13.3


     -----------------------------------------------
     Non-local corr. energy    =      82.11085490 Ry
     -----------------------------------------------


     total cpu time spent up to now is    10150.9 secs

     total energy              =  -47097.47430286 Ry
     estimated scf accuracy    <       0.09517714 Ry

     iteration #  5     ecut=    70.00 Ry     beta= 0.70
     Davidson diagonalization with overlap

---- Real-time Memory Report at c_bands before calling an iterative solver
          3635 MiB given to the printing process from OS
             0 MiB allocation reported by mallinfo(arena+hblkhd)
       1677236 MiB available memory on the node where the printing process lives
------------------
     ethr =  3.51E-06,  avg # of iterations = 17.7


     -----------------------------------------------
     Non-local corr. energy    =      82.11324149 Ry
     -----------------------------------------------


     total cpu time spent up to now is    12246.9 secs

     total energy              =  -47097.48446720 Ry
     estimated scf accuracy    <       0.02216454 Ry

     iteration #  6     ecut=    70.00 Ry     beta= 0.70
     Davidson diagonalization with overlap

---- Real-time Memory Report at c_bands before calling an iterative solver
          3635 MiB given to the printing process from OS
             0 MiB allocation reported by mallinfo(arena+hblkhd)
       1677088 MiB available memory on the node where the printing process lives
------------------
     ethr =  8.18E-07,  avg # of iterations = 18.7


     -----------------------------------------------
     Non-local corr. energy    =      82.12009863 Ry
     -----------------------------------------------


     total cpu time spent up to now is    14421.9 secs

     total energy              =  -47097.48765760 Ry
     estimated scf accuracy    <       0.01053991 Ry

     iteration #  7     ecut=    70.00 Ry     beta= 0.70
     Davidson diagonalization with overlap

---- Real-time Memory Report at c_bands before calling an iterative solver
          3635 MiB given to the printing process from OS
             0 MiB allocation reported by mallinfo(arena+hblkhd)
       1676947 MiB available memory on the node where the printing process lives
------------------
     ethr =  3.89E-07,  avg # of iterations = 15.5


     -----------------------------------------------
     Non-local corr. energy    =      82.12481774 Ry
     -----------------------------------------------


     total cpu time spent up to now is    16358.4 secs

     total energy              =  -47097.48796056 Ry
     estimated scf accuracy    <       0.00580313 Ry

     iteration #  8     ecut=    70.00 Ry     beta= 0.70
     Davidson diagonalization with overlap

---- Real-time Memory Report at c_bands before calling an iterative solver
          3635 MiB given to the printing process from OS
             0 MiB allocation reported by mallinfo(arena+hblkhd)
       1676769 MiB available memory on the node where the printing process lives
------------------
     c_bands:  1 eigenvalues not converged
     ethr =  2.14E-07,  avg # of iterations = 18.7


     -----------------------------------------------
     Non-local corr. energy    =      82.12564605 Ry
     -----------------------------------------------


     total cpu time spent up to now is    18953.0 secs

     total energy              =  -47097.48844277 Ry
     estimated scf accuracy    <       0.00667335 Ry

     iteration #  9     ecut=    70.00 Ry     beta= 0.70
     Davidson diagonalization with overlap

---- Real-time Memory Report at c_bands before calling an iterative solver
          3635 MiB given to the printing process from OS
             0 MiB allocation reported by mallinfo(arena+hblkhd)
       1676576 MiB available memory on the node where the printing process lives
------------------
     c_bands:  1 eigenvalues not converged
     ethr =  2.14E-07,  avg # of iterations = 18.5


     -----------------------------------------------
     Non-local corr. energy    =      82.12529767 Ry
     -----------------------------------------------


     total cpu time spent up to now is    20990.9 secs

     total energy              =  -47097.48906859 Ry
     estimated scf accuracy    <       0.00077076 Ry

     iteration # 10     ecut=    70.00 Ry     beta= 0.70
     Davidson diagonalization with overlap

---- Real-time Memory Report at c_bands before calling an iterative solver
          3635 MiB given to the printing process from OS
             0 MiB allocation reported by mallinfo(arena+hblkhd)
       1676424 MiB available memory on the node where the printing process lives
------------------
     ethr =  2.85E-08,  avg # of iterations = 17.7


     -----------------------------------------------
     Non-local corr. energy    =      82.12517850 Ry
     -----------------------------------------------


     total cpu time spent up to now is    23093.7 secs

     total energy              =  -47097.48912377 Ry
     estimated scf accuracy    <       0.00013176 Ry

     iteration # 11     ecut=    70.00 Ry     beta= 0.70
     Davidson diagonalization with overlap

---- Real-time Memory Report at c_bands before calling an iterative solver
          3635 MiB given to the printing process from OS
             0 MiB allocation reported by mallinfo(arena+hblkhd)
       1676411 MiB available memory on the node where the printing process lives
------------------
     ethr =  4.87E-09,  avg # of iterations = 15.7


     -----------------------------------------------
     Non-local corr. energy    =      82.12470116 Ry
     -----------------------------------------------


     total cpu time spent up to now is    25984.7 secs

     total energy              =  -47097.48915313 Ry
     estimated scf accuracy    <       0.00002254 Ry

     iteration # 12     ecut=    70.00 Ry     beta= 0.70
     Davidson diagonalization with overlap

---- Real-time Memory Report at c_bands before calling an iterative solver
          3635 MiB given to the printing process from OS
             0 MiB allocation reported by mallinfo(arena+hblkhd)
       1676396 MiB available memory on the node where the printing process lives
------------------
     ethr =  8.32E-10,  avg # of iterations = 16.0


     -----------------------------------------------
     Non-local corr. energy    =      82.12462468 Ry
     -----------------------------------------------


     total cpu time spent up to now is    28743.7 secs

     total energy              =  -47097.48915972 Ry
     estimated scf accuracy    <       0.00000310 Ry

     iteration # 13     ecut=    70.00 Ry     beta= 0.70
     Davidson diagonalization with overlap

---- Real-time Memory Report at c_bands before calling an iterative solver
          3635 MiB given to the printing process from OS
             0 MiB allocation reported by mallinfo(arena+hblkhd)
       1676393 MiB available memory on the node where the printing process lives
------------------
     ethr =  1.14E-10,  avg # of iterations = 16.2


     -----------------------------------------------
     Non-local corr. energy    =      82.12466358 Ry
     -----------------------------------------------


     total cpu time spent up to now is    31715.8 secs

     total energy              =  -47097.48916041 Ry
     estimated scf accuracy    <       0.00000158 Ry

     iteration # 14     ecut=    70.00 Ry     beta= 0.70
     Davidson diagonalization with overlap

---- Real-time Memory Report at c_bands before calling an iterative solver
          3635 MiB given to the printing process from OS
             0 MiB allocation reported by mallinfo(arena+hblkhd)
       1676381 MiB available memory on the node where the printing process lives
------------------
     ethr =  5.82E-11,  avg # of iterations = 15.2


     -----------------------------------------------
     Non-local corr. energy    =      82.12472388 Ry
     -----------------------------------------------


     total cpu time spent up to now is    34134.3 secs

     total energy              =  -47097.48916075 Ry
     estimated scf accuracy    <       0.00000031 Ry

     iteration # 15     ecut=    70.00 Ry     beta= 0.70
     Davidson diagonalization with overlap

---- Real-time Memory Report at c_bands before calling an iterative solver
          3635 MiB given to the printing process from OS
             0 MiB allocation reported by mallinfo(arena+hblkhd)
       1676379 MiB available memory on the node where the printing process lives
------------------
     ethr =  1.14E-11,  avg # of iterations = 16.5


     -----------------------------------------------
     Non-local corr. energy    =      82.12475592 Ry
     -----------------------------------------------


     total cpu time spent up to now is    36795.8 secs

     total energy              =  -47097.48916083 Ry
     estimated scf accuracy    <       0.00000008 Ry

     iteration # 16     ecut=    70.00 Ry     beta= 0.70
     Davidson diagonalization with overlap

---- Real-time Memory Report at c_bands before calling an iterative solver
          3635 MiB given to the printing process from OS
             0 MiB allocation reported by mallinfo(arena+hblkhd)
       1676371 MiB available memory on the node where the printing process lives
------------------
     ethr =  2.98E-12,  avg # of iterations = 18.2


     -----------------------------------------------
     Non-local corr. energy    =      82.12476573 Ry
     -----------------------------------------------


     total cpu time spent up to now is    39500.9 secs

     total energy              =  -47097.48916084 Ry
     estimated scf accuracy    <       0.00000009 Ry

     iteration # 17     ecut=    70.00 Ry     beta= 0.70
     Davidson diagonalization with overlap

---- Real-time Memory Report at c_bands before calling an iterative solver
          3635 MiB given to the printing process from OS
             0 MiB allocation reported by mallinfo(arena+hblkhd)
       1676369 MiB available memory on the node where the printing process lives
------------------
     ethr =  2.98E-12,  avg # of iterations = 18.0


     -----------------------------------------------
     Non-local corr. energy    =      82.12477281 Ry
     -----------------------------------------------


     total cpu time spent up to now is    41735.5 secs

     total energy              =  -47097.48916086 Ry
     estimated scf accuracy    <       0.00000003 Ry

     iteration # 18     ecut=    70.00 Ry     beta= 0.70
     Davidson diagonalization with overlap

---- Real-time Memory Report at c_bands before calling an iterative solver
          3635 MiB given to the printing process from OS
             0 MiB allocation reported by mallinfo(arena+hblkhd)
       1676355 MiB available memory on the node where the printing process lives
------------------
     ethr =  1.17E-12,  avg # of iterations = 17.0


     -----------------------------------------------
     Non-local corr. energy    =      82.12477462 Ry
     -----------------------------------------------


     total cpu time spent up to now is    43924.7 secs

     total energy              =  -47097.48916086 Ry
     estimated scf accuracy    <       0.00000001 Ry

     iteration # 19     ecut=    70.00 Ry     beta= 0.70
     Davidson diagonalization with overlap

---- Real-time Memory Report at c_bands before calling an iterative solver
          3635 MiB given to the printing process from OS
             0 MiB allocation reported by mallinfo(arena+hblkhd)
       1676348 MiB available memory on the node where the printing process lives
------------------
     ethr =  3.75E-13,  avg # of iterations = 18.2


     -----------------------------------------------
     Non-local corr. energy    =      82.12477399 Ry
     -----------------------------------------------


     total cpu time spent up to now is    46388.9 secs

     total energy              =  -47097.48916087 Ry
     estimated scf accuracy    <          5.7E-09 Ry

     iteration # 20     ecut=    70.00 Ry     beta= 0.70
     Davidson diagonalization with overlap

---- Real-time Memory Report at c_bands before calling an iterative solver
          3635 MiB given to the printing process from OS
             0 MiB allocation reported by mallinfo(arena+hblkhd)
       1676335 MiB available memory on the node where the printing process lives
------------------
     ethr =  2.10E-13,  avg # of iterations = 17.0


     -----------------------------------------------
     Non-local corr. energy    =      82.12477124 Ry
     -----------------------------------------------


     total cpu time spent up to now is    48324.7 secs

     End of self-consistent calculation

          k = 0.0000 0.0000 0.0000 (241213 PWs)   bands (ev):

    -6.8285  -6.6275  -6.6174  -6.6027  -6.6027  -6.5965  -6.5964  -6.5814
    -6.5712  -6.4700  -6.4696  -6.4668  -6.4667  -6.4576  -6.4545  -6.4541
    -6.4493  -6.4492  -6.4478  -6.4422  -6.4344  -6.4036  -6.4009  -6.4003
    -6.4002  -6.3911  -6.3898  -6.3896  -6.3841  -6.3782  -6.3780  -6.3754
    -6.3750  -6.3702  -6.3643  -6.3541  -6.3529  -6.3487  -6.3487  -6.3456
    -6.3448  -6.3399  -6.3398  -6.3386  -6.3363  -6.3360  -6.3343  -6.3320
    -6.3316  -6.3309  -6.3306  -6.3277  -6.3276  -6.3266  -6.3261  -6.3228
    -6.3227  -6.3221  -6.3220  -6.3218  -6.3216  -6.3213  -6.3207  -6.3205
    -6.3201  -6.3194  -6.3186  -6.3184  -6.3183  -6.3157  -6.3151  -6.3148
    -6.3141  -6.3133  -6.3128  -6.3121  -6.3109  -6.3108  -6.3099  -6.3076
    -6.3074  -6.3067  -6.3063  -6.3032  -6.3021  -6.3018  -6.2993  -6.2991
    -6.2975  -6.2954  -6.2945  -6.2941  -6.2941  -6.2940  -6.2937  -6.2917
    -6.2914  -6.2913  -6.2902  -6.2889  -6.2888  -6.2880  -6.2879  -6.2861
    -6.2859  -6.2855  -6.2855  -6.2837  -6.2834  -6.2832  -6.2810  -6.2810
    -6.2806  -6.2803  -6.2802  -6.2802  -6.2763  -6.2760  -6.2755  -6.2749
    -6.2745  -6.2736  -6.2732  -6.2728  -6.2723  -6.2713  -6.2712  -6.2710
    -6.2710  -6.2693  -6.2687  -6.2686  -6.2680  -6.2652  -6.2651  -6.2643
    -6.2642  -6.2642  -6.2626  -6.2626  -6.2602  -6.2600  -6.2597  -6.2590
    -6.2589  -6.2580  -6.2202  -6.2183  -6.2082  -5.3067  -5.3053  -5.2472
    -5.2379  -5.2377  -5.2279  -5.2223  -5.2223  -5.2180  -5.2063  -5.2063
    -5.2044  -5.2043  -5.2004  -5.1995  -5.1995  -5.1991  -5.1985  -5.1977
    -5.1976  -5.1975  -5.1975  -5.1945  -5.1927  -5.1927  -5.1891  -5.1890
    -5.1888  -5.1874  -5.1873  -5.1857  -5.1840  -5.1840  -5.1830  -5.1818
    -5.1816  -5.1816  -5.1813  -5.1813  -5.1812  -5.1812  -5.1806  -5.1801
    -5.1798  -5.1798  -5.1794  -5.1794  -5.1782  -5.1779  -5.1779  -5.1779
    -5.1778  -5.1778  -5.1775  -5.1774  -5.1758  -5.1758  -5.1758  -5.1743
    -5.1742  -5.1739  -5.1725  -5.1724  -5.1662  -5.1662  -5.1640  -5.1640
    -5.1637  -5.1637  -5.1631  -5.1629  -5.1629  -5.1621  -5.1616  -5.1613
    -5.1613  -5.1606  -5.1600  -5.1599  -5.1599  -5.1589  -5.1589  -5.1582
    -5.1580  -5.1579  -5.1575  -5.1567  -5.1567  -5.1558  -5.1551  -5.1551
    -5.1542  -5.1542  -5.1529  -5.1526  -5.1526  -5.1526  -5.1524  -5.1524
    -5.1522  -5.1517  -5.1510  -5.1510  -5.1503  -5.1501  -5.1501  -5.1500
    -5.1499  -5.1492  -5.1491  -5.1488  -5.1484  -5.1483  -5.1482  -5.1482
    -5.1467  -5.1467  -5.1467  -5.1465  -5.1464  -5.1460  -5.1458  -5.1450
    -5.1449  -5.1449  -5.1437  -5.1421  -5.1414  -5.1413  -5.1402  -5.1401
    -5.1387  -5.1387  -5.1376  -5.1374  -5.1362  -5.1355  -5.1355  -5.1347
    -5.1347  -5.1342  -5.1342  -5.1340  -5.1335  -5.1335  -5.1326  -5.1326
    -5.1315  -5.1314  -5.1314  -5.1305  -5.1303  -5.1303  -5.1302  -5.1296
    -5.1296  -5.1292  -5.1292  -5.1284  -5.1283  -5.1283  -5.1281  -5.1281
    -5.1275  -5.1267  -5.1267  -5.1266  -5.1264  -5.1263  -5.1260  -5.1248
    -5.1248  -5.1247  -5.1241  -5.1238  -5.1238  -5.1227  -5.1227  -5.1215
    -5.1215  -5.1209  -5.1202  -5.1189  -5.1189  -5.1180  -5.1178  -5.1177
    -5.1177  -5.1168  -5.1168  -5.1151  -5.1151  -5.1148  -5.1142  -5.1142
    -5.1135  -5.1135  -5.1131  -5.1122  -5.1117  -5.1113  -5.1113  -5.1098
    -5.1086  -5.1079  -5.1078  -5.1073  -5.1073  -5.1069  -5.1069  -5.1067
    -5.1067  -5.1064  -5.1064  -5.1059  -5.1051  -5.1051  -5.1049  -5.1044
    -5.1044  -5.1038  -5.1030  -5.1028  -5.1028  -5.1013  -5.1007  -5.1007
    -5.0952  -5.0951  -5.0937  -5.0937  -5.0934  -5.0913  -5.0904  -5.0887
    -5.0886  -5.0883  -5.0866  -5.0866  -5.0855  -5.0855  -5.0855  -5.0817
    -5.0809  -5.0809  -5.0805  -5.0802  -5.0801  -5.0796  -5.0772  -5.0772
    -5.0748  -5.0747  -5.0743  -5.0715  -5.0715  -5.0621  -5.0621  -5.0604
    -5.0596  -5.0594  -5.0588  -5.0585  -5.0573  -5.0573  -5.0571  -5.0553
    -5.0546  -5.0539  -5.0538  -5.0533  -5.0533  -5.0527  -5.0527  -5.0527
    -5.0520  -5.0518  -5.0518  -5.0517  -5.0517  -5.0511  -5.0509  -5.0509
    -5.0507  -5.0506  -5.0505  -5.0500  -5.0499  -5.0497  -5.0494  -5.0494
    -5.0486  -5.0486  -5.0482  -5.0480  -5.0480  -5.0472  -5.0472  -5.0469
    -5.0469  -5.0468  -5.0456  -5.0455  -5.0447  -5.0446  -5.0440  -5.0439
    -5.0428  -5.0414  -5.0413  -5.0412  -5.0406  -5.0398  -5.0398  -5.0397
    -5.0396  -5.0389  -5.0389  -5.0380  -5.0376  -5.0373  -5.0373  -5.0371
    -5.0351  -5.0351  -5.0350  -5.0349  -5.0343  -5.0342  -5.0341  -5.0338
    -5.0335  -5.0335  -5.0320  -5.0319  -5.0319  -5.0309  -5.0296  -5.0296
    -5.0293  -5.0287  -5.0287  -5.0283  -5.0283  -5.0278  -5.0276  -5.0271
    -5.0258  -5.0258  -5.0245  -5.0245  -5.0238  -5.0238  -5.0234  -5.0226
    -5.0223  -5.0218  -5.0218  -5.0211  -5.0209  -5.0205  -5.0204  -5.0198
    -5.0197  -5.0193  -5.0190  -5.0190  -5.0190  -5.0185  -5.0185  -5.0182
    -5.0181  -5.0176  -5.0174  -5.0174  -5.0172  -5.0172  -5.0168  -5.0165
    -5.0164  -5.0164  -5.0160  -5.0160  -5.0156  -5.0156  -5.0155  -5.0152
    -5.0149  -5.0143  -5.0143  -5.0140  -5.0140  -5.0132  -5.0127  -5.0127
    -5.0126  -5.0126  -5.0124  -5.0110  -5.0110  -5.0104  -5.0101  -5.0101
    -5.0092  -5.0092  -5.0091  -5.0086  -5.0077  -5.0076  -5.0072  -5.0062
    -5.0062  -5.0061  -5.0052  -5.0051  -5.0049  -5.0044  -5.0031  -5.0025
    -5.0024  -5.0015  -5.0015  -5.0008  -5.0008  -5.0005  -4.9968  -4.9967
    -4.9955  -4.9955  -4.9949  -4.9940  -4.9940  -4.9937  -4.9937  -4.9927
    -4.9927  -4.9919  -4.9919  -4.9917  -4.9902  -4.9901  -4.9901  -4.9898
    -4.9896  -4.9896  -4.9889  -4.9872  -4.9871  -4.9856  -4.9856  -4.9845
    -4.9834  -4.9834  -4.9832  -4.9830  -4.9830  -4.9829  -4.9822  -4.9821
[...]
Ga            6.4945772488        1.8725294664       15.8548037976
Ga            4.9079764298        4.7359301349        5.2916059410
Ga            4.8763563818        4.6914031965       10.5842540886
Ga            4.8689443917        4.6882081696       15.8548037976
Ga            3.2429650272        7.4982756147        5.2816783127
Ga            3.2443590766        7.4964393240       10.5745296671
Ga            3.2445305261        7.4950149674       15.8608167863
Ga            1.6217575566       10.3025293510        5.2828789697
Ga            1.6219493237       10.3026400678       10.5719736300
Ga            1.6219592765       10.3026458140       15.8592952545
Ga            0.0038063176       13.1086630735        5.2816783127
Ga            0.0029130679       13.1107885010       10.5745296671
Ga            0.0017652637       13.1116491589       15.8608167863
Ga            9.7337856609        1.8753807389        5.2860814905
Ga            9.7338278113        1.8738020344       10.5767836282
Ga            9.7337642293        1.8744689801       15.8563708196
Ga            8.1239260584        4.6903535757        5.2843573010
Ga            8.1137090312        4.6844547723       10.5744182462
Ga            8.1126807826        4.6838611127       15.8587698794
Ga            6.4910178720        7.4920193064        5.2860814905
Ga            6.4896717490        7.4928451620       10.5767836282
Ga            6.4902175501        7.4924566255       15.8563708196
Ga            4.8607409731       10.3009546258        5.2816931707
Ga            4.8638492413       10.3009271553       10.5745627729
Ga            4.8651985017       10.3015183182       15.8608328931
Ga            3.2398855130       13.1083586348        5.2816931707
Ga            3.2414158568       13.1110642092       10.5745627729
Ga            3.2426024492       13.1119371215       15.8608328931
Ga           12.9109145614        1.8812921891        5.2917641437
Ga           12.9662940312        1.8780559968       10.5845014286
Ga           12.9723575481        1.8731489774       15.8551394487
Ga           11.3456477122        4.6899653349        5.2844521982
Ga           11.3541271369        4.6844986200       10.5745501208
Ga           11.3550622993        4.6839267525       15.8589758685
Ga            9.7344506590        7.4806404924        5.2844521982
Ga            9.7339560573        7.4907172470       10.5745501208
Ga            9.7339283868        7.4918130551       15.8589758685
Ga            8.0847017884       10.2405379202        5.2917641437
Ga            8.1095888986       10.2901160441       10.5845014286
Ga            8.1083710536       10.2978207135       15.8551394487
Ga            6.4917941943       13.1142463148        5.2936314933
Ga            6.4741592037       13.1040647483       10.5903083716
Ga            6.4898592229       13.1131291586       15.8528673039
N             1.6223326618        0.9366527280        9.8975965358
N             1.6213885194        0.9361076272       15.1878898329
N            -0.0485221632        3.8197365546        4.6312674332
N            -0.0016067626        3.7636022907        9.9536564906
N            -0.0031925659        3.7707069041       15.1756014928
N            -1.6292642534        6.5831749372        4.6243516256
N            -1.6229120200        6.5613484198        9.9243783073
N            -1.6227818644        6.5620455885       15.2065468584
N            -3.2248051625        9.3467328574        4.6243516256
N            -3.2405313644        9.3631473115        9.9243783073
N            -3.2398625207        9.3629114453       15.2065468584
N            -4.8276419585       12.0974148556        4.6312674332
N            -4.8527979567       12.1661119163        9.9536564906
N            -4.8474380827       12.1611862637       15.1756014928
N             4.9549982722        0.9427966824        4.6309610961
N             4.8823864572        0.9295369601        9.9534696593
N             4.8885347757        0.9275784298       15.1756255405
N             3.2939862875        3.8197538319        4.6309610961
N             3.2461971236        3.7635000166        9.9534696593
N             3.2475751459        3.7698038818       15.1756255405
N             1.6223618142        6.5577318128        4.6352592805
N             1.6223799649        6.5651851862        9.9183958333
N             1.6223845148        6.5613706843       15.2114834550
N             0.0044979409        9.3687999266        4.6290066170
N             0.0009590172        9.3667567281        9.9185882790
N             0.0009213332        9.3667349712       15.2068012755
N            -1.6210265208       12.1754451978        4.6352592805
N            -1.6145626348       12.1717342301        9.9183958333
N            -1.6178638153       12.1736454213       15.2114834550
N             8.1383412901        0.9292501010        4.6241728237
N             8.1159454906        0.9347584788        9.9243390552
N             8.1162748959        0.9343923964       15.2064816382
N             6.5058381030        3.7561459092        4.6337903170
N             6.4917119651        3.7479901797        9.9243131551
N             6.4914400118        3.7478331674       15.2069273852
N             4.8739261129        6.5833830453        4.6241728237
N             4.8674986083        6.5612335250        9.9243390552
N             4.8673462743        6.5617018396       15.2064816382
N             3.2396718142        9.3687069210        4.6290249533
N             3.2437107615        9.3667024054        9.9187630612
N             3.2437474346        9.3666851268       15.2069407815
N             1.6220043323       12.1705891895        4.6290249533
N             1.6222878445       12.1750892783        9.9187630612
N             1.6222912174       12.1751296774       15.2069407815
N            11.3284826372        0.9286969324        4.6239367130
N            11.3514744852        0.9349148158        9.9244551117
N            11.3509946061        0.9345246977       15.2065229231
N             9.7343762584        3.7467085894        4.6286791076
N             9.7338257881        3.7462817394        9.9208845608
N             9.7337904659        3.7473803010       15.2056635165
N             8.1119342219        6.5568606289        4.6286791076
N             8.1112893238        6.5565973327        9.9208845608
N             8.1122230450        6.5560174620       15.2056635165
N             6.4685177284        9.3464030777        4.6239367130
N             6.4853984973        9.3632056605        9.9244551117
N             6.4848207056        9.3629851321       15.2065229231
N             4.8655772474       12.1753453729        4.6354026400
N             4.8595327406       12.1718555752        9.9186699878
N             4.8627655717       12.1737220511       15.2117190821
N            14.5121814724        0.9425597893        4.6311042712
N            14.5848370674        0.9295811975        9.9533849296
N            14.5780765889        0.9275240560       15.1754721845
N            12.9622586652        3.7552081126        4.6336889209
N            12.9755654206        3.7480805486        9.9239869378
N            12.9758008689        3.7479939783       15.2067664803
N            11.3560642244        6.5564252661        4.6284363577
N            11.3562058023        6.5565070062        9.9206970168
N            11.3552454434        6.5559525428       15.2054986263
N             9.7332362285        9.3480390320        4.6336889209
N             9.7337169546        9.3631268023        9.9239869378
N             9.7337597067        9.3633739916       15.2067664803
N             8.0723727321       12.0966357186        4.6311042712
N             8.0974607395       12.1660466056        9.9533849296
N             8.0922989634       12.1612204302       15.1754721845
N            -0.0620265250        1.9094206699        1.8717104437
N            -0.0627965343        1.9084291147        7.3822226308
N            -0.0027655877        1.8747877312       12.5553022039
N            -1.6292280630        4.6911493150        1.9818084152
N            -1.6335347974        4.6975292666        7.2847476282
N            -1.6322819204        4.6897256901       12.5657323463
N            -3.2472507193        7.4914061121        1.9802704235
N            -3.2479773230        7.4909866074        7.2771736199
N            -3.2453575145        7.4924991545       12.5644464241
N            -4.8633329146       10.2927832349        1.9818084152
N            -4.8599610815       10.2858635177        7.2847476282
N            -4.8660927386       10.2908503293       12.5657323463
N            -6.4887798184       13.0408839023        1.8717104437
N            -6.4900235351       13.0407128323        7.3822226308
N            -6.4891423545       13.1095218488       12.5553022039
N             3.3060988111        1.9087797174        1.8724016137
N             3.3063187037        1.9089066725        7.3823013223
N             3.2472750246        1.8748177884       12.5557355618
N             1.6227318724        4.6764118787        1.9886273907
N             1.6224339559        4.6836587123        7.2892865749
N             1.6223883433        4.6960758227       12.5664442597
N             0.0017058273        7.4938536865        1.9869171444
N            -0.0019923060        7.4955909530        7.2751210272
N            -0.0000972075        7.4939897271       12.5644292701
N            -1.6206527844       10.3038612302        1.9869171444
N            -1.6209973341       10.2997899195        7.2751210272
N            -1.6214364872       10.3022317359       12.5644292701
N            -3.2501159411       13.1164318694        1.9886273907
N            -3.2439889573       13.1125504493        7.2892865749
N            -3.2332582306       13.1063023925       12.5664442597
N             6.4998248614        1.8757358468        1.9816959440
N             6.5074699485        1.8760908130        7.2847974968
N             6.4999956578        1.8788175792       12.5658906582
N             4.8743450049        4.6911495452        1.9816959440
N             4.8784749581        4.6975929017        7.2847974968
N             4.8770992616        4.6897565930       12.5658906582
N             3.2428373835        7.4939340009        1.9867087094
N             3.2466778622        7.4957329848        7.2748360978
N             3.2448493192        7.4940973596       12.5642619565
N             1.6224265960       10.3029156211        1.9850150622
N             1.6224232314       10.3029136785        7.2745834251
N             1.6224194477       10.3029114940       12.5628090976
N            -0.0000174520       13.1107233377        1.9867087094
N             0.0034607530       13.1131497979        7.2748360978
N             0.0011299886       13.1123840458       12.5642619565
N             9.7334411488        1.8764653211        1.9803407313
N             9.7332264716        1.8772731538        7.2773499112
N             9.7336077519        1.8743036066       12.5645841192
N             8.1147831911        4.6850749388        1.9842418670
N             8.1155717236        4.6855301982        7.2759798718
N             8.1132791763        4.6842065954       12.5632499501
N             6.4917848918        7.4911786591        1.9803407313
N             6.4923771568        7.4905888268        7.2773499112
N             6.4899960936        7.4924037989       12.5645841192
N             4.8651533731       10.3039916581        1.9866927164
N             4.8653262459       10.2994805285        7.2748690729
N             4.8659902470       10.3021750366       12.5642978816
N             3.2447218600       13.1106613691        1.9866927164
N             3.2409015436       13.1130666461        7.2748690729
N             3.2435670566       13.1122944339       12.5642978816
N            12.9676234324        1.8755457165        1.9820069312
N            12.9590221670        1.8758485741        7.2849297958
N            12.9675092755        1.8787959802       12.5660715256
N            11.3527813929        4.6850612788        1.9844374815
N            11.3520405317        4.6855397984        7.2760542502
N            11.3541176371        4.6842628446       12.5633651627
N             9.7337704621        7.4892704691        1.9844374815
N             9.7338144417        7.4883896047        7.2760542502
N             9.7337471199        7.4908269076       12.5633651627
N             8.1080796326       10.2925224794        1.9820069312
N             8.1040412824       10.2849221363        7.2849297958
N             8.1108373651       10.2907984849       12.5660715256
N             6.4952680205       13.1162519293        1.9887681854
N             6.4876384774       13.1118470105        7.2889679637
N             6.4778575318       13.1061999790       12.5665167540
Ga            1.6214316715        0.9361325411        4.5924070450



     Writing config-only to output data dir ./GaN.save/
     NEW-OLD atomic charge density approx. for the potential

     Check: negative core charge=   -0.000003


     -----------------------------------------------
     Non-local corr. energy    =      82.12458952 Ry
     -----------------------------------------------


     total cpu time spent up to now is   159466.9 secs

     Self-consistent Calculation

     iteration #  1     ecut=    70.00 Ry     beta= 0.70
     Davidson diagonalization with overlap

---- Real-time Memory Report at c_bands before calling an iterative solver
          3670 MiB given to the printing process from OS
             0 MiB allocation reported by mallinfo(arena+hblkhd)
       1684318 MiB available memory on the node where the printing process lives
------------------
     ethr =  1.00E-06,  avg # of iterations =  3.0


     -----------------------------------------------
     Non-local corr. energy    =      82.12440043 Ry
     -----------------------------------------------


     total cpu time spent up to now is   160166.9 secs

     total energy              =  -47097.48844237 Ry
     estimated scf accuracy    <       0.00570120 Ry

     iteration #  2     ecut=    70.00 Ry     beta= 0.70
     Davidson diagonalization with overlap

---- Real-time Memory Report at c_bands before calling an iterative solver
          3670 MiB given to the printing process from OS
             0 MiB allocation reported by mallinfo(arena+hblkhd)
       1693067 MiB available memory on the node where the printing process lives
------------------
     ethr =  2.11E-07,  avg # of iterations = 15.2


     -----------------------------------------------
     Non-local corr. energy    =      82.12434891 Ry
     -----------------------------------------------


     total cpu time spent up to now is   162543.7 secs

     total energy              =  -47097.48854095 Ry
     estimated scf accuracy    <       0.00456615 Ry

     iteration #  3     ecut=    70.00 Ry     beta= 0.70
     Davidson diagonalization with overlap

---- Real-time Memory Report at c_bands before calling an iterative solver
          3670 MiB given to the printing process from OS
             0 MiB allocation reported by mallinfo(arena+hblkhd)
       1674383 MiB available memory on the node where the printing process lives
------------------
     ethr =  1.69E-07,  avg # of iterations = 17.5


     -----------------------------------------------
     Non-local corr. energy    =      82.12440190 Ry
     -----------------------------------------------


     total cpu time spent up to now is   165490.7 secs

     total energy              =  -47097.48919951 Ry
     estimated scf accuracy    <       0.00998760 Ry

     iteration #  4     ecut=    70.00 Ry     beta= 0.70
     Davidson diagonalization with overlap

---- Real-time Memory Report at c_bands before calling an iterative solver
          3670 MiB given to the printing process from OS
             0 MiB allocation reported by mallinfo(arena+hblkhd)
       1674373 MiB available memory on the node where the printing process lives
------------------
     ethr =  1.69E-07,  avg # of iterations = 17.5


     -----------------------------------------------
     Non-local corr. energy    =      82.12443353 Ry
     -----------------------------------------------


     total cpu time spent up to now is   167938.2 secs

     total energy              =  -47097.49017830 Ry
     estimated scf accuracy    <       0.00053027 Ry

     iteration #  5     ecut=    70.00 Ry     beta= 0.70
     Davidson diagonalization with overlap

---- Real-time Memory Report at c_bands before calling an iterative solver
          3670 MiB given to the printing process from OS
             0 MiB allocation reported by mallinfo(arena+hblkhd)
       1674331 MiB available memory on the node where the printing process lives
------------------
     ethr =  1.96E-08,  avg # of iterations = 17.5


     -----------------------------------------------
     Non-local corr. energy    =      82.12445568 Ry
     -----------------------------------------------


     total cpu time spent up to now is   169701.0 secs

     total energy              =  -47097.49020818 Ry
     estimated scf accuracy    <       0.00040167 Ry

     iteration #  6     ecut=    70.00 Ry     beta= 0.70
     Davidson diagonalization with overlap

---- Real-time Memory Report at c_bands before calling an iterative solver
          3670 MiB given to the printing process from OS
             0 MiB allocation reported by mallinfo(arena+hblkhd)
       1674275 MiB available memory on the node where the printing process lives
------------------
     ethr =  1.48E-08,  avg # of iterations =  1.0


     -----------------------------------------------
     Non-local corr. energy    =      82.12455181 Ry
     -----------------------------------------------


     total cpu time spent up to now is   169969.4 secs

     total energy              =  -47097.49027384 Ry
     estimated scf accuracy    <       0.00032930 Ry

     iteration #  7     ecut=    70.00 Ry     beta= 0.70
     Davidson diagonalization with overlap

---- Real-time Memory Report at c_bands before calling an iterative solver
          3670 MiB given to the printing process from OS
             0 MiB allocation reported by mallinfo(arena+hblkhd)
       1674187 MiB available memory on the node where the printing process lives
------------------
     ethr =  1.22E-08,  avg # of iterations =  3.2


     -----------------------------------------------
     Non-local corr. energy    =      82.12462227 Ry
     -----------------------------------------------


     total cpu time spent up to now is   170377.3 secs

     total energy              =  -47097.49030323 Ry
     estimated scf accuracy    <       0.00012834 Ry

     iteration #  8     ecut=    70.00 Ry     beta= 0.70
     Davidson diagonalization with overlap

---- Real-time Memory Report at c_bands before calling an iterative solver
          3670 MiB given to the printing process from OS
             0 MiB allocation reported by mallinfo(arena+hblkhd)
       1674078 MiB available memory on the node where the printing process lives
------------------
     ethr =  4.74E-09,  avg # of iterations = 16.2


     -----------------------------------------------
     Non-local corr. energy    =      82.12463671 Ry
     -----------------------------------------------


     total cpu time spent up to now is   171972.2 secs

     total energy              =  -47097.49031233 Ry
     estimated scf accuracy    <       0.00003222 Ry

     iteration #  9     ecut=    70.00 Ry     beta= 0.70
     Davidson diagonalization with overlap

---- Real-time Memory Report at c_bands before calling an iterative solver
          3670 MiB given to the printing process from OS
             0 MiB allocation reported by mallinfo(arena+hblkhd)
       1673944 MiB available memory on the node where the printing process lives
------------------
