
     Program PWSCF v.7.1 starts on 28Mar2024 at  6:38:12 

     This program is part of the open-source Quantum ESPRESSO suite
     for quantum simulation of materials; please cite
         "P. Giannozzi et al., J. Phys.:Condens. Matter 21 395502 (2009);
         "P. Giannozzi et al., J. Phys.:Condens. Matter 29 465901 (2017);
         "P. Giannozzi et al., J. Chem. Phys. 152 154105 (2020);
          URL http://www.quantum-espresso.org", 
     in publications or presentations arising from this work. More details at
     http://www.quantum-espresso.org/quote

     Parallel version (MPI & OpenMP), running on      20 processor cores
     Number of MPI processes:                20
     Threads/MPI process:                     1

     MPI processes distributed on     1 nodes
     1969233 MiB available memory on the printing compute node when the environment starts
 
     Reading input from espresso.pwi
Warning: card &CELL ignored
Warning: card    CELL_DYNAMICS    = 'BFGS' ignored
Warning: card / ignored

     Current dimensions of program PWSCF are:
     Max number of different atomic species (ntypx) = 10
     Max number of k-points (npk) =  40000
     Max angular momentum in pseudopotentials (lmaxx) =  4
     file Pb.pbe-dn-kjpaw_psl.1.0.0.UPF: wavefunction(s)  6S 6P 5D renormalized
     file I.pbe-dn-kjpaw_psl.1.0.0.UPF: wavefunction(s)  5S 5P renormalized

     **************************************************************************
     Initializing libbeef V0.1.2 with the BEEF-vdW functional.
     Citation: Wellendorff et al., PRB 85, 235149 (2012).
     **************************************************************************


     IMPORTANT: XC functional enforced from input :
     Exchange-correlation= BEEF-VDW
                           (   1   4  43  14   2   0   0)
     Any further DFT definition will be discarded
     Please, verify this is what you really want

 
     R & G space division:  proc/nbgrp/npool/nimage =      20
     Subspace diagonalization in iterative solution of the eigenvalue problem:
     a serial algorithm will be used

 
     Parallelization info
     --------------------
     sticks:   dense  smooth     PW     G-vecs:    dense   smooth      PW
     Min         381     306     80                42326    30292    4074
     Max         383     307     81                42331    30298    4079
     Sum        7639    6121   1615               846533   605897   81527
 
     Using Slab Decomposition
 


     bravais-lattice index     =            4
     lattice parameter (alat)  =      17.8060  a.u.
     unit-cell volume          =    7656.2263 (a.u.)^3
     number of atoms/cell      =           24
     number of atomic types    =            2
     number of electrons       =       386.00
     number of Kohn-Sham states=          232
     kinetic-energy cutoff     =      70.0000  Ry
     charge density cutoff     =     350.0000  Ry
     scf convergence threshold =      1.0E-07
     mixing beta               =       0.7000
     number of iterations used =            8  plain     mixing
     Exchange-correlation= BEEF-VDW
                           (   1   4  43  14   2   0   0)

     celldm(1)=  17.806016  celldm(2)=   0.000000  celldm(3)=   1.565971
     celldm(4)=   0.000000  celldm(5)=   0.000000  celldm(6)=   0.000000

     crystal axes: (cart. coord. in units of alat)
               a(1) = (   1.000000   0.000000   0.000000 )  
               a(2) = (  -0.500000   0.866025   0.000000 )  
               a(3) = (   0.000000   0.000000   1.565971 )  

     reciprocal axes: (cart. coord. in units 2 pi/alat)
               b(1) = (  1.000000  0.577350 -0.000000 )  
               b(2) = (  0.000000  1.154701  0.000000 )  
               b(3) = (  0.000000 -0.000000  0.638581 )  


     PseudoPot. # 1 for Pb read from file:
     /trace/group/acmegroup/atimmins/packages/espresso/pseudo/psl_1.0.0/pslibrary.1.0.0/pbe/PSEUDOPOTENTIALS/Pb.pbe-dn-kjpaw_psl.1.0.0.UPF
     MD5 check sum: 39ab5b8a6bbd56b7735ad9f188aac93a
     Pseudo is Projector augmented-wave + core cor, Zval = 14.0
     Generated using 'atomic' code by A. Dal Corso  v.7.1
     Shape of augmentation charge: PSQ
     Using radial grid of 1281 points,  6 beta functions with: 
                l(1) =   0
                l(2) =   0
                l(3) =   1
                l(4) =   1
                l(5) =   2
                l(6) =   2
     Q(r) pseudized with 0 coefficients 


     PseudoPot. # 2 for I  read from file:
     /trace/group/acmegroup/atimmins/packages/espresso/pseudo/psl_1.0.0/pslibrary.1.0.0/pbe/PSEUDOPOTENTIALS/I.pbe-dn-kjpaw_psl.1.0.0.UPF
     MD5 check sum: bfa8781bc1224d19af3f3980e3fab11e
     Pseudo is Projector augmented-wave + core cor, Zval = 17.0
     Generated using 'atomic' code by A. Dal Corso  v.7.1
     Shape of augmentation charge: PSQ
     Using radial grid of 1247 points,  6 beta functions with: 
                l(1) =   0
                l(2) =   0
                l(3) =   1
                l(4) =   1
                l(5) =   2
                l(6) =   2
     Q(r) pseudized with 0 coefficients 


     atomic species   valence    mass     pseudopotential
        Pb            14.00   207.20000     Pb( 1.00)
        I             17.00   126.90447     I ( 1.00)

     No symmetry found


                                    s                        frac. trans.

      isym =  1     identity                                     

 cryst.   s( 1) = (     1          0          0      )
                  (     0          1          0      )
                  (     0          0          1      )

 cart.    s( 1) = (  1.0000000  0.0000000  0.0000000 )
                  (  0.0000000  1.0000000  0.0000000 )
                  (  0.0000000  0.0000000  1.0000000 )


     point group C_1 (1)    
     there are  1 classes
     the character table:

       E    
A      1.00

     the symmetry operations in each class and the name of the first element:

     E        1
          identity                                               

   Cartesian axes

     site n.     atom                  positions (alat units)
         1           Pb  tau(   1) = (   0.2500068   0.4329836   0.7829793  )
         2           Pb  tau(   2) = (   0.0000153   0.8659852   1.5659567  )
         3           Pb  tau(   3) = (   0.0000051   0.8659943   0.7829710  )
         4           Pb  tau(   4) = (   0.7500170   0.4329726   1.5659715  )
         5           Pb  tau(   5) = (   0.7500068   0.4329816   0.7829858  )
         6           Pb  tau(   6) = (   0.5000153   0.8659833   1.5659633  )
         7           Pb  tau(   7) = (   0.5000051   0.8659923   0.7829776  )
         8           I   tau(   8) = (   0.2500107   0.1443099   0.5818649  )
         9           I   tau(   9) = (   0.2500209   0.1443009   1.3648506  )
        10           I   tau(  10) = (   0.0000091   0.5773207   0.5818567  )
        11           I   tau(  11) = (   0.0000193   0.5773116   1.3648424  )
        12           I   tau(  12) = (   0.7500107   0.1443080   0.5818714  )
        13           I   tau(  13) = (   0.7500209   0.1442990   1.3648571  )
        14           I   tau(  14) = (   0.5000091   0.5773187   0.5818632  )
        15           I   tau(  15) = (   0.5000193   0.5773097   1.3648489  )
        16           I   tau(  16) = (  -0.0000034   0.2886595   0.2011110  )
        17           I   tau(  17) = (   0.0000068   0.2886504   0.9840967  )
        18           I   tau(  18) = (  -0.2500051   0.7216702   0.2011027  )
        19           I   tau(  19) = (  -0.2499949   0.7216611   0.9840884  )
        20           I   tau(  20) = (   0.4999966   0.2886575   0.2011175  )
        21           I   tau(  21) = (   0.5000068   0.2886485   0.9841032  )
        22           I   tau(  22) = (   0.2499949   0.7216682   0.2011092  )
        23           I   tau(  23) = (   0.2500051   0.7216592   0.9840949  )
        24           I   tau(  24) = (   0.2500170   0.4329745   1.5659650  )

   Crystallographic axes

     site n.     atom                  positions (cryst. coord.)
         1           Pb  tau(   1) = (  0.4999900  0.4999663  0.4999959  )
         2           Pb  tau(   2) = (  0.4999921  0.9999536  0.9999906  )
         3           Pb  tau(   3) = (  0.4999871  0.9999640  0.4999906  )
         4           Pb  tau(   4) = (  0.9999938  0.4999537  1.0000001  )
         5           Pb  tau(   5) = (  0.9999888  0.4999641  0.5000001  )
         6           Pb  tau(   6) = (  0.9999910  0.9999514  0.9999948  )
         7           Pb  tau(   7) = (  0.9999860  0.9999618  0.4999948  )
         8           I   tau(   8) = (  0.3333281  0.1666348  0.3715680  )
         9           I   tau(   9) = (  0.3333331  0.1666243  0.8715680  )
        10           I   tau(  10) = (  0.3333253  0.6666325  0.3715628  )
        11           I   tau(  11) = (  0.3333303  0.6666220  0.8715628  )
        12           I   tau(  12) = (  0.8333270  0.1666326  0.3715722  )
        13           I   tau(  13) = (  0.8333320  0.1666221  0.8715722  )
        14           I   tau(  14) = (  0.8333242  0.6666303  0.3715669  )
        15           I   tau(  15) = (  0.8333292  0.6666198  0.8715669  )
        16           I   tau(  16) = (  0.1666542  0.3333152  0.1284257  )
        17           I   tau(  17) = (  0.1666592  0.3333048  0.6284257  )
        18           I   tau(  18) = (  0.1666514  0.8333129  0.1284204  )
        19           I   tau(  19) = (  0.1666564  0.8333025  0.6284204  )
        20           I   tau(  20) = (  0.6666531  0.3333130  0.1284299  )
        21           I   tau(  21) = (  0.6666581  0.3333026  0.6284299  )
        22           I   tau(  22) = (  0.6666503  0.8333107  0.1284246  )
        23           I   tau(  23) = (  0.6666553  0.8333003  0.6284246  )
        24           I   tau(  24) = (  0.4999949  0.4999559  0.9999959  )

     number of k points=     4  Gaussian smearing, width (Ry)=  0.0100
                       cart. coord. in units 2pi/alat
        k(    1) = (   0.0000000   0.0000000   0.0000000), wk =   0.5000000
        k(    2) = (   0.0000000  -0.5773503   0.0000000), wk =   0.5000000
        k(    3) = (   0.5000000  -0.2886751   0.0000000), wk =   0.5000000
        k(    4) = (  -0.5000000  -0.2886751   0.0000000), wk =   0.5000000

                       cryst. coord.
        k(    1) = (   0.0000000   0.0000000   0.0000000), wk =   0.5000000
        k(    2) = (   0.0000000  -0.5000000   0.0000000), wk =   0.5000000
        k(    3) = (   0.5000000  -0.5000000   0.0000000), wk =   0.5000000
        k(    4) = (  -0.5000000  -0.0000000   0.0000000), wk =   0.5000000

     Dense  grid:   846533 G-vectors     FFT dimensions: ( 108, 108, 180)

     Smooth grid:   605897 G-vectors     FFT dimensions: (  96,  96, 150)

     Dynamical RAM for                 wfc:      13.40 MB

     Dynamical RAM for     wfc (w. buffer):      67.01 MB

     Dynamical RAM for           str. fact:       1.29 MB

     Dynamical RAM for           local pot:       0.00 MB

     Dynamical RAM for          nlocal pot:      24.96 MB

     Dynamical RAM for                qrad:       3.00 MB

     Dynamical RAM for          rho,v,vnew:       4.34 MB

     Dynamical RAM for               rhoin:       1.45 MB

     Dynamical RAM for            rho*nmix:      10.33 MB

     Dynamical RAM for           G-vectors:       2.65 MB

     Dynamical RAM for          h,s,v(r/c):      39.42 MB

     Dynamical RAM for          <psi|beta>:       1.53 MB

     Dynamical RAM for                 psi:      53.61 MB

     Dynamical RAM for                hpsi:      53.61 MB

     Dynamical RAM for                spsi:      53.61 MB

     Dynamical RAM for      wfcinit/wfcrot:      28.04 MB

     Dynamical RAM for           addusdens:     131.12 MB

     Dynamical RAM for          addusforce:     152.18 MB

     Dynamical RAM for         addusstress:     129.83 MB

     Estimated static dynamical RAM per process >     110.65 MB

     Estimated max dynamical RAM per process >     322.76 MB

     Estimated total dynamical RAM >       6.30 GB

     Atomic positions and unit cell read from directory:
     ./PbI2.save/
     Atomic positions from file used, from input discarded
 

     Check: negative core charge=   -0.000002

     The initial density is read from file :
     ./PbI2.save/charge-density



     %%%%%%%%%%%%%%%%%%%%%%%%%%%%%%%%%%%%%%%%%%%%%%%%%%%%%%%%%%%%%%%%%%%%%%%%
     %                                                                      %
     % You are using vdW-DF, which was implemented by the Thonhauser group. %
     % Please cite the following two papers that made this development      %
     % possible and the two reviews that describe the various versions:     %
     %                                                                      %
     %   T. Thonhauser et al., PRL 115, 136402 (2015).                      %
     %   T. Thonhauser et al., PRB 76, 125112 (2007).                       %
     %   K. Berland et al., Rep. Prog. Phys. 78, 066501 (2015).             %
     %   D.C. Langreth et al., J. Phys.: Condens. Matter 21, 084203 (2009). %
     %                                                                      %
     % If you are calculating stress with vdW-DF, please also cite:         %
     %                                                                      %
     %   R. Sabatini et al., J. Phys.: Condens. Matter 24, 424209 (2012).   %
     %                                                                      %
     %%%%%%%%%%%%%%%%%%%%%%%%%%%%%%%%%%%%%%%%%%%%%%%%%%%%%%%%%%%%%%%%%%%%%%%%

     %%%%%%%%%%%%%%%%%%%%%%%%%%%%%%%%%%%%%%%%%%%%%%%%%%%%%%%%%%%%%%%%%%%%%%%%
     %                                                                      %
     %  vdW-DF NEWS:                                                        %
     %                                                                      %
     %  * vdW-DF3 is now available. DOI: 10.1021/acs.jctc.0c00471           %
     %    use with input_dft = 'vdW-DF3-opt1' or 'vdW-DF3-opt2'             %
     %                                                                      %
     %  * Unscreened and range-separated vdW-DF hybrid functionals          %
     %    DOI: 10.1063/1.4986522 and 10.1088/1361-648X/ac2ad2               %
     %    use with input_dft = 'vdW-DF-cx0' (etc) and 'vdW-DF-ahcx'         %
     %                                                                      %
     %%%%%%%%%%%%%%%%%%%%%%%%%%%%%%%%%%%%%%%%%%%%%%%%%%%%%%%%%%%%%%%%%%%%%%%%


     Carrying out vdW-DF run using the following parameters:
     Nqs    =  20  Npoints =  1024  r_max =  100.000
     q_mesh =  0.00001000  0.04494208  0.09755937  0.15916263
               0.23128650  0.31572767  0.41458969  0.53033537
               0.66584808  0.82450364  1.01025438  1.22772762
               1.48234092  1.78043706  2.12944203  2.53805004
               3.01644009  3.57652955  4.23227104  5.00000000


     -----------------------------------------------
     Non-local corr. energy    =      11.80956621 Ry
     -----------------------------------------------

     Starting wfcs from file
     Checking if some PAW data can be deallocated... 
       PAW data deallocated on   16 nodes for type:  1
       PAW data deallocated on    3 nodes for type:  2

     total cpu time spent up to now is        7.8 secs

     Self-consistent Calculation

     iteration #  1     ecut=    70.00 Ry     beta= 0.70
     Davidson diagonalization with overlap

---- Real-time Memory Report at c_bands before calling an iterative solver
           358 MiB given to the printing process from OS
             0 MiB allocation reported by mallinfo(arena+hblkhd)
       1965428 MiB available memory on the node where the printing process lives
------------------
     ethr =  1.00E-05,  avg # of iterations =  2.0

     Threshold (ethr) on eigenvalues was too large:
     Diagonalizing with lowered threshold

     Davidson diagonalization with overlap

---- Real-time Memory Report at c_bands before calling an iterative solver
           457 MiB given to the printing process from OS
             0 MiB allocation reported by mallinfo(arena+hblkhd)
       1964936 MiB available memory on the node where the printing process lives
------------------
     ethr =  3.20E-12,  avg # of iterations = 13.8


     -----------------------------------------------
     Non-local corr. energy    =      11.80956527 Ry
     -----------------------------------------------


     total cpu time spent up to now is       49.0 secs

     End of self-consistent calculation

          k = 0.0000 0.0000 0.0000 ( 75645 PWs)   bands (ev):

   -42.7613 -42.7612 -42.7391 -42.7388 -42.7362 -41.3760 -41.3757 -41.3755
   -41.3752 -41.3744 -41.3741 -41.3503 -41.3500 -41.3498 -41.3495 -41.3488
   -41.3485 -41.3468 -41.3465 -41.3463 -41.3461 -41.3453 -41.3450 -41.2645
   -41.2643 -41.2641 -41.2639 -41.2639 -41.2638 -41.2635 -41.2634 -41.2632
   -41.2630 -41.2626 -41.2624 -40.8434 -40.8434 -40.8434 -40.8434 -40.8398
   -40.8397 -40.8397 -40.8397 -40.8381 -40.8381 -40.7334 -40.7334 -40.7322
   -40.7322 -40.7322 -40.7322 -40.7271 -40.7271 -40.7270 -40.7270 -40.6063
   -40.6062 -40.6062 -40.6062 -40.6062 -40.6061 -40.6056 -40.6056 -40.6056
   -40.6056 -40.6056 -40.6055 -40.6038 -40.6038 -40.6037 -40.6037 -40.6037
   -40.6037 -40.6036 -40.6036 -40.6035 -40.6035 -40.6035 -40.6035 -40.6033
   -40.6032 -40.6032 -40.6032 -40.6032 -40.6031 -13.0917 -13.0915 -13.0814
   -13.0755 -13.0698 -13.0695 -13.0693 -13.0609 -13.0608 -13.0545 -13.0544
   -13.0543 -13.0506 -13.0450 -13.0448 -12.7888 -12.7744 -12.7744 -12.7659
   -12.7659 -12.7626 -12.7588 -12.7588 -12.7556 -12.7527 -12.7527 -12.7498
   -12.7480 -12.7473 -12.7473 -12.7129 -12.7129 -12.7014 -12.6990 -12.6990
    -9.3288  -8.0631  -8.0472  -7.9966  -7.9957  -7.9266  -7.9259  -7.8886
    -7.6746  -7.5536  -7.5289  -7.4409  -7.4250  -7.4250  -7.3977  -7.3269
    -7.3269  -3.7985  -3.7983  -3.4567  -3.4567  -3.4381  -3.4167  -2.9739
     0.1852   0.1858   0.1918   1.1207   1.1207   1.1498   1.3065   1.3065
     1.3492   1.6089   1.6093   1.7305   1.8405   2.0490   2.1356   2.1357
     2.1514   2.1540   2.1795   2.1795   2.2185   2.2188   2.4197   2.4198
     2.4389   2.5011   2.5015   2.5060   2.5356   2.5357   2.6647   2.7541
     2.7543   2.8966   2.8966   2.9090   2.9220   2.9803   2.9804   3.0569
     3.0794   3.0794   3.1128   3.1128   3.2230   3.2401   3.2403   3.4475
     3.4680   3.7291   3.7294   6.0990   6.2732   6.5247   6.5249   6.8708
     6.8709   6.8877   7.0276   7.0276   7.0759   7.0761   7.0838   7.1300
     7.4096   7.4097   7.5946   7.5946   7.6687   8.0051   8.0449   8.0449
     9.0415   9.0415   9.0616   9.7529   9.7659   9.7660   9.7755  10.3507
    10.9213  11.0345  11.0346  11.1257  11.1531  11.1531  11.3915  11.4641

     occupation numbers 
     1.0000   1.0000   1.0000   1.0000   1.0000   1.0000   1.0000   1.0000
     1.0000   1.0000   1.0000   1.0000   1.0000   1.0000   1.0000   1.0000
     1.0000   1.0000   1.0000   1.0000   1.0000   1.0000   1.0000   1.0000
     1.0000   1.0000   1.0000   1.0000   1.0000   1.0000   1.0000   1.0000
     1.0000   1.0000   1.0000   1.0000   1.0000   1.0000   1.0000   1.0000
     1.0000   1.0000   1.0000   1.0000   1.0000   1.0000   1.0000   1.0000
     1.0000   1.0000   1.0000   1.0000   1.0000   1.0000   1.0000   1.0000
     1.0000   1.0000   1.0000   1.0000   1.0000   1.0000   1.0000   1.0000
     1.0000   1.0000   1.0000   1.0000   1.0000   1.0000   1.0000   1.0000
     1.0000   1.0000   1.0000   1.0000   1.0000   1.0000   1.0000   1.0000
     1.0000   1.0000   1.0000   1.0000   1.0000   1.0000   1.0000   1.0000
     1.0000   1.0000   1.0000   1.0000   1.0000   1.0000   1.0000   1.0000
     1.0000   1.0000   1.0000   1.0000   1.0000   1.0000   1.0000   1.0000
     1.0000   1.0000   1.0000   1.0000   1.0000   1.0000   1.0000   1.0000
     1.0000   1.0000   1.0000   1.0000   1.0000   1.0000   1.0000   1.0000
     1.0000   1.0000   1.0000   1.0000   1.0000   1.0000   1.0000   1.0000
     1.0000   1.0000   1.0000   1.0000   1.0000   1.0000   1.0000   1.0000
     1.0000   1.0000   1.0000   1.0000   1.0000   1.0000   1.0000   1.0000
     1.0000   1.0000   1.0000   1.0000   1.0000   1.0000   1.0000   1.0000
     1.0000   1.0000   1.0000   1.0000   1.0000   1.0000   1.0000   1.0000
     1.0000   1.0000   1.0000   1.0000   1.0000   1.0000   1.0000   1.0000
     1.0000   1.0000   1.0000   1.0000   1.0000   1.0000   1.0000   1.0000
     1.0000   1.0000   1.0000   1.0000   1.0000   1.0000   1.0000   1.0000
     1.0000   1.0000   1.0000   1.0000   1.0000   1.0000   1.0000   0.9934
     0.9882   0.3267   0.3259   0.0000   0.0000   0.0000   0.0000   0.0000
     0.0000   0.0000   0.0000   0.0000   0.0000   0.0000   0.0000   0.0000
     0.0000   0.0000   0.0000   0.0000   0.0000   0.0000   0.0000   0.0000
     0.0000   0.0000   0.0000   0.0000   0.0000   0.0000   0.0000   0.0000
     0.0000   0.0000   0.0000   0.0000   0.0000   0.0000   0.0000   0.0000

          k = 0.0000-0.5774 0.0000 ( 75730 PWs)   bands (ev):

   -42.7613 -42.7612 -42.7391 -42.7388 -42.7362 -41.3760 -41.3757 -41.3755
   -41.3752 -41.3744 -41.3741 -41.3503 -41.3500 -41.3498 -41.3495 -41.3488
   -41.3485 -41.3468 -41.3465 -41.3463 -41.3461 -41.3453 -41.3450 -41.2645
   -41.2643 -41.2640 -41.2639 -41.2639 -41.2638 -41.2635 -41.2634 -41.2632
   -41.2630 -41.2626 -41.2624 -40.8434 -40.8434 -40.8434 -40.8434 -40.8398
   -40.8397 -40.8397 -40.8397 -40.8381 -40.8381 -40.7334 -40.7334 -40.7322
   -40.7322 -40.7322 -40.7322 -40.7271 -40.7271 -40.7270 -40.7270 -40.6063
   -40.6062 -40.6062 -40.6062 -40.6062 -40.6062 -40.6056 -40.6056 -40.6056
   -40.6056 -40.6056 -40.6055 -40.6038 -40.6037 -40.6037 -40.6037 -40.6037
   -40.6037 -40.6036 -40.6036 -40.6035 -40.6035 -40.6035 -40.6035 -40.6032
   -40.6032 -40.6032 -40.6032 -40.6032 -40.6031 -13.0911 -13.0857 -13.0806
   -13.0749 -13.0718 -13.0695 -13.0668 -13.0621 -13.0596 -13.0571 -13.0555
   -13.0539 -13.0511 -13.0491 -13.0452 -12.7818 -12.7746 -12.7695 -12.7678
   -12.7649 -12.7602 -12.7585 -12.7575 -12.7573 -12.7561 -12.7560 -12.7513
   -12.7484 -12.7482 -12.7466 -12.7152 -12.7141 -12.7018 -12.6996 -12.6992
    -9.3127  -8.1952  -8.0462  -8.0105  -7.9411  -7.9133  -7.8244  -7.7209
    -7.6940  -7.6443  -7.6366  -7.5009  -7.4430  -7.3951  -7.3887  -7.3408
    -7.3089  -3.7872  -3.6506  -3.5234  -3.4455  -3.4337  -3.2034  -3.1690
     0.2262   0.3031   0.4409   1.0904   1.2154   1.3107   1.4152   1.4537
     1.5128   1.5591   1.6028   1.6031   1.6781   1.6875   1.7537   1.7712
     1.9615   2.0643   2.0853   2.0942   2.1226   2.2118   2.2947   2.3012
     2.4027   2.4209   2.4246   2.4540   2.4554   2.4973   2.6182   2.6225
     2.6880   2.8201   2.8232   2.8320   2.9599   3.0093   3.0211   3.0476
     3.0952   3.1224   3.1316   3.1390   3.4200   3.4317   3.4693   3.4993
     3.6372   3.8187   3.8384   6.4142   6.7487   6.7741   6.8817   6.9380
     7.0217   7.0773   7.1388   7.2214   7.2447   7.3543   7.3590   7.4186
     7.4537   7.4984   7.5581   7.5604   7.5609   7.5681   7.8104   7.8494
     9.5089   9.8421   9.9326  10.0778  10.0969  10.1001  10.1338  10.2652
    10.5467  10.5697  10.7065  10.7359  10.7816  10.9542  11.1165  11.1441

     occupation numbers 
     1.0000   1.0000   1.0000   1.0000   1.0000   1.0000   1.0000   1.0000
     1.0000   1.0000   1.0000   1.0000   1.0000   1.0000   1.0000   1.0000
     1.0000   1.0000   1.0000   1.0000   1.0000   1.0000   1.0000   1.0000
     1.0000   1.0000   1.0000   1.0000   1.0000   1.0000   1.0000   1.0000
     1.0000   1.0000   1.0000   1.0000   1.0000   1.0000   1.0000   1.0000
     1.0000   1.0000   1.0000   1.0000   1.0000   1.0000   1.0000   1.0000
     1.0000   1.0000   1.0000   1.0000   1.0000   1.0000   1.0000   1.0000
     1.0000   1.0000   1.0000   1.0000   1.0000   1.0000   1.0000   1.0000
     1.0000   1.0000   1.0000   1.0000   1.0000   1.0000   1.0000   1.0000
     1.0000   1.0000   1.0000   1.0000   1.0000   1.0000   1.0000   1.0000
     1.0000   1.0000   1.0000   1.0000   1.0000   1.0000   1.0000   1.0000
     1.0000   1.0000   1.0000   1.0000   1.0000   1.0000   1.0000   1.0000
     1.0000   1.0000   1.0000   1.0000   1.0000   1.0000   1.0000   1.0000
     1.0000   1.0000   1.0000   1.0000   1.0000   1.0000   1.0000   1.0000
     1.0000   1.0000   1.0000   1.0000   1.0000   1.0000   1.0000   1.0000
     1.0000   1.0000   1.0000   1.0000   1.0000   1.0000   1.0000   1.0000
     1.0000   1.0000   1.0000   1.0000   1.0000   1.0000   1.0000   1.0000
     1.0000   1.0000   1.0000   1.0000   1.0000   1.0000   1.0000   1.0000
     1.0000   1.0000   1.0000   1.0000   1.0000   1.0000   1.0000   1.0000
     1.0000   1.0000   1.0000   1.0000   1.0000   1.0000   1.0000   1.0000
     1.0000   1.0000   1.0000   1.0000   1.0000   1.0000   1.0000   1.0000
     1.0000   1.0000   1.0000   1.0000   1.0000   1.0000   1.0000   1.0000
     1.0000   1.0000   1.0000   1.0000   1.0000   1.0000   1.0000   1.0000
     1.0000   1.0000   1.0000   1.0000   0.9971   0.9959   0.9878   0.9738
     0.6937   0.0838   0.0565   0.0000   0.0000   0.0000   0.0000   0.0000
     0.0000   0.0000   0.0000   0.0000   0.0000   0.0000   0.0000   0.0000
     0.0000   0.0000   0.0000   0.0000   0.0000   0.0000   0.0000   0.0000
     0.0000   0.0000   0.0000   0.0000   0.0000   0.0000   0.0000   0.0000
     0.0000   0.0000   0.0000   0.0000   0.0000   0.0000   0.0000   0.0000

          k = 0.5000-0.2887 0.0000 ( 75730 PWs)   bands (ev):

   -42.7613 -42.7612 -42.7391 -42.7388 -42.7362 -41.3760 -41.3757 -41.3755
   -41.3752 -41.3744 -41.3741 -41.3503 -41.3500 -41.3498 -41.3495 -41.3488
   -41.3485 -41.3468 -41.3465 -41.3463 -41.3461 -41.3453 -41.3450 -41.2645
   -41.2643 -41.2641 -41.2639 -41.2639 -41.2638 -41.2635 -41.2634 -41.2632
   -41.2630 -41.2626 -41.2624 -40.8434 -40.8434 -40.8434 -40.8434 -40.8398
   -40.8397 -40.8397 -40.8397 -40.8381 -40.8381 -40.7334 -40.7334 -40.7322
   -40.7322 -40.7322 -40.7322 -40.7271 -40.7271 -40.7270 -40.7270 -40.6062
   -40.6062 -40.6062 -40.6062 -40.6062 -40.6062 -40.6056 -40.6056 -40.6056
   -40.6056 -40.6056 -40.6055 -40.6038 -40.6038 -40.6037 -40.6037 -40.6037
   -40.6037 -40.6036 -40.6036 -40.6035 -40.6035 -40.6035 -40.6035 -40.6032
   -40.6032 -40.6032 -40.6032 -40.6032 -40.6031 -13.0913 -13.0853 -13.0807
   -13.0751 -13.0715 -13.0697 -13.0670 -13.0618 -13.0598 -13.0568 -13.0556
   -13.0541 -13.0513 -13.0488 -13.0454 -12.7818 -12.7746 -12.7695 -12.7678
   -12.7649 -12.7602 -12.7585 -12.7575 -12.7573 -12.7561 -12.7560 -12.7513
   -12.7484 -12.7482 -12.7466 -12.7152 -12.7141 -12.7018 -12.6996 -12.6992
    -9.3127  -8.1954  -8.0464  -8.0101  -7.9413  -7.9128  -7.8247  -7.7209
    -7.6940  -7.6443  -7.6367  -7.5009  -7.4429  -7.3951  -7.3887  -7.3408
    -7.3089  -3.7873  -3.6503  -3.5235  -3.4455  -3.4337  -3.2034  -3.1690
     0.2262   0.3037   0.4403   1.0902   1.2152   1.3108   1.4153   1.4537
     1.5128   1.5591   1.6030   1.6032   1.6781   1.6876   1.7540   1.7712
     1.9615   2.0642   2.0853   2.0941   2.1226   2.2117   2.2946   2.3011
     2.4029   2.4205   2.4245   2.4542   2.4553   2.4974   2.6186   2.6222
     2.6877   2.8202   2.8232   2.8320   2.9599   3.0093   3.0211   3.0476
     3.0952   3.1224   3.1316   3.1392   3.4200   3.4317   3.4693   3.4993
     3.6372   3.8187   3.8386   6.4140   6.7488   6.7740   6.8816   6.9383
     7.0220   7.0771   7.1387   7.2211   7.2449   7.3544   7.3590   7.4186
     7.4536   7.4984   7.5582   7.5604   7.5607   7.5681   7.8104   7.8494
     9.5091   9.8419   9.9327  10.0778  10.0968  10.1000  10.1338  10.2651
    10.5467  10.5697  10.7063  10.7359  10.7817  10.9541  11.1165  11.1440

     occupation numbers 
     1.0000   1.0000   1.0000   1.0000   1.0000   1.0000   1.0000   1.0000
     1.0000   1.0000   1.0000   1.0000   1.0000   1.0000   1.0000   1.0000
     1.0000   1.0000   1.0000   1.0000   1.0000   1.0000   1.0000   1.0000
     1.0000   1.0000   1.0000   1.0000   1.0000   1.0000   1.0000   1.0000
     1.0000   1.0000   1.0000   1.0000   1.0000   1.0000   1.0000   1.0000
     1.0000   1.0000   1.0000   1.0000   1.0000   1.0000   1.0000   1.0000
     1.0000   1.0000   1.0000   1.0000   1.0000   1.0000   1.0000   1.0000
     1.0000   1.0000   1.0000   1.0000   1.0000   1.0000   1.0000   1.0000
     1.0000   1.0000   1.0000   1.0000   1.0000   1.0000   1.0000   1.0000
     1.0000   1.0000   1.0000   1.0000   1.0000   1.0000   1.0000   1.0000
     1.0000   1.0000   1.0000   1.0000   1.0000   1.0000   1.0000   1.0000
     1.0000   1.0000   1.0000   1.0000   1.0000   1.0000   1.0000   1.0000
     1.0000   1.0000   1.0000   1.0000   1.0000   1.0000   1.0000   1.0000
     1.0000   1.0000   1.0000   1.0000   1.0000   1.0000   1.0000   1.0000
     1.0000   1.0000   1.0000   1.0000   1.0000   1.0000   1.0000   1.0000
     1.0000   1.0000   1.0000   1.0000   1.0000   1.0000   1.0000   1.0000
     1.0000   1.0000   1.0000   1.0000   1.0000   1.0000   1.0000   1.0000
     1.0000   1.0000   1.0000   1.0000   1.0000   1.0000   1.0000   1.0000
     1.0000   1.0000   1.0000   1.0000   1.0000   1.0000   1.0000   1.0000
     1.0000   1.0000   1.0000   1.0000   1.0000   1.0000   1.0000   1.0000
     1.0000   1.0000   1.0000   1.0000   1.0000   1.0000   1.0000   1.0000
     1.0000   1.0000   1.0000   1.0000   1.0000   1.0000   1.0000   1.0000
     1.0000   1.0000   1.0000   1.0000   1.0000   1.0000   1.0000   1.0000
     1.0000   1.0000   1.0000   1.0000   0.9971   0.9959   0.9878   0.9738
     0.6938   0.0839   0.0563   0.0000   0.0000   0.0000   0.0000   0.0000
     0.0000   0.0000   0.0000   0.0000   0.0000   0.0000   0.0000   0.0000
     0.0000   0.0000   0.0000   0.0000   0.0000   0.0000   0.0000   0.0000
     0.0000   0.0000   0.0000   0.0000   0.0000   0.0000   0.0000   0.0000
     0.0000   0.0000   0.0000   0.0000   0.0000   0.0000   0.0000   0.0000

          k =-0.5000-0.2887 0.0000 ( 75730 PWs)   bands (ev):

   -42.7613 -42.7612 -42.7391 -42.7388 -42.7362 -41.3760 -41.3757 -41.3755
   -41.3752 -41.3744 -41.3741 -41.3503 -41.3500 -41.3498 -41.3495 -41.3488
   -41.3485 -41.3468 -41.3465 -41.3463 -41.3461 -41.3453 -41.3450 -41.2645
   -41.2643 -41.2641 -41.2639 -41.2639 -41.2638 -41.2635 -41.2634 -41.2632
   -41.2630 -41.2626 -41.2624 -40.8434 -40.8434 -40.8434 -40.8434 -40.8398
   -40.8397 -40.8397 -40.8397 -40.8381 -40.8381 -40.7334 -40.7334 -40.7322
   -40.7322 -40.7322 -40.7322 -40.7271 -40.7271 -40.7270 -40.7270 -40.6062
   -40.6062 -40.6062 -40.6062 -40.6062 -40.6062 -40.6056 -40.6056 -40.6056
   -40.6056 -40.6056 -40.6055 -40.6038 -40.6038 -40.6037 -40.6037 -40.6037
   -40.6037 -40.6036 -40.6036 -40.6035 -40.6035 -40.6035 -40.6035 -40.6032
   -40.6032 -40.6032 -40.6032 -40.6032 -40.6032 -13.0913 -13.0854 -13.0807
   -13.0751 -13.0715 -13.0697 -13.0670 -13.0618 -13.0598 -13.0569 -13.0556
   -13.0541 -13.0513 -13.0488 -13.0454 -12.7817 -12.7748 -12.7695 -12.7677
   -12.7650 -12.7601 -12.7585 -12.7574 -12.7574 -12.7563 -12.7559 -12.7512
   -12.7484 -12.7483 -12.7465 -12.7152 -12.7141 -12.7018 -12.6996 -12.6992
    -9.3126  -8.1956  -8.0465  -8.0099  -7.9413  -7.9126  -7.8248  -7.7209
    -7.6940  -7.6443  -7.6368  -7.5009  -7.4430  -7.3951  -7.3887  -7.3408
    -7.3089  -3.7874  -3.6502  -3.5235  -3.4455  -3.4338  -3.2034  -3.1690
     0.2262   0.3039   0.4401   1.0900   1.2150   1.3108   1.4154   1.4537
     1.5128   1.5591   1.6031   1.6032   1.6782   1.6875   1.7543   1.7713
     1.9615   2.0641   2.0852   2.0942   2.1226   2.2117   2.2946   2.3011
     2.4029   2.4204   2.4244   2.4542   2.4554   2.4975   2.6187   2.6222
     2.6875   2.8203   2.8231   2.8321   2.9599   3.0093   3.0211   3.0477
     3.0952   3.1224   3.1316   3.1392   3.4200   3.4316   3.4694   3.4993
     3.6372   3.8186   3.8386   6.4140   6.7488   6.7741   6.8818   6.9383
     7.0218   7.0770   7.1389   7.2211   7.2449   7.3544   7.3588   7.4185
     7.4538   7.4985   7.5581   7.5605   7.5607   7.5680   7.8105   7.8493
     9.5092   9.8418   9.9327  10.0777  10.0969  10.1001  10.1337  10.2650
    10.5466  10.5697  10.7063  10.7358  10.7816  10.9541  11.1165  11.1439

     occupation numbers 
     1.0000   1.0000   1.0000   1.0000   1.0000   1.0000   1.0000   1.0000
     1.0000   1.0000   1.0000   1.0000   1.0000   1.0000   1.0000   1.0000
     1.0000   1.0000   1.0000   1.0000   1.0000   1.0000   1.0000   1.0000
     1.0000   1.0000   1.0000   1.0000   1.0000   1.0000   1.0000   1.0000
     1.0000   1.0000   1.0000   1.0000   1.0000   1.0000   1.0000   1.0000
     1.0000   1.0000   1.0000   1.0000   1.0000   1.0000   1.0000   1.0000
     1.0000   1.0000   1.0000   1.0000   1.0000   1.0000   1.0000   1.0000
     1.0000   1.0000   1.0000   1.0000   1.0000   1.0000   1.0000   1.0000
     1.0000   1.0000   1.0000   1.0000   1.0000   1.0000   1.0000   1.0000
     1.0000   1.0000   1.0000   1.0000   1.0000   1.0000   1.0000   1.0000
     1.0000   1.0000   1.0000   1.0000   1.0000   1.0000   1.0000   1.0000
     1.0000   1.0000   1.0000   1.0000   1.0000   1.0000   1.0000   1.0000
     1.0000   1.0000   1.0000   1.0000   1.0000   1.0000   1.0000   1.0000
     1.0000   1.0000   1.0000   1.0000   1.0000   1.0000   1.0000   1.0000
     1.0000   1.0000   1.0000   1.0000   1.0000   1.0000   1.0000   1.0000
     1.0000   1.0000   1.0000   1.0000   1.0000   1.0000   1.0000   1.0000
     1.0000   1.0000   1.0000   1.0000   1.0000   1.0000   1.0000   1.0000
     1.0000   1.0000   1.0000   1.0000   1.0000   1.0000   1.0000   1.0000
     1.0000   1.0000   1.0000   1.0000   1.0000   1.0000   1.0000   1.0000
     1.0000   1.0000   1.0000   1.0000   1.0000   1.0000   1.0000   1.0000
     1.0000   1.0000   1.0000   1.0000   1.0000   1.0000   1.0000   1.0000
     1.0000   1.0000   1.0000   1.0000   1.0000   1.0000   1.0000   1.0000
     1.0000   1.0000   1.0000   1.0000   1.0000   1.0000   1.0000   1.0000
     1.0000   1.0000   1.0000   1.0000   0.9971   0.9959   0.9878   0.9738
     0.6938   0.0839   0.0562   0.0000   0.0000   0.0000   0.0000   0.0000
     0.0000   0.0000   0.0000   0.0000   0.0000   0.0000   0.0000   0.0000
     0.0000   0.0000   0.0000   0.0000   0.0000   0.0000   0.0000   0.0000
     0.0000   0.0000   0.0000   0.0000   0.0000   0.0000   0.0000   0.0000
     0.0000   0.0000   0.0000   0.0000   0.0000   0.0000   0.0000   0.0000

     the Fermi energy is     3.6859 ev

!    total energy              =  -15856.35059949 Ry
     total all-electron energy =   -534697.926631 Ry
     estimated scf accuracy    <       0.00000001 Ry
     smearing contrib. (-TS)   =      -0.01048297 Ry
     internal energy E=F+TS    =  -15856.34011652 Ry

     The total energy is F=E-TS. E is the sum of the following terms:
     one-electron contribution =   -3071.76714242 Ry
     hartree contribution      =    1704.79519570 Ry
     xc contribution           =   -1153.38870589 Ry
     ewald contribution        =   -2512.22178399 Ry
     one-center paw contrib.   =  -10823.75767991 Ry
      -> PAW hartree energy AE =     191.54449586 Ry
      -> PAW hartree energy PS =    -192.01582967 Ry
      -> PAW xc energy AE      =   -1596.83560970 Ry
      -> PAW xc energy PS      =      66.59782815 Ry
      -> total E_H with PAW    =    1704.32386189 Ry
      -> total E_XC with PAW   =   -2683.62648744 Ry

     convergence has been achieved in   1 iterations


     -----------------------------------------------
     Non-local corr. energy    =      11.80956527 Ry
     -----------------------------------------------


     Forces acting on atoms (cartesian axes, Ry/au):

     atom    1 type  1   force =    -0.00000044   -0.00000532   -0.00000165
     atom    2 type  1   force =    -0.00000953    0.00000248   -0.00000242
     atom    3 type  1   force =    -0.00000259   -0.00000316    0.00000200
     atom    4 type  1   force =    -0.00000145   -0.00000386   -0.00000082
     atom    5 type  1   force =    -0.00000013   -0.00000192   -0.00000340
     atom    6 type  1   force =     0.00000899    0.00000119   -0.00000319
     atom    7 type  1   force =     0.00000240   -0.00000277    0.00000263
     atom    8 type  2   force =     0.00001005    0.00000930   -0.00012286
     atom    9 type  2   force =     0.00000940   -0.00038511    0.00019861
     atom   10 type  2   force =     0.00002082    0.00000054   -0.00012869
     atom   11 type  2   force =    -0.00030120    0.00017860    0.00023699
     atom   12 type  2   force =    -0.00000978   -0.00001605    0.00068559
     atom   13 type  2   force =    -0.00000362   -0.00001503   -0.00077021
     atom   14 type  2   force =    -0.00002109   -0.00001076   -0.00012923
     atom   15 type  2   force =     0.00029734    0.00016507    0.00023252
     atom   16 type  2   force =    -0.00030224   -0.00016450   -0.00020863
     atom   17 type  2   force =     0.00000206    0.00001787    0.00011698
     atom   18 type  2   force =     0.00000280   -0.00001688    0.00078380
     atom   19 type  2   force =     0.00000575   -0.00002234   -0.00069719
     atom   20 type  2   force =     0.00030471   -0.00017199   -0.00021278
     atom   21 type  2   force =    -0.00000256    0.00001122    0.00011380
     atom   22 type  2   force =    -0.00000512    0.00037292   -0.00022476
     atom   23 type  2   force =    -0.00000530   -0.00002084    0.00012018
     atom   24 type  2   force =     0.00000077    0.00008133    0.00001274
     The non-local contrib.  to forces
     atom    1 type  1   force =    -0.00000377   -0.00001233    0.00001177
     atom    2 type  1   force =     0.00001123    0.00002903    0.00002147
     atom    3 type  1   force =     0.00001998   -0.00002841   -0.00001434
     atom    4 type  1   force =     0.00000931   -0.00005776    0.00007857
     atom    5 type  1   force =     0.00001458   -0.00002679    0.00003905
     atom    6 type  1   force =     0.00001358    0.00002662    0.00001925
     atom    7 type  1   force =    -0.00000585   -0.00001786   -0.00003884
     atom    8 type  2   force =     0.00000639    0.00111047    0.23766323
     atom    9 type  2   force =    -0.00000087   -0.05428300    0.20333076
     atom   10 type  2   force =     0.00096803   -0.00052788    0.23767524
     atom   11 type  2   force =    -0.04686422    0.02705799    0.20344645
     atom   12 type  2   force =    -0.00001174   -0.00000471    0.23439216
     atom   13 type  2   force =    -0.00001073    0.00000166    0.26127373
     atom   14 type  2   force =    -0.00097391   -0.00053712    0.23767598
     atom   15 type  2   force =     0.04681517    0.02702980    0.20345718
     atom   16 type  2   force =    -0.04695018   -0.02705964   -0.20346642
     atom   17 type  2   force =     0.00093450    0.00058429   -0.23768140
     atom   18 type  2   force =    -0.00000204   -0.00001012   -0.26124812
     atom   19 type  2   force =     0.00000149   -0.00003242   -0.23438427
     atom   20 type  2   force =     0.04697886   -0.02707579   -0.20344013
     atom   21 type  2   force =    -0.00094115    0.00057811   -0.23768048
     atom   22 type  2   force =     0.00000051    0.05433026   -0.20338291
     atom   23 type  2   force =    -0.00000741   -0.00110185   -0.23767636
     atom   24 type  2   force =     0.00000751    0.00018715   -0.00008828
     The ionic contribution  to forces
     atom    1 type  1   force =     0.00055348   -0.00050594   -0.00005915
     atom    2 type  1   force =    -0.00145196    0.00057375   -0.00049162
     atom    3 type  1   force =    -0.00085031    0.00135224    0.00083092
     atom    4 type  1   force =    -0.00042098    0.00114116   -0.00142205
     atom    5 type  1   force =    -0.00073935    0.00037226   -0.00056891
     atom    6 type  1   force =     0.00081725    0.00041735    0.00021458
     atom    7 type  1   force =     0.00053736    0.00059683    0.00218199
     atom    8 type  2   force =     0.00166315    0.01191060  -13.87762287
     atom    9 type  2   force =     0.00126774    0.40541394  -14.65910655
     atom   10 type  2   force =     0.00942671   -0.00625995  -13.87809146
     atom   11 type  2   force =     0.34530682   -0.20087365  -14.66140498
     atom   12 type  2   force =    -0.00128760    0.00153441  -12.81012228
     atom   13 type  2   force =    -0.00078232    0.00085848  -15.03852533
     atom   14 type  2   force =    -0.00930192   -0.00808410  -13.87768627
     atom   15 type  2   force =    -0.34446059   -0.20183552  -14.66235359
     atom   16 type  2   force =     0.35040139    0.20206157   14.66100673
     atom   17 type  2   force =     0.01039558    0.00481137   13.87977551
     atom   18 type  2   force =     0.00086759    0.00052487   15.03534340
     atom   19 type  2   force =     0.00034106    0.00047735   12.81031795
     atom   20 type  2   force =    -0.35137205    0.20152522   14.66028853
     atom   21 type  2   force =    -0.01029509    0.00449453   13.87971932
     atom   22 type  2   force =    -0.00090805   -0.40556718   14.65968035
     atom   23 type  2   force =    -0.00018939   -0.01086484   13.87919091
     atom   24 type  2   force =     0.00048149   -0.00407476   -0.00109511
     The local contribution  to forces
     atom    1 type  1   force =    -0.00055199    0.00048782    0.00005574
     atom    2 type  1   force =     0.00131492   -0.00047501    0.00042015
     atom    3 type  1   force =     0.00080672   -0.00130347   -0.00079849
     atom    4 type  1   force =     0.00041192   -0.00113741    0.00137813
     atom    5 type  1   force =     0.00072567   -0.00034951    0.00052158
     atom    6 type  1   force =    -0.00070612   -0.00031522   -0.00028425
     atom    7 type  1   force =    -0.00050865   -0.00055636   -0.00212540
     atom    8 type  2   force =    -0.00166969   -0.01297035   13.64498229
     atom    9 type  2   force =    -0.00126667   -0.35241259   14.46036856
     atom   10 type  2   force =    -0.01037290    0.00674924   13.64544910
     atom   11 type  2   force =    -0.29954942    0.17442883   14.46254499
     atom   12 type  2   force =     0.00130115   -0.00150188   12.58170940
     atom   13 type  2   force =     0.00079765   -0.00083330   14.78182010
     atom   14 type  2   force =     0.01025372    0.00858290   13.64504954
     atom   15 type  2   force =     0.29874344    0.17541357   14.46347856
     atom   16 type  2   force =    -0.30450728   -0.17564173  -14.46216075
     atom   17 type  2   force =    -0.01127126   -0.00539726  -13.64709930
     atom   18 type  2   force =    -0.00086888   -0.00047957  -14.77868213
     atom   19 type  2   force =    -0.00034607   -0.00040718  -12.58189408
     atom   20 type  2   force =     0.30545724   -0.17509288  -14.46147088
     atom   21 type  2   force =     0.01117737   -0.00507170  -13.64703964
     atom   22 type  2   force =     0.00090888    0.35253625  -14.46087663
     atom   23 type  2   force =     0.00019941    0.01193461  -13.64654229
     atom   24 type  2   force =    -0.00049003    0.00373129    0.00116874
     The core correction contribution to forces
     atom    1 type  1   force =     0.00000018   -0.00000024   -0.00000005
     atom    2 type  1   force =    -0.00000127    0.00000090   -0.00000072
     atom    3 type  1   force =    -0.00000043    0.00000049    0.00000020
     atom    4 type  1   force =     0.00000008   -0.00000024   -0.00000027
     atom    5 type  1   force =    -0.00000022   -0.00000003   -0.00000066
     atom    6 type  1   force =     0.00000094    0.00000117   -0.00000050
     atom    7 type  1   force =     0.00000030    0.00000027    0.00000062
     atom    8 type  2   force =    -0.00000012    0.00001536   -0.00507602
     atom    9 type  2   force =    -0.00000021    0.00096821   -0.00441933
     atom   10 type  2   force =     0.00001047   -0.00000460   -0.00507626
     atom   11 type  2   force =     0.00083013   -0.00048200   -0.00442405
     atom   12 type  2   force =    -0.00000092    0.00000309   -0.00520668
     atom   13 type  2   force =    -0.00000064    0.00000285   -0.00541532
     atom   14 type  2   force =    -0.00001135   -0.00000490   -0.00507692
     atom   15 type  2   force =    -0.00082909   -0.00048116   -0.00442530
     atom   16 type  2   force =     0.00083438    0.00047716    0.00442609
     atom   17 type  2   force =     0.00001119    0.00000791    0.00507370
     atom   18 type  2   force =    -0.00000091    0.00000350    0.00541477
     atom   19 type  2   force =    -0.00000056    0.00000425    0.00520738
     atom   20 type  2   force =    -0.00083557    0.00047962    0.00442494
     atom   21 type  2   force =    -0.00001204    0.00000805    0.00507392
     atom   22 type  2   force =     0.00000147   -0.00096715    0.00442144
     atom   23 type  2   force =    -0.00000022   -0.00001055    0.00507495
     atom   24 type  2   force =    -0.00000126   -0.00000333   -0.00000327
     The Hubbard contrib.    to forces
     atom    1 type  1   force =     0.00000000    0.00000000    0.00000000
     atom    2 type  1   force =     0.00000000    0.00000000    0.00000000
     atom    3 type  1   force =     0.00000000    0.00000000    0.00000000
     atom    4 type  1   force =     0.00000000    0.00000000    0.00000000
     atom    5 type  1   force =     0.00000000    0.00000000    0.00000000
     atom    6 type  1   force =     0.00000000    0.00000000    0.00000000
     atom    7 type  1   force =     0.00000000    0.00000000    0.00000000
     atom    8 type  2   force =     0.00000000    0.00000000    0.00000000
     atom    9 type  2   force =     0.00000000    0.00000000    0.00000000
     atom   10 type  2   force =     0.00000000    0.00000000    0.00000000
     atom   11 type  2   force =     0.00000000    0.00000000    0.00000000
     atom   12 type  2   force =     0.00000000    0.00000000    0.00000000
     atom   13 type  2   force =     0.00000000    0.00000000    0.00000000
     atom   14 type  2   force =     0.00000000    0.00000000    0.00000000
     atom   15 type  2   force =     0.00000000    0.00000000    0.00000000
     atom   16 type  2   force =     0.00000000    0.00000000    0.00000000
     atom   17 type  2   force =     0.00000000    0.00000000    0.00000000
     atom   18 type  2   force =     0.00000000    0.00000000    0.00000000
     atom   19 type  2   force =     0.00000000    0.00000000    0.00000000
     atom   20 type  2   force =     0.00000000    0.00000000    0.00000000
     atom   21 type  2   force =     0.00000000    0.00000000    0.00000000
     atom   22 type  2   force =     0.00000000    0.00000000    0.00000000
     atom   23 type  2   force =     0.00000000    0.00000000    0.00000000
     atom   24 type  2   force =     0.00000000    0.00000000    0.00000000
     The SCF correction term to forces
     atom    1 type  1   force =     0.00000123    0.00003104   -0.00001041
     atom    2 type  1   force =     0.00011713   -0.00012051    0.00004785
     atom    3 type  1   force =     0.00002104   -0.00001833   -0.00001675
     atom    4 type  1   force =    -0.00000219    0.00005607   -0.00003566
     atom    5 type  1   force =    -0.00000124    0.00000782    0.00000508
     atom    6 type  1   force =    -0.00011708   -0.00012305    0.00004728
     atom    7 type  1   force =    -0.00002118   -0.00001998   -0.00001619
     atom    8 type  2   force =     0.00000990   -0.00005111   -0.00006994
     atom    9 type  2   force =     0.00000899   -0.00006599    0.00002473
     atom   10 type  2   force =    -0.00001191    0.00004941   -0.00008576
     atom   11 type  2   force =    -0.00002492    0.00005310    0.00007413
     atom   12 type  2   force =    -0.00001109   -0.00004127   -0.00008747
     atom   13 type  2   force =    -0.00000800   -0.00003904    0.00007616
     atom   14 type  2   force =     0.00001194    0.00003814   -0.00009201
     atom   15 type  2   force =     0.00002799    0.00004405    0.00007522
     atom   16 type  2   force =    -0.00008098    0.00000382   -0.00001473
     atom   17 type  2   force =    -0.00006837    0.00001725    0.00004801
     atom   18 type  2   force =     0.00000663   -0.00004988   -0.00004458
     atom   19 type  2   force =     0.00000941   -0.00005866    0.00005538
     atom   20 type  2   force =     0.00007581   -0.00000249   -0.00001569
     atom   21 type  2   force =     0.00006793    0.00000790    0.00004023
     atom   22 type  2   force =    -0.00000835    0.00004641   -0.00006747
     atom   23 type  2   force =    -0.00000812    0.00002746    0.00007252
     atom   24 type  2   force =     0.00000264    0.00024666    0.00003020

     Total force =     0.001822     Total SCF correction =     0.000498
     SCF correction compared to forces is large: reduce conv_thr to get better values


     Computing stress (Cartesian axis) and pressure



     -----------------------------------------------
     Non-local corr. energy    =      11.80956527 Ry
     -----------------------------------------------

          total   stress  (Ry/bohr**3)                   (kbar)     P=      -13.63
  -0.00009270  -0.00000001   0.00000001          -13.64       -0.00        0.00
  -0.00000001  -0.00009263   0.00000004           -0.00      -13.63        0.01
   0.00000001   0.00000004  -0.00009255            0.00        0.01      -13.61

     kinetic stress (kbar)  14690.39     -0.00      0.00
                               -0.00  14690.42      0.02
                                0.00      0.02  14703.13

     local   stress (kbar)  -7440.11     -0.19      0.17
                               -0.19  -7439.42      0.31
                                0.17      0.31   1228.64

     nonloc. stress (kbar)   -653.79     -0.00      0.00
                               -0.00   -653.77      0.02
                                0.00      0.02   -654.91

     hartree stress (kbar)  12228.14      0.07     -0.06
                                0.07  12227.89     -0.12
                               -0.06     -0.12   8299.53

     exc-cor stress (kbar)   7098.21      0.00     -0.00
                                0.00   7098.21      0.00
                               -0.00      0.00   7097.57

     corecor stress (kbar) -11516.52      0.00     -0.00
                                0.00 -11516.52     -0.00
                               -0.00     -0.00 -11516.57

     ewald   stress (kbar) -14505.55      0.13     -0.11
                                0.13 -14506.03     -0.22
                               -0.11     -0.22 -19257.71

     hubbard stress (kbar)      0.00      0.00      0.00
                                0.00      0.00      0.00
                                0.00      0.00      0.00

     DFT-D   stress (kbar)      0.00      0.00      0.00
                                0.00      0.00      0.00
                                0.00      0.00      0.00

     XDM     stress (kbar)      0.00      0.00      0.00
                                0.00      0.00      0.00
                                0.00      0.00      0.00

     dft-nl  stress (kbar)     85.58     -0.00      0.00
                               -0.00     85.59     -0.00
                                0.00     -0.00     86.70

     TS-vdW  stress (kbar)      0.00      0.00      0.00
                                0.00      0.00      0.00
                                0.00      0.00      0.00

     MDB     stress (kbar)      0.00      0.00      0.00
                                0.00      0.00      0.00
                                0.00      0.00      0.00

     3D-RISM stress (kbar)      0.00      0.00      0.00
                                0.00      0.00      0.00
                                0.00      0.00      0.00



     -----------------------------------------------
     Non-local corr. energy    =      11.80956527 Ry
     -----------------------------------------------



     -----------------------------------------------
     Non-local corr. energy    =      11.80956527 Ry
     -----------------------------------------------



     -----------------------------------------------
     Non-local corr. energy    =      11.80956527 Ry
     -----------------------------------------------



     -----------------------------------------------
     Non-local corr. energy    =      11.80956527 Ry
     -----------------------------------------------



     -----------------------------------------------
     Non-local corr. energy    =      11.80956527 Ry
     -----------------------------------------------



     -----------------------------------------------
     Non-local corr. energy    =      11.80956527 Ry
     -----------------------------------------------



     -----------------------------------------------
     Non-local corr. energy    =      11.80956527 Ry
     -----------------------------------------------



     -----------------------------------------------
     Non-local corr. energy    =      11.80956527 Ry
     -----------------------------------------------



     -----------------------------------------------
     Non-local corr. energy    =      11.80956527 Ry
     -----------------------------------------------



     -----------------------------------------------
     Non-local corr. energy    =      11.80956527 Ry
     -----------------------------------------------



     -----------------------------------------------
     Non-local corr. energy    =      11.80956527 Ry
     -----------------------------------------------



     -----------------------------------------------
     Non-local corr. energy    =      11.80956527 Ry
     -----------------------------------------------



     -----------------------------------------------
     Non-local corr. energy    =      11.80956527 Ry
     -----------------------------------------------



     -----------------------------------------------
     Non-local corr. energy    =      11.80956527 Ry
     -----------------------------------------------



     -----------------------------------------------
     Non-local corr. energy    =      11.80956527 Ry
     -----------------------------------------------



     -----------------------------------------------
     Non-local corr. energy    =      11.80956527 Ry
     -----------------------------------------------



     -----------------------------------------------
     Non-local corr. energy    =      11.80956527 Ry
     -----------------------------------------------



     -----------------------------------------------
     Non-local corr. energy    =      11.80956527 Ry
     -----------------------------------------------



     -----------------------------------------------
     Non-local corr. energy    =      11.80956527 Ry
     -----------------------------------------------



     -----------------------------------------------
     Non-local corr. energy    =      11.80956527 Ry
     -----------------------------------------------



     -----------------------------------------------
     Non-local corr. energy    =      11.80956527 Ry
     -----------------------------------------------



     -----------------------------------------------
     Non-local corr. energy    =      11.80956527 Ry
     -----------------------------------------------



     -----------------------------------------------
     Non-local corr. energy    =      11.80956527 Ry
     -----------------------------------------------



     -----------------------------------------------
     Non-local corr. energy    =      11.80956527 Ry
     -----------------------------------------------



     -----------------------------------------------
     Non-local corr. energy    =      11.80956527 Ry
     -----------------------------------------------



     -----------------------------------------------
     Non-local corr. energy    =      11.80956527 Ry
     -----------------------------------------------



     -----------------------------------------------
     Non-local corr. energy    =      11.80956527 Ry
     -----------------------------------------------



     -----------------------------------------------
     Non-local corr. energy    =      11.80956527 Ry
     -----------------------------------------------



     -----------------------------------------------
     Non-local corr. energy    =      11.80956527 Ry
     -----------------------------------------------



     -----------------------------------------------
     Non-local corr. energy    =      11.80956527 Ry
     -----------------------------------------------



     -----------------------------------------------
     Non-local corr. energy    =      11.80956527 Ry
     -----------------------------------------------



     -----------------------------------------------
     Non-local corr. energy    =      11.80956527 Ry
     -----------------------------------------------



     -----------------------------------------------
     Non-local corr. energy    =      11.80956527 Ry
     -----------------------------------------------



     -----------------------------------------------
     Non-local corr. energy    =      11.80956527 Ry
     -----------------------------------------------

 BEEFens 2000 ensemble energies
             -0.981687417524051E+01
             -0.990205010604997E+02
             -0.450819881105010E+02
              0.345618983655673E+02
             -0.757046283436669E+02
             -0.927215510724317E+02
              0.475918436802376E+02
              0.228786182385079E+00
              0.801780707040805E+02
             -0.510032350078660E+01
              0.410536362370609E+02
              0.425467100562614E+01
             -0.318378554867061E+01
             -0.256706318787059E+01
              0.512517318425219E+02
             -0.384658358787365E+02
             -0.756201637331585E+02
             -0.244094253584782E+02
              0.219306034473991E+02
             -0.418438841320722E+00
              0.111550042071889E+03
              0.930902570712955E+02
             -0.574075947247239E+02
              0.198056244006884E+02
             -0.119501195518150E+03
              0.981021642152758E+02
              0.335089952597465E+02
              0.886018930738873E+02
              0.597116760483309E+02
             -0.277284165531569E+02
              0.218619968307727E+02
             -0.390821233387621E+02
              0.163212511225452E+02
              0.593877406746558E+02
              0.638448859206620E+02
             -0.277764871261140E+02
              0.140988725322946E+03
             -0.567111232246954E+02
             -0.378049874476721E+02
              0.563765531667836E+02
              0.248257643888830E+02
              0.428299361549588E+02
             -0.827117845720361E+02
             -0.532801186385507E+01
              0.794083070503260E+02
              0.103767592462525E+03
             -0.105307124402924E+03
              0.677022948993417E+01
              0.365018775711552E+02
              0.236063291509552E+02
              0.412004550691964E+02
              0.904221208844453E+02
             -0.587188468248977E+02
             -0.570063268015444E+02
             -0.794758219331467E+02
             -0.115659367899615E+02
             -0.678080039894011E+02
              0.876921420323231E+01
             -0.974558157251090E+01
             -0.537199194474284E+02
              0.877090998474171E+02
              0.889986485732442E+02
             -0.244940129110022E+02
             -0.671186275005767E+02
             -0.407998951526545E+02
             -0.263526745106154E+01
              0.646967419319928E+02
             -0.904666359016005E+01
             -0.646142390268355E+02
              0.596807737858678E+02
             -0.110821404809365E+03
              0.980591728877239E+02
             -0.113556171496637E+03
             -0.498005196871479E+02
             -0.162981160236096E+02
             -0.103883571928289E+02
              0.592251265719202E+01
              0.783944393352849E+02
              0.491911024951524E+02
             -0.825521829962360E+02
             -0.109605406504689E+03
             -0.571516412043331E+02
             -0.424268324978160E+02
              0.640711432047885E+01
             -0.135079316764518E+02
             -0.397824408227706E+02
              0.485703779971761E+02
             -0.416200260998107E+02
              0.161820364713529E+03
             -0.742371485175469E+02
              0.162544909829425E+02
              0.169422711879099E+02
              0.242997165066669E+02
              0.561910830581694E+02
              0.400592697569367E+02
              0.380643941334013E+02
             -0.624394539021252E+02
              0.370585061525831E+02
              0.912251509956104E+01
             -0.124049071688592E+01
              0.732920629125794E+02
             -0.866154768137073E+02
              0.146598378309660E+03
             -0.344420306468058E+02
             -0.156431611793713E+03
              0.873010403578627E+01
              0.143274067616417E+02
             -0.428681864375433E+02
             -0.823577437267838E+02
             -0.413985054687664E+02
             -0.305137206366604E+02
              0.102595237010439E+01
             -0.649206055098594E+02
              0.347589949558983E+01
              0.707977086536260E+01
              0.149536991745416E+02
              0.141087314631572E+03
              0.167791749907758E+02
             -0.855657885373964E+02
             -0.642749856594088E+02
             -0.201806680049150E+02
             -0.556256328369938E+02
              0.944281618590483E+02
             -0.599239660889184E+02
              0.282520499589120E+01
             -0.119659202522534E+02
              0.155433177940565E+02
              0.556492873562050E+02
             -0.605663399523706E+02
             -0.119214722921548E+03
             -0.216881020802530E+02
             -0.248569112920163E+02
             -0.177777000191102E+02
              0.603673457964887E+02
             -0.104610146108127E+03
             -0.118309268171839E+03
             -0.154798805214570E+02
             -0.258271385107617E+02
             -0.425589852641059E+01
              0.323924558757656E+02
              0.714882681277775E+02
              0.363070544450056E+02
             -0.352846813336766E+02
             -0.374499101321093E+02
             -0.108219812417312E+03
             -0.817469122258331E+01
             -0.514322839331605E+02
             -0.322483323564988E+02
              0.898182448304960E+02
             -0.692870530891009E+02
             -0.236725735262094E+02
              0.835506851336798E+02
             -0.114033797276661E+02
             -0.217912040091942E+02
              0.141797301627165E+02
              0.332317736178891E+02
             -0.536010560280292E+02
              0.313639527819835E+02
              0.208940863104182E+02
              0.491611040034676E+02
             -0.506690476991898E+02
             -0.412406259812871E+02
              0.626590845186585E+02
             -0.518130995023114E+01
             -0.245526759466209E+02
             -0.213955831070175E+02
             -0.295741595366853E+02
             -0.398377949852914E+02
             -0.935451813337762E+02
             -0.118185585431425E+03
             -0.372142191277645E+02
             -0.368625533289940E+02
             -0.431390210190887E+02
             -0.719858733690779E+02
             -0.372589323365560E+02
              0.640624306802569E+02
              0.277076683903101E+02
              0.907766960882046E+02
             -0.386212630033436E+02
              0.310874124697804E+02
              0.168501561909509E+02
             -0.955944954761466E+02
             -0.226701988726496E+02
              0.512094860226022E+02
             -0.153625298034611E+03
              0.333722445282251E+02
              0.256992409114431E+02
              0.979783726695700E+02
             -0.302385587281029E+02
              0.846879558277166E+02
              0.129559311711425E+03
              0.107386708494070E+03
             -0.605331853894236E+02
             -0.329741630359389E+02
             -0.185179100416573E+02
              0.430491197780777E+02
              0.220164567754510E+02
             -0.232480302078870E+02
              0.626919406712617E+02
              0.124984087066976E+03
             -0.436840645018543E+02
             -0.307483590671608E+02
              0.207027591844003E+02
             -0.710166103594860E+02
             -0.611903294305893E+02
              0.541463555458715E+01
              0.186007971402785E+01
             -0.113947818580731E+02
              0.107159328861761E+03
              0.338697721487773E+02
             -0.179103031255289E+02
             -0.691530376825173E+01
             -0.140863958645339E+03
             -0.151112900967751E+02
             -0.321074091532050E+02
             -0.390629757013772E+01
              0.700796532716840E+02
             -0.376775483848189E+01
              0.976976354940032E+02
             -0.631499676975773E+02
             -0.638644762663233E+02
              0.645020850332081E+02
              0.849616069648603E+02
              0.112973798060091E+03
             -0.643648728997425E+02
             -0.360293162928378E+02
              0.671836356519204E+02
              0.740751668764988E+02
             -0.831000178843236E+02
             -0.211199705836339E+02
              0.891869897685448E+02
              0.578196986023035E+02
              0.347883180519289E+02
              0.321105470478288E+02
             -0.231605601283519E+02
             -0.505908641423514E+01
              0.371443860570996E+02
             -0.390006629971717E+02
             -0.494764901648326E+02
              0.119050211232912E+02
             -0.227711223471555E+02
              0.337157011490780E+02
             -0.574943186355936E+02
              0.691091265086989E+02
             -0.101039485467036E+02
              0.678422039902926E+02
             -0.247979578257821E+02
             -0.834875515109610E+02
             -0.820421334978846E+00
              0.219333451997541E+02
              0.184072994968767E+02
              0.808269748966512E+01
              0.972370396120510E+01
              0.159449983070913E+02
              0.127350860985311E+03
             -0.938963351335325E+02
              0.209111100933291E+02
             -0.497512339984175E+01
              0.215457064627560E+01
              0.508939894292883E+02
              0.371180119878575E+02
             -0.385343683325535E+02
              0.111077847490084E+02
             -0.649046882753559E+02
             -0.212263276089458E+02
             -0.149696777696957E+01
             -0.140673875605807E+03
              0.337821412650929E+02
              0.690281834623688E+02
              0.349955024012324E+02
              0.510052899231664E+02
             -0.302951386872306E+02
              0.295900563041326E+02
              0.757210939795022E+02
             -0.579711311011541E+02
              0.340490139861045E+02
              0.945423278445302E+02
             -0.129747244746970E+02
              0.601337155966499E+02
             -0.184958419908630E+02
             -0.254676969338823E+02
             -0.578516619864769E+01
             -0.660731373118071E+02
              0.383431491422713E+02
              0.360961489153409E+02
              0.705275546962059E+02
             -0.387791020209737E+02
              0.628159990612061E+02
              0.125534826002150E+03
              0.674951919878111E+02
             -0.573289252217290E+02
             -0.221927401128761E+02
             -0.109891030417654E+03
              0.104514694467337E+02
              0.148833749178782E+02
             -0.347935130296895E+01
             -0.216321619874584E+02
              0.164551194007934E+02
              0.791582852294218E+02
             -0.926956574730525E+00
              0.365484054723677E+02
              0.356099135372332E+02
             -0.176825042861221E+02
             -0.113775726026405E+03
              0.419394394503479E+02
             -0.777063283339757E+00
              0.591661158179076E+02
             -0.157663091360890E+02
             -0.216631470420122E+02
             -0.256573235296078E+02
              0.165681947830614E+02
              0.514300707778420E+01
              0.296694316188204E+02
              0.305419063197137E+02
             -0.823887902887411E+02
              0.446031187993824E+02
              0.539769451246176E+02
              0.435995426058898E+02
              0.843243998336586E+02
              0.338654447528482E+02
              0.976593945890512E+02
             -0.293057486966940E+02
             -0.330072933373890E+02
              0.478601143298830E+02
              0.482620373651616E+02
              0.135721064240454E+01
              0.768611658720861E+01
              0.521214596350976E+02
              0.398992185168431E+02
             -0.252253664409182E+02
             -0.496490873286615E+01
             -0.867839406854495E+01
             -0.873726554336886E+01
             -0.919752438475100E+02
             -0.290785081520102E+02
              0.442688663686694E+02
              0.253821308758497E+02
              0.373681236968748E+02
             -0.701572062525754E+02
             -0.996682252854273E+02
              0.248129288466407E+02
              0.981299303366136E+02
              0.507914793265173E+02
             -0.501405153318651E+02
             -0.981317861996125E+02
             -0.535561701297627E+01
              0.323062631893141E+02
              0.324902838235569E+02
             -0.127663686682007E+02
              0.858553560265666E+02
              0.262991949512407E+02
             -0.600592881974880E+02
              0.655436882109375E+02
              0.352492710661085E+02
              0.494506274786804E+01
             -0.205107058019739E+02
             -0.435331549092415E+02
             -0.670002819110049E+02
              0.214402985934413E+02
             -0.133934665403197E+02
             -0.432700412837042E+02
              0.320343382061751E+01
             -0.400659459569226E+02
              0.245168720655041E+02
             -0.106625723487340E+03
              0.252505083922983E+02
             -0.115794526971307E+02
             -0.509934465990629E+01
              0.324033778252438E+02
              0.309621884992426E+02
              0.135846067014933E+03
              0.349866859387259E+01
             -0.441749402612580E+02
             -0.100512810405600E+03
              0.521386022120012E+02
             -0.532381817071905E+01
              0.363226465142818E+02
              0.219176654753177E+02
             -0.128488285961283E+02
              0.830512680094218E+02
              0.684489964138367E+02
             -0.171463576873467E+02
              0.720775163889459E+02
             -0.904541469715814E+02
              0.217190979928748E+02
              0.527226355009171E+02
             -0.644373972157187E+02
             -0.836679973502483E+02
             -0.916747342699697E+02
             -0.905259718297102E+02
              0.863701310719315E+02
             -0.700399285614418E+02
             -0.113247352013457E+02
              0.433097108616696E+02
             -0.350645255428375E+02
              0.139396746153505E+02
              0.218914693076003E+02
              0.484435819504848E+02
             -0.780453173803942E+02
              0.551463019173112E+02
             -0.270107933540792E+02
             -0.115408804019391E+03
              0.426083010909292E+02
             -0.276812575893721E+02
             -0.645504947688362E+02
             -0.301176910024612E+02
              0.541467877421102E+02
              0.420516274245958E+02
              0.145062512340090E+02
              0.253035355167158E+02
             -0.159752206611319E+01
              0.223993692612184E+02
             -0.710052953908339E+02
              0.130224178397988E+02
             -0.150184110756810E+02
             -0.580924486658322E+02
              0.162899655100176E+02
             -0.880144355933913E+01
              0.830898698724425E+02
              0.136859856304703E+02
              0.927327320886573E+02
              0.130130068689102E+02
              0.261944918227290E+02
             -0.250524516667571E+02
             -0.229163929305470E+02
              0.530855087561445E+02
              0.205577506878636E+02
             -0.460505114761876E+02
              0.104000141270352E+03
              0.768665724405587E+02
              0.777238209684703E+02
              0.521422030961445E+02
             -0.187929388624009E+02
             -0.128878839750178E+03
             -0.934442294001565E+01
             -0.360451644385689E+02
             -0.493324722521728E+02
              0.551333750247190E+02
             -0.120409104540492E+03
              0.512707231319907E+02
              0.413929690519418E+02
             -0.411092143847444E+02
             -0.681546098306626E+01
             -0.167972416553869E+02
             -0.367405446563029E+02
              0.390812221820043E+02
              0.482204485121922E+02
             -0.692596147038967E+01
             -0.284305407470229E+02
              0.108353668837874E+02
             -0.126876153764084E+01
             -0.756678158904877E+02
             -0.527816028815787E+02
             -0.400733245708852E+01
             -0.588858816773070E+02
             -0.316103374047026E+02
              0.193534587644115E+01
             -0.979671612832008E+02
             -0.513233533310210E+02
              0.325644412159350E+01
             -0.124390873770412E+03
              0.161873621646309E+02
             -0.119224885968563E+03
              0.648932676677712E+02
             -0.515779586128006E+02
              0.691357716436912E+02
             -0.245581557859739E+02
             -0.982556421707716E+02
             -0.537072707524548E+01
             -0.529132966861328E+02
             -0.291795987044922E+02
              0.189862091005330E+02
             -0.109703335933535E+03
              0.187571581236693E+02
              0.533947813387570E+02
             -0.105432703845362E+03
             -0.122930383263413E+02
             -0.974792200978932E+02
             -0.108580726311893E+03
             -0.695090088209117E+02
             -0.105034971617911E+02
             -0.535413862235816E+02
              0.529432431422764E+02
              0.588900464153260E+02
             -0.434039520219572E+02
              0.300023750509680E+02
             -0.421838049021933E+02
              0.376528651020100E+02
             -0.568643575288445E+02
             -0.569482067539666E+02
              0.531721458927875E+02
              0.405945224387676E+02
              0.154684114286193E+02
              0.592005660818072E+02
              0.130928675631072E+03
             -0.214435868909604E+02
              0.404474646023305E+02
             -0.115456765541539E+03
             -0.106314507262146E+03
             -0.509726308951008E+01
              0.114222640093419E+02
              0.333056609892916E+02
             -0.856594690778491E+02
              0.165703722206864E+02
              0.103244153506362E+03
             -0.816060161807133E+02
             -0.149443676391988E+02
             -0.113126277913988E+03
             -0.116339356003404E+02
              0.604438213209045E+01
             -0.785332745077031E+02
              0.239754655973860E+02
             -0.116527959066061E+03
             -0.504813707304800E+01
             -0.870625635681836E+01
              0.112055437378558E+02
             -0.710951525321210E+02
              0.529881135283764E+02
             -0.864722890882246E+01
             -0.978040192785727E+01
              0.922577040082456E+01
              0.362663284350184E+02
              0.746617333466750E+02
             -0.207092418036757E+02
              0.569597711129976E+02
              0.975111935456760E+02
              0.185196251250081E+02
             -0.395183891152180E+01
              0.299449008298881E+02
              0.898019855356907E+01
             -0.117548732007185E+02
              0.452369871065117E+02
             -0.128938602903800E+02
             -0.640647207322254E+02
              0.356260146781142E+02
             -0.455288801524459E+02
             -0.366013585931136E+02
             -0.662815609027891E+00
             -0.834223289578013E+02
             -0.212367405600108E+02
             -0.913631045417811E+02
             -0.500948519210113E+01
             -0.245689841467751E+02
              0.459736065672569E+02
             -0.971349739126446E+02
              0.886881171554870E+01
              0.292145566401783E+01
             -0.786033064232434E+02
              0.459935794331465E+02
              0.869485669123779E+02
              0.230422321757951E+02
             -0.751361791550297E+02
             -0.832172623154998E+02
              0.111800738529388E+03
              0.843690730469992E+02
              0.364414157505566E+02
             -0.278689718845860E+02
             -0.520828514744448E+02
              0.491228392363378E+02
              0.206493895610771E+02
              0.966460967919653E+02
              0.885791510223345E+02
              0.750870865355992E+02
              0.392974279370665E+02
             -0.156029828708018E+03
             -0.419851026749254E+02
              0.199060451199060E+02
             -0.329588074203795E+02
              0.903991776240864E+02
              0.388115848865655E+02
             -0.358725778381197E+02
             -0.108838925383775E+02
              0.104643060049851E+03
              0.101755268708744E+02
             -0.115398895484639E+02
             -0.177040553059866E+03
              0.434022612527342E+02
             -0.385205024356238E+02
              0.793579280947687E+02
             -0.684773084809947E+02
             -0.105415754472031E+02
              0.276125009984576E+02
             -0.601757940735968E+02
             -0.995520248485467E+02
              0.448658246399577E+01
              0.340635974138757E+02
             -0.397237917921495E+01
             -0.260180413928050E+02
             -0.144789263324138E+02
             -0.598311610341354E+02
             -0.113014546328337E+03
              0.141498471728866E+01
             -0.425616653682118E+02
             -0.104757942129392E+02
             -0.451950136318189E+02
              0.180663443035150E+03
              0.379845505484332E+02
             -0.608441052136980E+02
             -0.569285563380681E+02
              0.240519639165910E+02
              0.439352974928846E+02
              0.692522817163272E+02
             -0.496929561561247E+02
             -0.109339370453364E+03
             -0.318325887220460E+02
             -0.596190177286226E+02
              0.612145177698849E+02
              0.699760384580752E+02
              0.950256175761888E+01
              0.273115439804689E+02
              0.477183119267671E+02
              0.577891749474317E+02
             -0.109837919157557E+03
             -0.233074498402958E+02
              0.724428575241018E+01
             -0.165640008441517E+02
             -0.477086127465782E+02
              0.194224180621524E+01
             -0.183154366004084E+02
             -0.441138512451801E+02
             -0.445432490077469E+02
              0.183947126242380E+02
             -0.137846168383839E+03
             -0.703551266642790E+02
             -0.596614026538754E+02
              0.123798182843835E+03
             -0.217551904668215E+02
             -0.128458631072401E+02
              0.133855369522865E+03
             -0.657116876203728E+02
              0.812719360495932E+02
[...]
              0.564200756676605E+02
              0.256168778859731E+02
              0.416799125810091E+02
             -0.233274540256616E+01
              0.128089895454514E+03
              0.214510230517263E+02
             -0.197946154240126E+02
              0.237110819932821E+01
             -0.129247404324094E+02
              0.105122220962969E+03
             -0.599948566028129E+01
              0.225994386528157E+02
              0.758200779397692E+02
              0.166621589564944E+02
             -0.598390649633970E+02
             -0.872018139554635E+02
              0.927637290957705E+00
             -0.980717288025847E+02
              0.332579573986583E+02
             -0.198882885083279E+02
             -0.459986412422156E+02
              0.414399142278311E+02
              0.159717388099875E+02
              0.374016949036800E+02
              0.333872039092580E+01
              0.595022277013279E+02
             -0.972518516534498E+02
             -0.886351762424164E+01
             -0.848117937263785E+02
              0.153210150949175E+02
              0.459312782911970E+02
             -0.842665069968552E+01
             -0.319193823936055E+02
              0.683581628494222E+02
             -0.317204021504442E+02
              0.222455817724998E+02
             -0.198847078474283E+02
              0.488232613521861E+02
              0.589161819864079E+02
             -0.254007485786608E+02
              0.507064919661177E+02
              0.194406674383418E+02
             -0.522423414008232E+02
             -0.312711756086333E+02
              0.843187962886320E+02
              0.399204695874122E+02
             -0.386493838797247E+01
             -0.113295243816245E+02
              0.123932249163028E+03
              0.743162615250265E+02
              0.272103040694113E+02
             -0.793490875119988E+02
              0.124412654333086E+03
             -0.562896299347795E+02
             -0.696949785925846E+02
             -0.107959897895352E+03
              0.520653346312254E+02
             -0.988161002535982E+02
              0.428537275167600E+02
              0.703888141820222E+02
              0.521790040535803E+02
              0.110731023820740E+02
              0.310588812012529E+02
             -0.778214013012063E+02
             -0.276915157479465E+02
             -0.250656341839259E+02
              0.376011662287140E+02
              0.839688661036436E+02
              0.827927807610996E+02
              0.633722226229713E+02
             -0.155965150066060E+02
              0.225134507616037E+02
              0.316735108131047E+01
             -0.248918775415246E+02
              0.371799200584705E+02
              0.355034189225402E+02
             -0.507230666788719E+02
             -0.514116146665995E+02
             -0.235410482363278E+02
              0.545602869033885E+02
              0.278334722052134E+02
             -0.371770933267049E+02
             -0.647663666909087E+02
             -0.889144924131092E+02
              0.184965441295472E+01
              0.253139455704514E+02
             -0.343827206008569E+02
              0.126342777207321E+03
              0.115272413338789E+01
             -0.146710823358786E+03
              0.367781730804433E+02
              0.605685004052299E+02
             -0.219597649066240E+02
              0.230519133707469E+01
             -0.331834094897113E+02
              0.563313035191443E+02
              0.278021953757963E+02
             -0.741372089071072E+02
              0.880566432155362E+02
              0.596025319473847E+01
             -0.351761242231395E+02
             -0.433371080852691E+02
              0.176498463188903E+03
              0.789382752156253E+02
             -0.198054580633633E+02
              0.435824006905576E+02
             -0.859865564311748E+02
             -0.186881368704051E+02
             -0.764392746059034E+02
              0.295581712741670E+02
              0.549139307112940E+02
              0.603346821370262E+02
             -0.264347639183586E+02
              0.452376897191493E+01
              0.751818604475442E+02
              0.240691933591938E+02
              0.447774289615286E+02
              0.182287333278026E+02
             -0.100942282394012E+02
              0.218603085905528E+00
             -0.140325021517235E+02
              0.155855456063513E+02
              0.524593157427785E+01
             -0.683119829743283E+02
              0.104599537991242E+03
              0.402803510883458E+02
             -0.741828914213639E+02
             -0.545077814956007E+02
             -0.769155482060577E+02
             -0.333140573160570E+02
             -0.242002643241225E+02
             -0.608401349907015E+02
             -0.600489690076406E+02
              0.723553562668716E+02
              0.575980622482114E+02
             -0.795090622130044E+01
              0.864527313770684E+02
              0.124612904760504E+02
             -0.138878165495892E+03
              0.745497335577072E+02
              0.127522473838334E+02
              0.585495453717732E+02
              0.791114762719093E+01
              0.658106569684358E+01
              0.119173994163559E+02
              0.316746404724805E+02
             -0.579866532662886E+02
             -0.273719139079124E+02
             -0.547629692113500E+02
             -0.453979638959131E+02
              0.188234939207585E+02
             -0.503102631298036E+02
              0.242974035391670E+02
              0.333717322975913E+02
             -0.308408314248863E+02
             -0.196690464951198E+02
              0.125997540402147E+01
              0.862802473819388E+02
              0.130864102948793E+02
              0.828527900644921E+02
              0.296810200984015E+02
             -0.109578373964542E+03
             -0.363257047404861E+02
              0.373887024197380E+02
              0.862210692890851E+02
              0.142801761021844E+02
              0.354207028133101E+02
              0.793185976705990E+02
             -0.459336716795133E+02
             -0.705418443636880E+02
              0.977709960258899E+02
              0.564453123109922E+01
             -0.103389555023425E+03
              0.377458947260827E+02
              0.653537169629370E+02
             -0.167844841196422E+02
             -0.680963763334569E+02
              0.141654050562314E+02
              0.288086325165841E+01
             -0.331134083598543E+02
              0.126810476012110E+02
             -0.110335920974342E+02
              0.153752317699895E+03
              0.447395073030425E+02
             -0.650839207991263E+02
              0.192525470897756E+02
              0.936509549871036E+02
             -0.632488161747266E+02
             -0.164730726675928E+02
             -0.598491493425984E+02
              0.479279705266894E+02
              0.151561065757785E+02
              0.317436806640168E+02
              0.575496173485675E+01
              0.108821501989086E+03
             -0.618469335236182E+02
             -0.488862818358899E+02
             -0.471666822532212E+02
              0.414304292776636E+02
              0.108111447868181E+03
             -0.180923659789037E+02
              0.441982349040331E+02
             -0.628132470892056E+02
              0.120208146169779E+02
             -0.201391723592667E+02
              0.433801082735380E+01
             -0.243062838290945E+02
             -0.198398920843557E+02
             -0.194743123445939E+02
              0.160877906509264E+02
              0.314695349055697E+02
             -0.685020629728233E+02
              0.506996426379917E+02
             -0.816484186799215E+02
              0.616424367086772E+02
             -0.651202671023262E+02
              0.105460135647986E+03
              0.579281424725613E+02
              0.667294780443065E+02
              0.165600021902573E+02
              0.194766386742695E+02
             -0.145759977547461E+03
              0.237024717092664E+02
              0.535176758333841E+01
              0.138873794979288E+02
             -0.237483410029907E+02
              0.112696612611732E+03
             -0.262055366018132E+02
             -0.466026700585928E+02
             -0.109068558560625E+03
             -0.378346282462137E+02
             -0.523248696829556E+02
             -0.455234025705929E+02
             -0.102694013102343E+02
             -0.249537443317919E+02
             -0.316058379084432E+02
             -0.485363892164398E+02
              0.371672196913528E+02
              0.117107750647521E+03
              0.989227037919509E+02
             -0.175266786278685E+02
             -0.118988102504425E+03
             -0.506869135145248E+02
              0.243500263327785E+02
              0.242991717252426E+02
              0.388670680682274E+02
              0.273137999767861E+02
              0.479245051310374E+01
              0.116189439807402E+03
             -0.282558617993414E+02
              0.571221387854540E+02
              0.293076843083969E+02
             -0.395744369937064E+02
             -0.189726055201738E+02
              0.526218458547414E+02
             -0.280800132733174E+02
             -0.172917616469910E+02
             -0.128303543029811E+02
              0.677839875651850E+02
             -0.891440922838908E+02
             -0.712972259156174E+01
             -0.687955860199704E+02
             -0.146164138222632E+03
             -0.353004917848125E+00
             -0.215262041911032E+02
              0.568293513143799E+02
              0.631829295096135E+02
              0.864998098540252E+02
             -0.562505534153148E+02
              0.873274908919755E+02
              0.218531146099429E+02
             -0.324607862525017E+02
              0.117104574376767E+02
             -0.276141298219741E+02
             -0.163841301376792E+02
              0.504988899522007E+02
             -0.417849392508563E+02
              0.112068081064872E+03
             -0.299314973957282E+02
             -0.619275189021449E+02
              0.117173402847194E+03
             -0.634678154930992E+02
             -0.512505319166962E+01
              0.616412361244551E+01
              0.338969205215483E+02
             -0.495727918355821E+02
             -0.377653178794428E+02
              0.601675558345320E+02
             -0.905292046532755E+02
              0.746902080629251E+02
              0.110617141744380E+02
              0.535420819751059E+02
              0.775636372014734E+02
              0.198509845695633E+02
             -0.107752449972417E+03
             -0.466348593148954E+02
             -0.777682218431896E+02
             -0.463208571696487E+02
             -0.123070000395636E+02
              0.166715826809527E+02
             -0.363584506585607E+02
             -0.659347153133240E+00
             -0.108261318247407E+03
              0.600175962775202E+01
             -0.697706656224951E+02
              0.676455041608580E+02
             -0.397184820961447E+02
             -0.950173324827420E+01
              0.510347001273199E+02
              0.100428631218853E+02
              0.474881328754280E+02
             -0.904123794855753E+02
              0.151028559658720E+02
              0.615164209067233E+01
              0.389378984720265E+02
              0.624749219454481E+02
             -0.115728520274046E+02
             -0.711151507101749E+02
             -0.410455668494190E+02
             -0.290233456587258E+02
             -0.856754908005587E+01
              0.662464583508678E+02
              0.430113265618650E+02
             -0.435824821213470E+02
             -0.409325598877173E+02
              0.299844407443951E+02
              0.327006142060548E+02
             -0.883680573755096E+02
              0.206307203810187E+02
              0.634112450827213E+02
             -0.282079226233901E+01
              0.797158933332950E+02
              0.369004237822505E+02
              0.627863781305040E+02
              0.954891760928920E+02
              0.144078298200733E+02
             -0.130097456956585E+03
              0.179657909318898E+02
              0.140699396170649E+03
              0.102219709197533E+03
             -0.704969424609669E+02
              0.635669330644706E+01
              0.915507127714378E+02
              0.793141581433699E+02
              0.349066344977975E+02
             -0.211127974697478E+02
              0.350664777281011E+02
              0.724928668487529E+02
             -0.334853763072899E+02
             -0.215811630809169E+02
              0.491202680763481E+02
             -0.299068280800941E+01
              0.440443797479577E+02
             -0.136161666303619E+02
              0.919450045464171E+02
             -0.350856271997023E+02
              0.211255183375750E+02
             -0.389814419881170E+02
              0.455163601469528E+02
             -0.618983521421040E+01
              0.678341988431356E+02
              0.490681610404661E+01
              0.303044728076143E+02
             -0.431066360298212E+02
             -0.301032245962666E+02
             -0.153412740114453E+02
             -0.139588026568086E+02
              0.737905164903704E+02
              0.362869457821325E+02
              0.895608359083843E+02
              0.826587480065189E+02
              0.231939385432624E+02
              0.418235501180615E+01
              0.881037694817748E+02
              0.495373041401744E+02
              0.538202087691388E-01
              0.858248035200877E+02
             -0.704255092962314E+02
              0.246730976677905E+02
             -0.458031045937787E+02
             -0.124618652528760E+02
              0.118664877940995E+03
             -0.166043239887674E+02
             -0.492837400765200E+01
             -0.129328355616349E+02
              0.974920384229145E+02
             -0.209458075209749E+02
             -0.179673195054818E+01
              0.196669752622770E+03
             -0.582500417062976E+02
             -0.726805597170871E+02
             -0.726946785082783E+02
             -0.464619362124386E+02
              0.423081328937024E+02
             -0.189805580279685E+02
              0.107304838566580E+02
             -0.494782817357941E+01
              0.248933784608503E+02
              0.400052579716284E+02
              0.466777419269140E+02
              0.670649528115553E+02
              0.430117407262011E+02
              0.438501713269510E+02
             -0.811165822736089E+02
             -0.838352428231543E+02
             -0.188845384035493E+02
             -0.748874903939886E+02
              0.118925617549134E+03
              0.100183579174939E+03
              0.472071276998068E+02
              0.130245451846781E+03
             -0.651685832783048E+02
             -0.280039304605248E+02
             -0.403532348676130E+02
              0.112657724524005E+03
 
 BEEF-vdW xc energy contributions
            1 :    -1018.141741126997     
            2 :     933.0420525923355     
            3 :    -787.8669600402900     
            4 :     621.2177267013644     
            5 :    -469.5143409715304     
            6 :     355.2812579043961     
            7 :    -283.4370602610938     
            8 :     244.5705133603883     
            9 :    -222.0846963773067     
           10 :     200.1471599222664     
           11 :    -169.7373042821584     
           12 :     130.7002541114018     
           13 :    -89.42014551925968     
           14 :     53.95297312583034     
           15 :    -29.52942147654585     
           16 :     16.51343973042412     
           17 :    -11.13521060243215     
           18 :     7.974268141985704     
           19 :    -2.737477826565282     
           20 :    -5.927263888394009     
           21 :     16.30172492296333     
           22 :    -25.07294492375195     
           23 :     29.51441114433919     
           24 :    -29.11727667659943     
           25 :     25.81068817039431     
           26 :    -22.78790145716425     
           27 :     22.71473263164694     
           28 :    -26.32442742607077     
           29 :     32.09926680045737     
           30 :    -37.14962159361357     
           31 :    -87.00161878639619     
           32 :    -62.50193923960501     

     Writing all to output data dir ./PbI2.save/
 
     init_run     :      4.06s CPU      7.15s WALL (       1 calls)
     electrons    :     39.68s CPU     41.34s WALL (       1 calls)
     forces       :      3.28s CPU      3.49s WALL (       1 calls)
     stress       :     34.87s CPU     35.37s WALL (       1 calls)

     Called by init_run:
     wfcinit      :      0.91s CPU      3.71s WALL (       1 calls)
     potinit      :      2.14s CPU      2.26s WALL (       1 calls)
     hinit0       :      0.48s CPU      0.51s WALL (       1 calls)

     Called by electrons:
     c_bands      :     33.89s CPU     34.89s WALL (       2 calls)
     sum_band     :      4.45s CPU      4.81s WALL (       2 calls)
     v_of_rho     :      2.18s CPU      2.31s WALL (       2 calls)
     v_h          :      0.01s CPU      0.01s WALL (       2 calls)
     v_xc         :     19.31s CPU     21.20s WALL (      38 calls)
     newd         :      0.62s CPU      0.86s WALL (       2 calls)
     PAW_pot      :      0.88s CPU      0.89s WALL (       2 calls)
     mix_rho      :      0.00s CPU      0.00s WALL (       2 calls)
     vdW_kernel   :      1.17s CPU      1.18s WALL (       1 calls)

     Called by c_bands:
     init_us_2    :      0.38s CPU      0.40s WALL (      24 calls)
     init_us_2:cp :      0.38s CPU      0.40s WALL (      24 calls)
     cegterg      :     33.26s CPU     34.02s WALL (       8 calls)

     Called by sum_band:
     sum_band:wei :      0.00s CPU      0.00s WALL (       2 calls)
     sum_band:loo :      3.71s CPU      3.76s WALL (       2 calls)
     sum_band:buf :      0.13s CPU      0.15s WALL (       8 calls)
     sum_band:ini :      0.11s CPU      0.12s WALL (       8 calls)
     sum_band:cal :      0.61s CPU      0.62s WALL (       8 calls)
     sum_band:bec :      0.01s CPU      0.01s WALL (       8 calls)
     addusdens    :      0.70s CPU      1.02s WALL (       2 calls)
     addusd:skk   :      0.01s CPU      0.02s WALL (       4 calls)
     addusd:dgemm :      0.32s CPU      0.62s WALL (       4 calls)
     addusd:qvan2 :      0.35s CPU      0.35s WALL (       4 calls)

     Called by *egterg:
     cdiaghg      :      8.29s CPU      8.33s WALL (      63 calls)
     cegterg:over :      2.59s CPU      2.63s WALL (      63 calls)
     cegterg:upda :      2.13s CPU      2.25s WALL (      63 calls)
     cegterg:last :      0.75s CPU      0.75s WALL (       8 calls)
     h_psi        :     16.59s CPU     16.86s WALL (      71 calls)
     s_psi        :      1.77s CPU      1.78s WALL (      71 calls)
     g_psi        :      0.04s CPU      0.04s WALL (      63 calls)

     Called by h_psi:
     h_psi:calbec :      1.87s CPU      1.88s WALL (      71 calls)
     vloc_psi     :     12.76s CPU     12.88s WALL (      71 calls)
     add_vuspsi   :      1.83s CPU      1.85s WALL (      71 calls)

     General routines
     calbec       :      4.13s CPU      4.16s WALL (      99 calls)
     fft          :      9.31s CPU      9.41s WALL (    2232 calls)
     ffts         :      0.01s CPU      0.01s WALL (       4 calls)
     fftw         :     14.81s CPU     14.95s WALL (    9934 calls)
     interpolate  :      0.02s CPU      0.02s WALL (       2 calls)
 
     Parallel routines

     PAW routines
     PAW_pot      :      0.88s CPU      0.89s WALL (       2 calls)
 
     PWSCF        :   1m39.32s CPU   1m48.63s WALL

 
   This run was terminated on:   6:40: 0  28Mar2024            

=------------------------------------------------------------------------------=
   JOB DONE.
=------------------------------------------------------------------------------=
