
     Program PWSCF v.7.1 starts on 27Mar2024 at 23: 1:51 

     This program is part of the open-source Quantum ESPRESSO suite
     for quantum simulation of materials; please cite
         "P. Giannozzi et al., J. Phys.:Condens. Matter 21 395502 (2009);
         "P. Giannozzi et al., J. Phys.:Condens. Matter 29 465901 (2017);
         "P. Giannozzi et al., J. Chem. Phys. 152 154105 (2020);
          URL http://www.quantum-espresso.org", 
     in publications or presentations arising from this work. More details at
     http://www.quantum-espresso.org/quote

     Parallel version (MPI & OpenMP), running on      20 processor cores
     Number of MPI processes:                20
     Threads/MPI process:                     1

     MPI processes distributed on     1 nodes
     1988635 MiB available memory on the printing compute node when the environment starts
 
     Reading input from espresso.pwi
Warning: card &CELL ignored
Warning: card    CELL_DYNAMICS    = 'BFGS' ignored
Warning: card / ignored

     Current dimensions of program PWSCF are:
     Max number of different atomic species (ntypx) = 10
     Max number of k-points (npk) =  40000
     Max angular momentum in pseudopotentials (lmaxx) =  4
     file Pb.pbe-dn-kjpaw_psl.1.0.0.UPF: wavefunction(s)  6S 6P 5D renormalized
     file I.pbe-dn-kjpaw_psl.1.0.0.UPF: wavefunction(s)  5S 5P renormalized

     **************************************************************************
     Initializing libbeef V0.1.2 with the BEEF-vdW functional.
     Citation: Wellendorff et al., PRB 85, 235149 (2012).
     **************************************************************************


     IMPORTANT: XC functional enforced from input :
     Exchange-correlation= BEEF-VDW
                           (   1   4  43  14   2   0   0)
     Any further DFT definition will be discarded
     Please, verify this is what you really want

 
     R & G space division:  proc/nbgrp/npool/nimage =      20
     Subspace diagonalization in iterative solution of the eigenvalue problem:
     a serial algorithm will be used

 
     Parallelization info
     --------------------
     sticks:   dense  smooth     PW     G-vecs:    dense   smooth      PW
     Min         381     306     80                42326    30292    4074
     Max         383     307     81                42331    30298    4079
     Sum        7639    6121   1615               846533   605897   81527
 
     Using Slab Decomposition
 


     bravais-lattice index     =            4
     lattice parameter (alat)  =      17.8060  a.u.
     unit-cell volume          =    7656.2263 (a.u.)^3
     number of atoms/cell      =           24
     number of atomic types    =            2
     number of electrons       =       386.00
     number of Kohn-Sham states=          232
     kinetic-energy cutoff     =      70.0000  Ry
     charge density cutoff     =     350.0000  Ry
     scf convergence threshold =      1.0E-07
     mixing beta               =       0.7000
     number of iterations used =            8  plain     mixing
     energy convergence thresh.=      1.0E-04
     force convergence thresh. =      1.0E-03
     Exchange-correlation= BEEF-VDW
                           (   1   4  43  14   2   0   0)
     nstep                     =           50


     celldm(1)=  17.806016  celldm(2)=   0.000000  celldm(3)=   1.565971
     celldm(4)=   0.000000  celldm(5)=   0.000000  celldm(6)=   0.000000

     crystal axes: (cart. coord. in units of alat)
               a(1) = (   1.000000   0.000000   0.000000 )  
               a(2) = (  -0.500000   0.866025   0.000000 )  
               a(3) = (   0.000000   0.000000   1.565971 )  

     reciprocal axes: (cart. coord. in units 2 pi/alat)
               b(1) = (  1.000000  0.577350 -0.000000 )  
               b(2) = (  0.000000  1.154701  0.000000 )  
               b(3) = (  0.000000 -0.000000  0.638581 )  


     PseudoPot. # 1 for Pb read from file:
     /trace/group/acmegroup/atimmins/packages/espresso/pseudo/psl_1.0.0/pslibrary.1.0.0/pbe/PSEUDOPOTENTIALS/Pb.pbe-dn-kjpaw_psl.1.0.0.UPF
     MD5 check sum: 39ab5b8a6bbd56b7735ad9f188aac93a
     Pseudo is Projector augmented-wave + core cor, Zval = 14.0
     Generated using 'atomic' code by A. Dal Corso  v.7.1
     Shape of augmentation charge: PSQ
     Using radial grid of 1281 points,  6 beta functions with: 
                l(1) =   0
                l(2) =   0
                l(3) =   1
                l(4) =   1
                l(5) =   2
                l(6) =   2
     Q(r) pseudized with 0 coefficients 


     PseudoPot. # 2 for I  read from file:
     /trace/group/acmegroup/atimmins/packages/espresso/pseudo/psl_1.0.0/pslibrary.1.0.0/pbe/PSEUDOPOTENTIALS/I.pbe-dn-kjpaw_psl.1.0.0.UPF
     MD5 check sum: bfa8781bc1224d19af3f3980e3fab11e
     Pseudo is Projector augmented-wave + core cor, Zval = 17.0
     Generated using 'atomic' code by A. Dal Corso  v.7.1
     Shape of augmentation charge: PSQ
     Using radial grid of 1247 points,  6 beta functions with: 
                l(1) =   0
                l(2) =   0
                l(3) =   1
                l(4) =   1
                l(5) =   2
                l(6) =   2
     Q(r) pseudized with 0 coefficients 


     atomic species   valence    mass     pseudopotential
        Pb            14.00   207.20000     Pb( 1.00)
        I             17.00   126.90447     I ( 1.00)

     No symmetry found


                                    s                        frac. trans.

      isym =  1     identity                                     

 cryst.   s( 1) = (     1          0          0      )
                  (     0          1          0      )
                  (     0          0          1      )

 cart.    s( 1) = (  1.0000000  0.0000000  0.0000000 )
                  (  0.0000000  1.0000000  0.0000000 )
                  (  0.0000000  0.0000000  1.0000000 )


     point group C_1 (1)    
     there are  1 classes
     the character table:

       E    
A      1.00

     the symmetry operations in each class and the name of the first element:

     E        1
          identity                                               

   Cartesian axes

     site n.     atom                  positions (alat units)
         1           Pb  tau(   1) = (   0.2500068   0.4329836   0.7829793  )
         2           Pb  tau(   2) = (   0.0000153   0.8659852   1.5659567  )
         3           Pb  tau(   3) = (   0.0000051   0.8659943   0.7829710  )
         4           Pb  tau(   4) = (   0.7500170   0.4329726   1.5659715  )
         5           Pb  tau(   5) = (   0.7500068   0.4329816   0.7829858  )
         6           Pb  tau(   6) = (   0.5000153   0.8659833   1.5659633  )
         7           Pb  tau(   7) = (   0.5000051   0.8659923   0.7829776  )
         8           I   tau(   8) = (   0.2500107   0.1443099   0.5818649  )
         9           I   tau(   9) = (   0.2500209   0.1443009   1.3648506  )
        10           I   tau(  10) = (   0.0000091   0.5773207   0.5818567  )
        11           I   tau(  11) = (   0.0000193   0.5773116   1.3648424  )
        12           I   tau(  12) = (   0.7500107   0.1443080   0.5818714  )
        13           I   tau(  13) = (   0.7500209   0.1442990   1.3648571  )
        14           I   tau(  14) = (   0.5000091   0.5773187   0.5818632  )
        15           I   tau(  15) = (   0.5000193   0.5773097   1.3648489  )
        16           I   tau(  16) = (  -0.0000034   0.2886595   0.2011110  )
        17           I   tau(  17) = (   0.0000068   0.2886504   0.9840967  )
        18           I   tau(  18) = (  -0.2500051   0.7216702   0.2011027  )
        19           I   tau(  19) = (  -0.2499949   0.7216611   0.9840884  )
        20           I   tau(  20) = (   0.4999966   0.2886575   0.2011175  )
        21           I   tau(  21) = (   0.5000068   0.2886485   0.9841032  )
        22           I   tau(  22) = (   0.2499949   0.7216682   0.2011092  )
        23           I   tau(  23) = (   0.2500051   0.7216592   0.9840949  )
        24           I   tau(  24) = (   0.2500170   0.4329745   1.5659650  )

   Crystallographic axes

     site n.     atom                  positions (cryst. coord.)
         1           Pb  tau(   1) = (  0.4999900  0.4999663  0.4999959  )
         2           Pb  tau(   2) = (  0.4999921  0.9999536  0.9999906  )
         3           Pb  tau(   3) = (  0.4999871  0.9999640  0.4999906  )
         4           Pb  tau(   4) = (  0.9999938  0.4999537  1.0000001  )
         5           Pb  tau(   5) = (  0.9999888  0.4999641  0.5000001  )
         6           Pb  tau(   6) = (  0.9999910  0.9999514  0.9999948  )
         7           Pb  tau(   7) = (  0.9999860  0.9999618  0.4999948  )
         8           I   tau(   8) = (  0.3333281  0.1666348  0.3715680  )
         9           I   tau(   9) = (  0.3333331  0.1666243  0.8715680  )
        10           I   tau(  10) = (  0.3333253  0.6666325  0.3715628  )
        11           I   tau(  11) = (  0.3333303  0.6666220  0.8715628  )
        12           I   tau(  12) = (  0.8333270  0.1666326  0.3715722  )
        13           I   tau(  13) = (  0.8333320  0.1666221  0.8715722  )
        14           I   tau(  14) = (  0.8333242  0.6666303  0.3715669  )
        15           I   tau(  15) = (  0.8333292  0.6666198  0.8715669  )
        16           I   tau(  16) = (  0.1666542  0.3333152  0.1284257  )
        17           I   tau(  17) = (  0.1666592  0.3333048  0.6284257  )
        18           I   tau(  18) = (  0.1666514  0.8333129  0.1284204  )
        19           I   tau(  19) = (  0.1666564  0.8333025  0.6284204  )
        20           I   tau(  20) = (  0.6666531  0.3333130  0.1284299  )
        21           I   tau(  21) = (  0.6666581  0.3333026  0.6284299  )
        22           I   tau(  22) = (  0.6666503  0.8333107  0.1284246  )
        23           I   tau(  23) = (  0.6666553  0.8333003  0.6284246  )
        24           I   tau(  24) = (  0.4999949  0.4999559  0.9999959  )

     number of k points=     4  Gaussian smearing, width (Ry)=  0.0100
                       cart. coord. in units 2pi/alat
        k(    1) = (   0.0000000   0.0000000   0.0000000), wk =   0.5000000
        k(    2) = (   0.0000000  -0.5773503   0.0000000), wk =   0.5000000
        k(    3) = (   0.5000000  -0.2886751   0.0000000), wk =   0.5000000
        k(    4) = (  -0.5000000  -0.2886751   0.0000000), wk =   0.5000000

                       cryst. coord.
        k(    1) = (   0.0000000   0.0000000   0.0000000), wk =   0.5000000
        k(    2) = (   0.0000000  -0.5000000   0.0000000), wk =   0.5000000
        k(    3) = (   0.5000000  -0.5000000   0.0000000), wk =   0.5000000
        k(    4) = (  -0.5000000  -0.0000000   0.0000000), wk =   0.5000000

     Dense  grid:   846533 G-vectors     FFT dimensions: ( 108, 108, 180)

     Smooth grid:   605897 G-vectors     FFT dimensions: (  96,  96, 150)

     Dynamical RAM for                 wfc:      13.40 MB

     Dynamical RAM for     wfc (w. buffer):      67.01 MB

     Dynamical RAM for           str. fact:       1.29 MB

     Dynamical RAM for           local pot:       0.00 MB

     Dynamical RAM for          nlocal pot:      24.96 MB

     Dynamical RAM for                qrad:       3.00 MB

     Dynamical RAM for          rho,v,vnew:       4.34 MB

     Dynamical RAM for               rhoin:       1.45 MB

     Dynamical RAM for            rho*nmix:      10.33 MB

     Dynamical RAM for           G-vectors:       2.65 MB

     Dynamical RAM for          h,s,v(r/c):      39.42 MB

     Dynamical RAM for          <psi|beta>:       1.53 MB

     Dynamical RAM for                 psi:      53.61 MB

     Dynamical RAM for                hpsi:      53.61 MB

     Dynamical RAM for                spsi:      53.61 MB

     Dynamical RAM for      wfcinit/wfcrot:      28.04 MB

     Dynamical RAM for           addusdens:     131.12 MB

     Dynamical RAM for          addusforce:     152.18 MB

     Dynamical RAM for         addusstress:     129.83 MB

     Estimated static dynamical RAM per process >     110.65 MB

     Estimated max dynamical RAM per process >     322.76 MB

     Estimated total dynamical RAM >       6.30 GB

     Check: negative core charge=   -0.000002

     Initial potential from superposition of free atoms

     starting charge     386.9823, renormalised to     386.0000


     %%%%%%%%%%%%%%%%%%%%%%%%%%%%%%%%%%%%%%%%%%%%%%%%%%%%%%%%%%%%%%%%%%%%%%%%
     %                                                                      %
     % You are using vdW-DF, which was implemented by the Thonhauser group. %
     % Please cite the following two papers that made this development      %
     % possible and the two reviews that describe the various versions:     %
     %                                                                      %
     %   T. Thonhauser et al., PRL 115, 136402 (2015).                      %
     %   T. Thonhauser et al., PRB 76, 125112 (2007).                       %
     %   K. Berland et al., Rep. Prog. Phys. 78, 066501 (2015).             %
     %   D.C. Langreth et al., J. Phys.: Condens. Matter 21, 084203 (2009). %
     %                                                                      %
     % If you are calculating stress with vdW-DF, please also cite:         %
     %                                                                      %
     %   R. Sabatini et al., J. Phys.: Condens. Matter 24, 424209 (2012).   %
     %                                                                      %
     %%%%%%%%%%%%%%%%%%%%%%%%%%%%%%%%%%%%%%%%%%%%%%%%%%%%%%%%%%%%%%%%%%%%%%%%

     %%%%%%%%%%%%%%%%%%%%%%%%%%%%%%%%%%%%%%%%%%%%%%%%%%%%%%%%%%%%%%%%%%%%%%%%
     %                                                                      %
     %  vdW-DF NEWS:                                                        %
     %                                                                      %
     %  * vdW-DF3 is now available. DOI: 10.1021/acs.jctc.0c00471           %
     %    use with input_dft = 'vdW-DF3-opt1' or 'vdW-DF3-opt2'             %
     %                                                                      %
     %  * Unscreened and range-separated vdW-DF hybrid functionals          %
     %    DOI: 10.1063/1.4986522 and 10.1088/1361-648X/ac2ad2               %
     %    use with input_dft = 'vdW-DF-cx0' (etc) and 'vdW-DF-ahcx'         %
     %                                                                      %
     %%%%%%%%%%%%%%%%%%%%%%%%%%%%%%%%%%%%%%%%%%%%%%%%%%%%%%%%%%%%%%%%%%%%%%%%


     Carrying out vdW-DF run using the following parameters:
     Nqs    =  20  Npoints =  1024  r_max =  100.000
     q_mesh =  0.00001000  0.04494208  0.09755937  0.15916263
               0.23128650  0.31572767  0.41458969  0.53033537
               0.66584808  0.82450364  1.01025438  1.22772762
               1.48234092  1.78043706  2.12944203  2.53805004
               3.01644009  3.57652955  4.23227104  5.00000000


     -----------------------------------------------
     Non-local corr. energy    =      11.74246148 Ry
     -----------------------------------------------

     Starting wfcs are  216 randomized atomic wfcs +   16 random wfcs
     Checking if some PAW data can be deallocated... 
       PAW data deallocated on   16 nodes for type:  1
       PAW data deallocated on    3 nodes for type:  2

     total cpu time spent up to now is        9.3 secs

     Self-consistent Calculation

     iteration #  1     ecut=    70.00 Ry     beta= 0.70
     Davidson diagonalization with overlap

---- Real-time Memory Report at c_bands before calling an iterative solver
           350 MiB given to the printing process from OS
             0 MiB allocation reported by mallinfo(arena+hblkhd)
       1988958 MiB available memory on the node where the printing process lives
------------------
     ethr =  1.00E-02,  avg # of iterations =  8.0

     Threshold (ethr) on eigenvalues was too large:
     Diagonalizing with lowered threshold

     Davidson diagonalization with overlap

---- Real-time Memory Report at c_bands before calling an iterative solver
           456 MiB given to the printing process from OS
             0 MiB allocation reported by mallinfo(arena+hblkhd)
       1986497 MiB available memory on the node where the printing process lives
------------------
     ethr =  2.54E-04,  avg # of iterations = 11.8


     -----------------------------------------------
     Non-local corr. energy    =      11.86354358 Ry
     -----------------------------------------------


     total cpu time spent up to now is       68.4 secs

     total energy              =  -15855.91617999 Ry
     estimated scf accuracy    <       0.94645729 Ry

     iteration #  2     ecut=    70.00 Ry     beta= 0.70
     Davidson diagonalization with overlap

---- Real-time Memory Report at c_bands before calling an iterative solver
           487 MiB given to the printing process from OS
             0 MiB allocation reported by mallinfo(arena+hblkhd)
       1985937 MiB available memory on the node where the printing process lives
------------------
     ethr =  2.45E-04,  avg # of iterations = 13.8


     -----------------------------------------------
     Non-local corr. energy    =      11.84483275 Ry
     -----------------------------------------------


     total cpu time spent up to now is      106.3 secs

     total energy              =  -15855.42669670 Ry
     estimated scf accuracy    <       4.75901609 Ry

     iteration #  3     ecut=    70.00 Ry     beta= 0.70
     Davidson diagonalization with overlap

---- Real-time Memory Report at c_bands before calling an iterative solver
           487 MiB given to the printing process from OS
             0 MiB allocation reported by mallinfo(arena+hblkhd)
       1986339 MiB available memory on the node where the printing process lives
------------------
     ethr =  2.45E-04,  avg # of iterations = 10.5


     -----------------------------------------------
     Non-local corr. energy    =      11.82353025 Ry
     -----------------------------------------------


     total cpu time spent up to now is      138.3 secs

     total energy              =  -15856.20374930 Ry
     estimated scf accuracy    <       1.06528893 Ry

     iteration #  4     ecut=    70.00 Ry     beta= 0.70
     Davidson diagonalization with overlap

---- Real-time Memory Report at c_bands before calling an iterative solver
           487 MiB given to the printing process from OS
             0 MiB allocation reported by mallinfo(arena+hblkhd)
       1987516 MiB available memory on the node where the printing process lives
------------------
     ethr =  2.45E-04,  avg # of iterations = 11.3


     -----------------------------------------------
     Non-local corr. energy    =      11.81796032 Ry
     -----------------------------------------------


     total cpu time spent up to now is      166.9 secs

     total energy              =  -15856.35217451 Ry
     estimated scf accuracy    <       0.09187868 Ry

     iteration #  5     ecut=    70.00 Ry     beta= 0.70
     Davidson diagonalization with overlap

---- Real-time Memory Report at c_bands before calling an iterative solver
           487 MiB given to the printing process from OS
             0 MiB allocation reported by mallinfo(arena+hblkhd)
       1986816 MiB available memory on the node where the printing process lives
------------------
     ethr =  2.38E-05,  avg # of iterations =  9.3


     -----------------------------------------------
     Non-local corr. energy    =      11.81516731 Ry
     -----------------------------------------------


     total cpu time spent up to now is      193.6 secs

     total energy              =  -15856.34899651 Ry
     estimated scf accuracy    <       0.06805829 Ry

     iteration #  6     ecut=    70.00 Ry     beta= 0.70
     Davidson diagonalization with overlap

---- Real-time Memory Report at c_bands before calling an iterative solver
           487 MiB given to the printing process from OS
             0 MiB allocation reported by mallinfo(arena+hblkhd)
       1979897 MiB available memory on the node where the printing process lives
------------------
     ethr =  1.76E-05,  avg # of iterations = 10.8


     -----------------------------------------------
     Non-local corr. energy    =      11.81271333 Ry
     -----------------------------------------------


     total cpu time spent up to now is      222.1 secs

     total energy              =  -15856.34281069 Ry
     estimated scf accuracy    <       0.09365001 Ry

     iteration #  7     ecut=    70.00 Ry     beta= 0.70
     Davidson diagonalization with overlap

---- Real-time Memory Report at c_bands before calling an iterative solver
           487 MiB given to the printing process from OS
             0 MiB allocation reported by mallinfo(arena+hblkhd)
       1979377 MiB available memory on the node where the printing process lives
------------------
     ethr =  1.76E-05,  avg # of iterations = 11.8


     -----------------------------------------------
     Non-local corr. energy    =      11.81144907 Ry
     -----------------------------------------------


     total cpu time spent up to now is      251.4 secs

     total energy              =  -15856.34604507 Ry
     estimated scf accuracy    <       0.01606594 Ry

     iteration #  8     ecut=    70.00 Ry     beta= 0.70
     Davidson diagonalization with overlap

---- Real-time Memory Report at c_bands before calling an iterative solver
           487 MiB given to the printing process from OS
             0 MiB allocation reported by mallinfo(arena+hblkhd)
       1979884 MiB available memory on the node where the printing process lives
------------------
     ethr =  4.16E-06,  avg # of iterations = 15.3


     -----------------------------------------------
     Non-local corr. energy    =      11.81070910 Ry
     -----------------------------------------------


     total cpu time spent up to now is      287.8 secs

     total energy              =  -15856.34638995 Ry
     estimated scf accuracy    <       0.00711930 Ry

     iteration #  9     ecut=    70.00 Ry     beta= 0.70
     Davidson diagonalization with overlap

---- Real-time Memory Report at c_bands before calling an iterative solver
           487 MiB given to the printing process from OS
             0 MiB allocation reported by mallinfo(arena+hblkhd)
       1982212 MiB available memory on the node where the printing process lives
------------------
     ethr =  1.84E-06,  avg # of iterations =  9.8


     -----------------------------------------------
     Non-local corr. energy    =      11.81007069 Ry
     -----------------------------------------------


     total cpu time spent up to now is      316.5 secs

     total energy              =  -15856.34740906 Ry
     estimated scf accuracy    <       0.00161282 Ry

     iteration # 10     ecut=    70.00 Ry     beta= 0.70
     Davidson diagonalization with overlap

---- Real-time Memory Report at c_bands before calling an iterative solver
           487 MiB given to the printing process from OS
             0 MiB allocation reported by mallinfo(arena+hblkhd)
       1978563 MiB available memory on the node where the printing process lives
------------------
     ethr =  4.18E-07,  avg # of iterations =  8.8


     -----------------------------------------------
     Non-local corr. energy    =      11.80929922 Ry
     -----------------------------------------------


     total cpu time spent up to now is      346.3 secs

     total energy              =  -15856.34768533 Ry
     estimated scf accuracy    <       0.00048422 Ry

     iteration # 11     ecut=    70.00 Ry     beta= 0.70
     Davidson diagonalization with overlap

---- Real-time Memory Report at c_bands before calling an iterative solver
           489 MiB given to the printing process from OS
             0 MiB allocation reported by mallinfo(arena+hblkhd)
       1980984 MiB available memory on the node where the printing process lives
------------------
     ethr =  1.25E-07,  avg # of iterations =  8.0


     -----------------------------------------------
     Non-local corr. energy    =      11.80903458 Ry
     -----------------------------------------------


     total cpu time spent up to now is      374.6 secs

     total energy              =  -15856.34771847 Ry
     estimated scf accuracy    <       0.00019991 Ry

     iteration # 12     ecut=    70.00 Ry     beta= 0.70
     Davidson diagonalization with overlap

---- Real-time Memory Report at c_bands before calling an iterative solver
           489 MiB given to the printing process from OS
             0 MiB allocation reported by mallinfo(arena+hblkhd)
       1979201 MiB available memory on the node where the printing process lives
------------------
     ethr =  5.18E-08,  avg # of iterations =  9.3


     -----------------------------------------------
     Non-local corr. energy    =      11.80854710 Ry
     -----------------------------------------------


     total cpu time spent up to now is      404.7 secs

     total energy              =  -15856.34773917 Ry
     estimated scf accuracy    <       0.00026080 Ry

     iteration # 13     ecut=    70.00 Ry     beta= 0.70
     Davidson diagonalization with overlap

---- Real-time Memory Report at c_bands before calling an iterative solver
           489 MiB given to the printing process from OS
             0 MiB allocation reported by mallinfo(arena+hblkhd)
       1982982 MiB available memory on the node where the printing process lives
------------------
     ethr =  5.18E-08,  avg # of iterations =  9.0


     -----------------------------------------------
     Non-local corr. energy    =      11.80839780 Ry
     -----------------------------------------------


     total cpu time spent up to now is      431.8 secs

     total energy              =  -15856.34777493 Ry
     estimated scf accuracy    <       0.00008062 Ry

     iteration # 14     ecut=    70.00 Ry     beta= 0.70
     Davidson diagonalization with overlap

---- Real-time Memory Report at c_bands before calling an iterative solver
           489 MiB given to the printing process from OS
             0 MiB allocation reported by mallinfo(arena+hblkhd)
       1978989 MiB available memory on the node where the printing process lives
------------------
     ethr =  2.09E-08,  avg # of iterations =  9.5


     -----------------------------------------------
     Non-local corr. energy    =      11.80846828 Ry
     -----------------------------------------------


     total cpu time spent up to now is      459.1 secs

     total energy              =  -15856.34776638 Ry
     estimated scf accuracy    <       0.00013913 Ry

     iteration # 15     ecut=    70.00 Ry     beta= 0.70
     Davidson diagonalization with overlap

---- Real-time Memory Report at c_bands before calling an iterative solver
           489 MiB given to the printing process from OS
             0 MiB allocation reported by mallinfo(arena+hblkhd)
       1979670 MiB available memory on the node where the printing process lives
------------------
     ethr =  2.09E-08,  avg # of iterations =  8.8


     -----------------------------------------------
     Non-local corr. energy    =      11.80844641 Ry
     -----------------------------------------------


     total cpu time spent up to now is      484.8 secs

     total energy              =  -15856.34778075 Ry
     estimated scf accuracy    <       0.00000223 Ry

     iteration # 16     ecut=    70.00 Ry     beta= 0.70
     Davidson diagonalization with overlap

---- Real-time Memory Report at c_bands before calling an iterative solver
           489 MiB given to the printing process from OS
             0 MiB allocation reported by mallinfo(arena+hblkhd)
       1979625 MiB available memory on the node where the printing process lives
------------------
     ethr =  5.77E-10,  avg # of iterations = 14.0


     -----------------------------------------------
     Non-local corr. energy    =      11.80845461 Ry
     -----------------------------------------------


     total cpu time spent up to now is      525.3 secs

     total energy              =  -15856.34778285 Ry
     estimated scf accuracy    <       0.00000143 Ry

     iteration # 17     ecut=    70.00 Ry     beta= 0.70
     Davidson diagonalization with overlap

---- Real-time Memory Report at c_bands before calling an iterative solver
           533 MiB given to the printing process from OS
             0 MiB allocation reported by mallinfo(arena+hblkhd)
       1983072 MiB available memory on the node where the printing process lives
------------------
     ethr =  3.72E-10,  avg # of iterations =  8.5


     -----------------------------------------------
     Non-local corr. energy    =      11.80849939 Ry
     -----------------------------------------------


     total cpu time spent up to now is      548.6 secs

     total energy              =  -15856.34778294 Ry
     estimated scf accuracy    <       0.00000032 Ry

     iteration # 18     ecut=    70.00 Ry     beta= 0.70
     Davidson diagonalization with overlap

---- Real-time Memory Report at c_bands before calling an iterative solver
           533 MiB given to the printing process from OS
             0 MiB allocation reported by mallinfo(arena+hblkhd)
       1978002 MiB available memory on the node where the printing process lives
------------------
     ethr =  8.29E-11,  avg # of iterations =  7.0


     -----------------------------------------------
     Non-local corr. energy    =      11.80849262 Ry
     -----------------------------------------------


     total cpu time spent up to now is      570.8 secs

     total energy              =  -15856.34778292 Ry
     estimated scf accuracy    <       0.00000017 Ry

     iteration # 19     ecut=    70.00 Ry     beta= 0.70
     Davidson diagonalization with overlap

---- Real-time Memory Report at c_bands before calling an iterative solver
           533 MiB given to the printing process from OS
             0 MiB allocation reported by mallinfo(arena+hblkhd)
       1983352 MiB available memory on the node where the printing process lives
------------------
     ethr =  4.32E-11,  avg # of iterations =  9.8


     -----------------------------------------------
     Non-local corr. energy    =      11.80850094 Ry
     -----------------------------------------------


     total cpu time spent up to now is      597.9 secs

     total energy              =  -15856.34778295 Ry
     estimated scf accuracy    <       0.00000018 Ry

     iteration # 20     ecut=    70.00 Ry     beta= 0.70
     Davidson diagonalization with overlap

---- Real-time Memory Report at c_bands before calling an iterative solver
           533 MiB given to the printing process from OS
             0 MiB allocation reported by mallinfo(arena+hblkhd)
       1979058 MiB available memory on the node where the printing process lives
------------------
     ethr =  4.32E-11,  avg # of iterations =  9.3


     -----------------------------------------------
     Non-local corr. energy    =      11.80849419 Ry
     -----------------------------------------------


     total cpu time spent up to now is      623.2 secs

     End of self-consistent calculation

          k = 0.0000 0.0000 0.0000 ( 75645 PWs)   bands (ev):

   -42.9594 -42.9594 -42.9338 -42.9336 -42.9304 -41.4387 -41.4387 -41.4383
   -41.4383 -41.4382 -41.4382 -41.4111 -41.4110 -41.4106 -41.4106 -41.4106
   -41.4105 -41.4086 -41.4086 -41.4082 -41.4082 -41.4081 -41.4081 -41.3214
   -41.3214 -41.3210 -41.3210 -41.3210 -41.3209 -41.3209 -41.3208 -41.3205
   -41.3205 -41.3205 -41.3204 -40.8485 -40.8485 -40.8485 -40.8485 -40.8477
   -40.8477 -40.8477 -40.8477 -40.8475 -40.8474 -40.6796 -40.6795 -40.6788
   -40.6788 -40.6786 -40.6786 -40.6756 -40.6756 -40.6755 -40.6755 -40.5421
   -40.5420 -40.5420 -40.5420 -40.5420 -40.5419 -40.5416 -40.5415 -40.5415
   -40.5415 -40.5415 -40.5415 -40.5402 -40.5401 -40.5401 -40.5400 -40.5400
   -40.5400 -40.5398 -40.5397 -40.5396 -40.5396 -40.5396 -40.5396 -40.5395
   -40.5395 -40.5394 -40.5394 -40.5394 -40.5393 -13.1473 -13.1472 -13.1320
   -13.1310 -13.1261 -13.1246 -13.1246 -13.1129 -13.1128 -13.1109 -13.1080
   -13.1079 -13.1027 -13.1015 -13.1014 -12.7378 -12.7226 -12.7226 -12.7142
   -12.7142 -12.7106 -12.7074 -12.7074 -12.7047 -12.7008 -12.7008 -12.7000
   -12.6975 -12.6975 -12.6968 -12.6584 -12.6584 -12.6463 -12.6453 -12.6453
    -9.5964  -8.1106  -8.0807  -8.0804  -8.0633  -7.9945  -7.9943  -7.8339
    -7.6684  -7.5580  -7.4916  -7.3778  -7.3576  -7.3575  -7.3480  -7.2629
    -7.2628  -3.8376  -3.8376  -3.4780  -3.4064  -3.4063  -3.3712  -2.9267
    -0.0592  -0.0481  -0.0478   1.1233   1.1234   1.1821   1.3103   1.3103
     1.3701   1.5741   1.5742   1.6383   1.8615   2.0558   2.1777   2.1777
     2.1816   2.1926   2.1927   2.2360   2.2375   2.2375   2.3687   2.3931
     2.3935   2.4314   2.4317   2.4393   2.4394   2.4586   2.6650   2.7420
     2.7420   2.9444   2.9551   2.9597   2.9597   3.0148   3.0148   3.1138
     3.1144   3.1144   3.1750   3.1750   3.2501   3.2629   3.2629   3.4987
     3.5189   3.7957   3.7959   6.0881   6.3056   6.5109   6.5110   6.8501
     6.8504   6.9402   6.9811   7.0097   7.0098   7.0883   7.0883   7.1336
     7.3661   7.3664   7.6553   7.6554   7.6830   8.0151   8.0437   8.0438
     8.9991   9.0133   9.0134   9.7381   9.7856   9.7856   9.8002  10.3681
    10.9758  10.9760  11.0209  11.1441  11.1442  11.1588  11.3501  11.3598

     occupation numbers 
     1.0000   1.0000   1.0000   1.0000   1.0000   1.0000   1.0000   1.0000
     1.0000   1.0000   1.0000   1.0000   1.0000   1.0000   1.0000   1.0000
     1.0000   1.0000   1.0000   1.0000   1.0000   1.0000   1.0000   1.0000
     1.0000   1.0000   1.0000   1.0000   1.0000   1.0000   1.0000   1.0000
     1.0000   1.0000   1.0000   1.0000   1.0000   1.0000   1.0000   1.0000
     1.0000   1.0000   1.0000   1.0000   1.0000   1.0000   1.0000   1.0000
     1.0000   1.0000   1.0000   1.0000   1.0000   1.0000   1.0000   1.0000
     1.0000   1.0000   1.0000   1.0000   1.0000   1.0000   1.0000   1.0000
     1.0000   1.0000   1.0000   1.0000   1.0000   1.0000   1.0000   1.0000
     1.0000   1.0000   1.0000   1.0000   1.0000   1.0000   1.0000   1.0000
     1.0000   1.0000   1.0000   1.0000   1.0000   1.0000   1.0000   1.0000
     1.0000   1.0000   1.0000   1.0000   1.0000   1.0000   1.0000   1.0000
     1.0000   1.0000   1.0000   1.0000   1.0000   1.0000   1.0000   1.0000
     1.0000   1.0000   1.0000   1.0000   1.0000   1.0000   1.0000   1.0000
     1.0000   1.0000   1.0000   1.0000   1.0000   1.0000   1.0000   1.0000
     1.0000   1.0000   1.0000   1.0000   1.0000   1.0000   1.0000   1.0000
     1.0000   1.0000   1.0000   1.0000   1.0000   1.0000   1.0000   1.0000
     1.0000   1.0000   1.0000   1.0000   1.0000   1.0000   1.0000   1.0000
     1.0000   1.0000   1.0000   1.0000   1.0000   1.0000   1.0000   1.0000
     1.0000   1.0000   1.0000   1.0000   1.0000   1.0000   1.0000   1.0000
     1.0000   1.0000   1.0000   1.0000   1.0000   1.0000   1.0000   1.0000
     1.0000   1.0000   1.0000   1.0000   1.0000   1.0000   1.0000   1.0000
     1.0000   1.0000   1.0000   1.0000   1.0000   1.0000   1.0000   1.0000
     1.0000   1.0000   1.0000   1.0000   1.0000   1.0000   1.0000   0.9949
     0.9909   0.3022   0.3018   0.0000   0.0000   0.0000   0.0000   0.0000
     0.0000   0.0000   0.0000   0.0000   0.0000   0.0000   0.0000   0.0000
     0.0000   0.0000   0.0000   0.0000   0.0000   0.0000   0.0000   0.0000
     0.0000   0.0000   0.0000   0.0000   0.0000   0.0000   0.0000   0.0000
     0.0000   0.0000   0.0000   0.0000   0.0000   0.0000   0.0000   0.0000

          k = 0.0000-0.5774 0.0000 ( 75730 PWs)   bands (ev):

   -42.9594 -42.9594 -42.9338 -42.9336 -42.9304 -41.4387 -41.4387 -41.4383
   -41.4383 -41.4382 -41.4382 -41.4111 -41.4110 -41.4106 -41.4106 -41.4106
   -41.4105 -41.4086 -41.4086 -41.4082 -41.4082 -41.4081 -41.4081 -41.3214
   -41.3214 -41.3210 -41.3210 -41.3210 -41.3209 -41.3209 -41.3208 -41.3205
   -41.3205 -41.3205 -41.3204 -40.8485 -40.8485 -40.8485 -40.8485 -40.8477
   -40.8477 -40.8477 -40.8477 -40.8475 -40.8474 -40.6796 -40.6795 -40.6788
   -40.6788 -40.6786 -40.6786 -40.6756 -40.6756 -40.6755 -40.6755 -40.5421
   -40.5420 -40.5420 -40.5420 -40.5420 -40.5420 -40.5416 -40.5415 -40.5415
   -40.5415 -40.5415 -40.5415 -40.5402 -40.5401 -40.5401 -40.5400 -40.5400
   -40.5400 -40.5397 -40.5397 -40.5396 -40.5396 -40.5396 -40.5396 -40.5395
   -40.5395 -40.5394 -40.5394 -40.5394 -40.5394 -13.1469 -13.1412 -13.1363
   -13.1272 -13.1257 -13.1246 -13.1224 -13.1159 -13.1118 -13.1088 -13.1087
   -13.1075 -13.1067 -13.1057 -13.1016 -12.7304 -12.7230 -12.7182 -12.7159
   -12.7137 -12.7085 -12.7075 -12.7059 -12.7053 -12.7047 -12.7043 -12.6996
   -12.6987 -12.6984 -12.6968 -12.6605 -12.6595 -12.6467 -12.6459 -12.6455
    -9.5840  -8.2509  -8.0939  -8.0927  -8.0211  -7.9817  -7.8453  -7.6724
    -7.6472  -7.6402  -7.6359  -7.4529  -7.3751  -7.3379  -7.3245  -7.2810
    -7.2454  -3.8256  -3.6975  -3.5780  -3.3950  -3.3733  -3.1488  -3.1192
    -0.0329   0.0404   0.1509   1.0439   1.1892   1.2675   1.4347   1.4983
     1.5590   1.5739   1.6081   1.6258   1.6898   1.6944   1.7116   1.7974
     1.9667   2.0466   2.0838   2.1313   2.1761   2.1844   2.2742   2.2981
     2.3471   2.3621   2.4574   2.4851   2.5111   2.5229   2.5587   2.6072
     2.6747   2.8452   2.8532   2.8589   2.9975   3.0160   3.0420   3.0544
     3.0977   3.1336   3.1484   3.1908   3.4721   3.4804   3.5146   3.5479
     3.6940   3.8832   3.9002   6.3878   6.7420   6.8071   6.8626   6.8948
     7.0012   7.0288   7.0782   7.1448   7.1708   7.4022   7.4207   7.4302
     7.4553   7.5261   7.5437   7.5809   7.5850   7.5962   7.8525   7.8817
     9.4463   9.7944   9.8733   9.9777  10.0661  10.1315  10.1594  10.2145
    10.5798  10.5951  10.6366  10.7278  10.7905  10.9031  11.0979  11.1175

     occupation numbers 
     1.0000   1.0000   1.0000   1.0000   1.0000   1.0000   1.0000   1.0000
     1.0000   1.0000   1.0000   1.0000   1.0000   1.0000   1.0000   1.0000
     1.0000   1.0000   1.0000   1.0000   1.0000   1.0000   1.0000   1.0000
     1.0000   1.0000   1.0000   1.0000   1.0000   1.0000   1.0000   1.0000
     1.0000   1.0000   1.0000   1.0000   1.0000   1.0000   1.0000   1.0000
     1.0000   1.0000   1.0000   1.0000   1.0000   1.0000   1.0000   1.0000
     1.0000   1.0000   1.0000   1.0000   1.0000   1.0000   1.0000   1.0000
     1.0000   1.0000   1.0000   1.0000   1.0000   1.0000   1.0000   1.0000
     1.0000   1.0000   1.0000   1.0000   1.0000   1.0000   1.0000   1.0000
     1.0000   1.0000   1.0000   1.0000   1.0000   1.0000   1.0000   1.0000
     1.0000   1.0000   1.0000   1.0000   1.0000   1.0000   1.0000   1.0000
     1.0000   1.0000   1.0000   1.0000   1.0000   1.0000   1.0000   1.0000
     1.0000   1.0000   1.0000   1.0000   1.0000   1.0000   1.0000   1.0000
     1.0000   1.0000   1.0000   1.0000   1.0000   1.0000   1.0000   1.0000
     1.0000   1.0000   1.0000   1.0000   1.0000   1.0000   1.0000   1.0000
     1.0000   1.0000   1.0000   1.0000   1.0000   1.0000   1.0000   1.0000
     1.0000   1.0000   1.0000   1.0000   1.0000   1.0000   1.0000   1.0000
     1.0000   1.0000   1.0000   1.0000   1.0000   1.0000   1.0000   1.0000
     1.0000   1.0000   1.0000   1.0000   1.0000   1.0000   1.0000   1.0000
     1.0000   1.0000   1.0000   1.0000   1.0000   1.0000   1.0000   1.0000
     1.0000   1.0000   1.0000   1.0000   1.0000   1.0000   1.0000   1.0000
     1.0000   1.0000   1.0000   1.0000   1.0000   1.0000   1.0000   1.0000
     1.0000   1.0000   1.0000   1.0000   1.0000   1.0000   1.0000   1.0000
     1.0000   1.0000   1.0000   1.0000   0.9978   0.9971   0.9919   0.9802
     0.7053   0.0768   0.0544   0.0000   0.0000   0.0000   0.0000   0.0000
     0.0000   0.0000   0.0000   0.0000   0.0000   0.0000   0.0000   0.0000
     0.0000   0.0000   0.0000   0.0000   0.0000   0.0000   0.0000   0.0000
     0.0000   0.0000   0.0000   0.0000   0.0000   0.0000   0.0000   0.0000
     0.0000   0.0000   0.0000   0.0000   0.0000   0.0000   0.0000   0.0000

          k = 0.5000-0.2887 0.0000 ( 75730 PWs)   bands (ev):

   -42.9594 -42.9594 -42.9338 -42.9336 -42.9304 -41.4388 -41.4387 -41.4383
   -41.4383 -41.4382 -41.4382 -41.4111 -41.4110 -41.4106 -41.4106 -41.4106
   -41.4105 -41.4086 -41.4086 -41.4082 -41.4082 -41.4081 -41.4081 -41.3214
   -41.3214 -41.3210 -41.3210 -41.3210 -41.3209 -41.3209 -41.3208 -41.3205
   -41.3205 -41.3205 -41.3204 -40.8485 -40.8485 -40.8485 -40.8485 -40.8477
   -40.8477 -40.8477 -40.8477 -40.8475 -40.8474 -40.6796 -40.6795 -40.6788
   -40.6788 -40.6786 -40.6786 -40.6756 -40.6756 -40.6755 -40.6755 -40.5421
   -40.5420 -40.5420 -40.5420 -40.5420 -40.5419 -40.5416 -40.5415 -40.5415
   -40.5415 -40.5415 -40.5415 -40.5402 -40.5401 -40.5401 -40.5400 -40.5400
   -40.5400 -40.5397 -40.5396 -40.5396 -40.5396 -40.5396 -40.5396 -40.5396
   -40.5395 -40.5394 -40.5394 -40.5394 -40.5394 -13.1469 -13.1411 -13.1363
   -13.1272 -13.1256 -13.1246 -13.1225 -13.1157 -13.1119 -13.1089 -13.1086
   -13.1075 -13.1068 -13.1055 -13.1017 -12.7304 -12.7230 -12.7182 -12.7159
   -12.7137 -12.7085 -12.7075 -12.7059 -12.7054 -12.7047 -12.7042 -12.6996
   -12.6987 -12.6984 -12.6968 -12.6605 -12.6595 -12.6467 -12.6459 -12.6455
    -9.5840  -8.2510  -8.0937  -8.0928  -8.0211  -7.9816  -7.8454  -7.6724
    -7.6471  -7.6403  -7.6359  -7.4529  -7.3751  -7.3379  -7.3244  -7.2810
    -7.2454  -3.8256  -3.6974  -3.5782  -3.3950  -3.3733  -3.1488  -3.1192
    -0.0329   0.0407   0.1507   1.0438   1.1891   1.2674   1.4347   1.4984
     1.5590   1.5739   1.6081   1.6260   1.6899   1.6944   1.7115   1.7974
     1.9667   2.0467   2.0837   2.1313   2.1760   2.1843   2.2741   2.2981
     2.3472   2.3619   2.4573   2.4852   2.5111   2.5229   2.5589   2.6070
     2.6746   2.8452   2.8533   2.8590   2.9976   3.0160   3.0421   3.0543
     3.0979   3.1336   3.1484   3.1908   3.4722   3.4804   3.5146   3.5479
     3.6940   3.8832   3.9002   6.3877   6.7420   6.8071   6.8632   6.8949
     7.0009   7.0287   7.0786   7.1441   7.1712   7.4021   7.4206   7.4303
     7.4553   7.5260   7.5435   7.5811   7.5850   7.5962   7.8524   7.8817
     9.4463   9.7941   9.8733   9.9776  10.0662  10.1314  10.1594  10.2144
    10.5798  10.5950  10.6364  10.7277  10.7903  10.9031  11.0978  11.1176

     occupation numbers 
     1.0000   1.0000   1.0000   1.0000   1.0000   1.0000   1.0000   1.0000
     1.0000   1.0000   1.0000   1.0000   1.0000   1.0000   1.0000   1.0000
     1.0000   1.0000   1.0000   1.0000   1.0000   1.0000   1.0000   1.0000
     1.0000   1.0000   1.0000   1.0000   1.0000   1.0000   1.0000   1.0000
     1.0000   1.0000   1.0000   1.0000   1.0000   1.0000   1.0000   1.0000
     1.0000   1.0000   1.0000   1.0000   1.0000   1.0000   1.0000   1.0000
     1.0000   1.0000   1.0000   1.0000   1.0000   1.0000   1.0000   1.0000
     1.0000   1.0000   1.0000   1.0000   1.0000   1.0000   1.0000   1.0000
     1.0000   1.0000   1.0000   1.0000   1.0000   1.0000   1.0000   1.0000
     1.0000   1.0000   1.0000   1.0000   1.0000   1.0000   1.0000   1.0000
     1.0000   1.0000   1.0000   1.0000   1.0000   1.0000   1.0000   1.0000
     1.0000   1.0000   1.0000   1.0000   1.0000   1.0000   1.0000   1.0000
     1.0000   1.0000   1.0000   1.0000   1.0000   1.0000   1.0000   1.0000
     1.0000   1.0000   1.0000   1.0000   1.0000   1.0000   1.0000   1.0000
     1.0000   1.0000   1.0000   1.0000   1.0000   1.0000   1.0000   1.0000
     1.0000   1.0000   1.0000   1.0000   1.0000   1.0000   1.0000   1.0000
     1.0000   1.0000   1.0000   1.0000   1.0000   1.0000   1.0000   1.0000
     1.0000   1.0000   1.0000   1.0000   1.0000   1.0000   1.0000   1.0000
     1.0000   1.0000   1.0000   1.0000   1.0000   1.0000   1.0000   1.0000
     1.0000   1.0000   1.0000   1.0000   1.0000   1.0000   1.0000   1.0000
     1.0000   1.0000   1.0000   1.0000   1.0000   1.0000   1.0000   1.0000
     1.0000   1.0000   1.0000   1.0000   1.0000   1.0000   1.0000   1.0000
     1.0000   1.0000   1.0000   1.0000   1.0000   1.0000   1.0000   1.0000
     1.0000   1.0000   1.0000   1.0000   0.9978   0.9971   0.9919   0.9802
     0.7052   0.0768   0.0543   0.0000   0.0000   0.0000   0.0000   0.0000
     0.0000   0.0000   0.0000   0.0000   0.0000   0.0000   0.0000   0.0000
     0.0000   0.0000   0.0000   0.0000   0.0000   0.0000   0.0000   0.0000
     0.0000   0.0000   0.0000   0.0000   0.0000   0.0000   0.0000   0.0000
     0.0000   0.0000   0.0000   0.0000   0.0000   0.0000   0.0000   0.0000

          k =-0.5000-0.2887 0.0000 ( 75730 PWs)   bands (ev):

   -42.9594 -42.9594 -42.9338 -42.9336 -42.9304 -41.4387 -41.4387 -41.4383
   -41.4383 -41.4382 -41.4382 -41.4111 -41.4110 -41.4106 -41.4106 -41.4106
   -41.4105 -41.4086 -41.4086 -41.4082 -41.4082 -41.4081 -41.4081 -41.3214
   -41.3214 -41.3210 -41.3210 -41.3210 -41.3209 -41.3209 -41.3208 -41.3205
   -41.3205 -41.3205 -41.3204 -40.8485 -40.8485 -40.8485 -40.8485 -40.8477
   -40.8477 -40.8477 -40.8477 -40.8475 -40.8474 -40.6796 -40.6795 -40.6788
   -40.6788 -40.6786 -40.6786 -40.6756 -40.6756 -40.6755 -40.6755 -40.5421
   -40.5420 -40.5420 -40.5420 -40.5420 -40.5419 -40.5416 -40.5415 -40.5415
   -40.5415 -40.5415 -40.5415 -40.5402 -40.5401 -40.5401 -40.5400 -40.5400
   -40.5400 -40.5397 -40.5397 -40.5396 -40.5396 -40.5396 -40.5396 -40.5396
   -40.5395 -40.5394 -40.5394 -40.5394 -40.5394 -13.1469 -13.1412 -13.1363
   -13.1272 -13.1257 -13.1246 -13.1224 -13.1159 -13.1118 -13.1088 -13.1088
   -13.1075 -13.1067 -13.1057 -13.1016 -12.7304 -12.7230 -12.7182 -12.7159
   -12.7137 -12.7085 -12.7075 -12.7059 -12.7054 -12.7047 -12.7042 -12.6996
   -12.6987 -12.6984 -12.6968 -12.6605 -12.6595 -12.6467 -12.6459 -12.6455
    -9.5840  -8.2509  -8.0939  -8.0927  -8.0210  -7.9818  -7.8453  -7.6724
    -7.6472  -7.6402  -7.6359  -7.4529  -7.3751  -7.3379  -7.3245  -7.2810
    -7.2454  -3.8256  -3.6975  -3.5780  -3.3950  -3.3733  -3.1488  -3.1192
    -0.0329   0.0404   0.1509   1.0439   1.1893   1.2674   1.4347   1.4983
     1.5590   1.5739   1.6081   1.6258   1.6898   1.6944   1.7116   1.7974
     1.9667   2.0466   2.0837   2.1313   2.1761   2.1844   2.2742   2.2981
     2.3471   2.3621   2.4574   2.4851   2.5111   2.5229   2.5587   2.6072
     2.6747   2.8452   2.8532   2.8589   2.9975   3.0160   3.0420   3.0544
     3.0977   3.1336   3.1484   3.1908   3.4721   3.4804   3.5146   3.5479
     3.6940   3.8831   3.9002   6.3878   6.7420   6.8071   6.8627   6.8948
     7.0012   7.0288   7.0782   7.1447   7.1709   7.4022   7.4207   7.4302
     7.4553   7.5261   7.5437   7.5810   7.5850   7.5962   7.8525   7.8817
     9.4463   9.7943   9.8733   9.9777  10.0661  10.1315  10.1594  10.2145
    10.5798  10.5951  10.6366  10.7278  10.7904  10.9031  11.0979  11.1175

     occupation numbers 
     1.0000   1.0000   1.0000   1.0000   1.0000   1.0000   1.0000   1.0000
     1.0000   1.0000   1.0000   1.0000   1.0000   1.0000   1.0000   1.0000
     1.0000   1.0000   1.0000   1.0000   1.0000   1.0000   1.0000   1.0000
     1.0000   1.0000   1.0000   1.0000   1.0000   1.0000   1.0000   1.0000
     1.0000   1.0000   1.0000   1.0000   1.0000   1.0000   1.0000   1.0000
     1.0000   1.0000   1.0000   1.0000   1.0000   1.0000   1.0000   1.0000
     1.0000   1.0000   1.0000   1.0000   1.0000   1.0000   1.0000   1.0000
     1.0000   1.0000   1.0000   1.0000   1.0000   1.0000   1.0000   1.0000
     1.0000   1.0000   1.0000   1.0000   1.0000   1.0000   1.0000   1.0000
     1.0000   1.0000   1.0000   1.0000   1.0000   1.0000   1.0000   1.0000
     1.0000   1.0000   1.0000   1.0000   1.0000   1.0000   1.0000   1.0000
     1.0000   1.0000   1.0000   1.0000   1.0000   1.0000   1.0000   1.0000
     1.0000   1.0000   1.0000   1.0000   1.0000   1.0000   1.0000   1.0000
     1.0000   1.0000   1.0000   1.0000   1.0000   1.0000   1.0000   1.0000
     1.0000   1.0000   1.0000   1.0000   1.0000   1.0000   1.0000   1.0000
     1.0000   1.0000   1.0000   1.0000   1.0000   1.0000   1.0000   1.0000
     1.0000   1.0000   1.0000   1.0000   1.0000   1.0000   1.0000   1.0000
     1.0000   1.0000   1.0000   1.0000   1.0000   1.0000   1.0000   1.0000
     1.0000   1.0000   1.0000   1.0000   1.0000   1.0000   1.0000   1.0000
     1.0000   1.0000   1.0000   1.0000   1.0000   1.0000   1.0000   1.0000
     1.0000   1.0000   1.0000   1.0000   1.0000   1.0000   1.0000   1.0000
     1.0000   1.0000   1.0000   1.0000   1.0000   1.0000   1.0000   1.0000
     1.0000   1.0000   1.0000   1.0000   1.0000   1.0000   1.0000   1.0000
     1.0000   1.0000   1.0000   1.0000   0.9978   0.9971   0.9919   0.9802
     0.7053   0.0768   0.0543   0.0000   0.0000   0.0000   0.0000   0.0000
     0.0000   0.0000   0.0000   0.0000   0.0000   0.0000   0.0000   0.0000
     0.0000   0.0000   0.0000   0.0000   0.0000   0.0000   0.0000   0.0000
     0.0000   0.0000   0.0000   0.0000   0.0000   0.0000   0.0000   0.0000
     0.0000   0.0000   0.0000   0.0000   0.0000   0.0000   0.0000   0.0000

     the Fermi energy is     3.7459 ev

!    total energy              =  -15856.34778294 Ry
     total all-electron energy =   -534697.923814 Ry
     estimated scf accuracy    <       0.00000004 Ry
     smearing contrib. (-TS)   =      -0.00987298 Ry
     internal energy E=F+TS    =  -15856.33790995 Ry

     The total energy is F=E-TS. E is the sum of the following terms:
     one-electron contribution =   -3081.66275130 Ry
     hartree contribution      =    1709.71289912 Ry
     xc contribution           =   -1153.40986659 Ry
     ewald contribution        =   -2507.22142569 Ry
     one-center paw contrib.   =  -10823.75676550 Ry
      -> PAW hartree energy AE =     191.50423239 Ry
      -> PAW hartree energy PS =    -191.97496819 Ry
      -> PAW xc energy AE      =   -1596.83241096 Ry
      -> PAW xc energy PS      =      66.59474451 Ry
      -> total E_H with PAW    =    1709.24216332 Ry
      -> total E_XC with PAW   =   -2683.64753304 Ry

     convergence has been achieved in  20 iterations


     -----------------------------------------------
     Non-local corr. energy    =      11.80849419 Ry
     -----------------------------------------------


     Forces acting on atoms (cartesian axes, Ry/au):

     atom    1 type  1   force =     0.00000658    0.00000197    0.00000283
     atom    2 type  1   force =     0.00000923   -0.00000499    0.00001832
     atom    3 type  1   force =     0.00000531    0.00000074    0.00000580
     atom    4 type  1   force =     0.00000546   -0.00000113    0.00000968
     atom    5 type  1   force =    -0.00000487   -0.00000279   -0.00000154
     atom    6 type  1   force =    -0.00001325    0.00000627    0.00002254
     atom    7 type  1   force =    -0.00000321   -0.00000465   -0.00000093
     atom    8 type  2   force =    -0.00002040   -0.00034008    0.00105162
     atom    9 type  2   force =    -0.00002711   -0.00458364   -0.00280341
     atom   10 type  2   force =    -0.00029620    0.00016276    0.00105601
     atom   11 type  2   force =    -0.00396458    0.00228049   -0.00279446
     atom   12 type  2   force =     0.00001330    0.00000370   -0.00245135
     atom   13 type  2   force =     0.00000189    0.00000966    0.00264973
     atom   14 type  2   force =     0.00029310    0.00018313    0.00105499
     atom   15 type  2   force =     0.00394321    0.00230080   -0.00278367
     atom   16 type  2   force =    -0.00392915   -0.00229081    0.00275070
     atom   17 type  2   force =    -0.00028842   -0.00017579   -0.00102587
     atom   18 type  2   force =     0.00000225   -0.00000993   -0.00268778
     atom   19 type  2   force =    -0.00000927   -0.00000099    0.00249778
     atom   20 type  2   force =     0.00396685   -0.00228988    0.00276313
     atom   21 type  2   force =     0.00028755   -0.00016345   -0.00102893
     atom   22 type  2   force =     0.00001953    0.00456965    0.00276312
     atom   23 type  2   force =     0.00000828    0.00033368   -0.00101478
     atom   24 type  2   force =    -0.00000608    0.00001529   -0.00005351
     The non-local contrib.  to forces
     atom    1 type  1   force =     0.00000017    0.00000022   -0.00000056
     atom    2 type  1   force =     0.00003859   -0.00005357   -0.00002039
     atom    3 type  1   force =    -0.00000617   -0.00001008   -0.00003105
     atom    4 type  1   force =     0.00004193   -0.00004680    0.00003003
     atom    5 type  1   force =    -0.00000850   -0.00001240    0.00001998
     atom    6 type  1   force =     0.00001902   -0.00005217    0.00000979
     atom    7 type  1   force =    -0.00001378   -0.00002254   -0.00000857
     atom    8 type  2   force =    -0.00000025    0.00071456    0.23564545
     atom    9 type  2   force =    -0.00001422   -0.05368310    0.20599320
     atom   10 type  2   force =     0.00062582   -0.00034362    0.23565607
     atom   11 type  2   force =    -0.04645642    0.02684224    0.20601854
     atom   12 type  2   force =     0.00000884   -0.00000351    0.22959986
     atom   13 type  2   force =    -0.00001054    0.00000600    0.26604877
     atom   14 type  2   force =    -0.00062907   -0.00033585    0.23564551
     atom   15 type  2   force =     0.04644017    0.02685545    0.20603973
     atom   16 type  2   force =    -0.04647393   -0.02679198   -0.20604414
     atom   17 type  2   force =     0.00061713    0.00036988   -0.23565133
     atom   18 type  2   force =    -0.00001908    0.00000254   -0.26605501
     atom   19 type  2   force =    -0.00001496   -0.00000817   -0.22959750
     atom   20 type  2   force =     0.04644230   -0.02677527   -0.20601507
     atom   21 type  2   force =    -0.00061486    0.00038696   -0.23562119
     atom   22 type  2   force =     0.00000246    0.05368407   -0.20601404
     atom   23 type  2   force =     0.00002073   -0.00072130   -0.23564270
     atom   24 type  2   force =     0.00004178   -0.00003274   -0.00004511
     The ionic contribution  to forces
     atom    1 type  1   force =     0.00002769   -0.00007504    0.00008018
     atom    2 type  1   force =    -0.00059068    0.00098119    0.00032611
     atom    3 type  1   force =     0.00017973    0.00030034    0.00038035
     atom    4 type  1   force =    -0.00064470    0.00081246   -0.00011325
     atom    5 type  1   force =     0.00011955    0.00014329   -0.00015688
     atom    6 type  1   force =    -0.00047759    0.00122877    0.00013215
     atom    7 type  1   force =     0.00026378    0.00052493    0.00014328
     atom    8 type  2   force =    -0.00071901   -0.12497219  -13.45027312
     atom    9 type  2   force =    -0.00076322   -1.66339131  -15.72948345
     atom   10 type  2   force =    -0.10869560    0.06210168  -13.44973478
     atom   11 type  2   force =    -1.44105906    0.83136641  -15.72896523
     atom   12 type  2   force =     0.00009050    0.00035335  -13.56821244
     atom   13 type  2   force =     0.00000938    0.00041826  -14.80784267
     atom   14 type  2   force =     0.10844169    0.06253121  -13.45022264
     atom   15 type  2   force =     1.44071348    0.83179408  -15.72941112
     atom   16 type  2   force =    -1.43941831   -0.83315826   15.72916763
     atom   17 type  2   force =    -0.10788713   -0.06337995   13.45003340
     atom   18 type  2   force =     0.00113086   -0.00030039   14.80780229
     atom   19 type  2   force =     0.00025554    0.00047611   13.56816566
     atom   20 type  2   force =     1.44140276   -0.83339370   15.72904278
     atom   21 type  2   force =     0.10807520   -0.06339121   13.44953297
     atom   22 type  2   force =     0.00056804    1.66293249   15.72925636
     atom   23 type  2   force =    -0.00013578    0.12537423   13.45025444
     atom   24 type  2   force =    -0.00088713    0.00072326    0.00009801
     The local contribution  to forces
     atom    1 type  1   force =     0.00001103    0.00008228   -0.00012550
     atom    2 type  1   force =     0.00057355   -0.00090149   -0.00021251
     atom    3 type  1   force =    -0.00015661   -0.00026473   -0.00038734
     atom    4 type  1   force =     0.00060281   -0.00079619    0.00018007
     atom    5 type  1   force =    -0.00014742   -0.00014343    0.00008672
     atom    6 type  1   force =     0.00043228   -0.00114683   -0.00003467
     atom    7 type  1   force =    -0.00026524   -0.00051852   -0.00018989
     atom    8 type  2   force =     0.00075072    0.12394442   13.22075584
     atom    9 type  2   force =     0.00080195    1.71122045   15.52534942
     atom   10 type  2   force =     0.10779168   -0.06157775   13.22022803
     atom   11 type  2   force =     1.48244351   -0.85526154   15.52482033
     atom   12 type  2   force =    -0.00014047   -0.00034475   13.34095094
     atom   13 type  2   force =    -0.00004103   -0.00041301   14.55061762
     atom   14 type  2   force =    -0.10754238   -0.06205192   13.22069290
     atom   15 type  2   force =    -1.48209348   -0.85574033   15.52525973
     atom   16 type  2   force =     1.48082725    0.85702103  -15.52494285
     atom   17 type  2   force =     0.10698860    0.06285735  -13.22057029
     atom   18 type  2   force =    -0.00107754    0.00029136  -14.55050176
     atom   19 type  2   force =    -0.00021395   -0.00046333  -13.34098975
     atom   20 type  2   force =    -1.48273793    0.85719312  -15.52483041
     atom   21 type  2   force =    -0.10717765    0.06282938  -13.22011841
     atom   22 type  2   force =    -0.00058321   -1.71074612  -15.52503466
     atom   23 type  2   force =     0.00009659   -0.12432292  -13.22082062
     atom   24 type  2   force =     0.00085630   -0.00070078    0.00000825
     The core correction contribution to forces
     atom    1 type  1   force =     0.00000058    0.00000012   -0.00000039
     atom    2 type  1   force =    -0.00000017    0.00000065    0.00000039
     atom    3 type  1   force =     0.00000018    0.00000050   -0.00000024
     atom    4 type  1   force =    -0.00000026   -0.00000003    0.00000054
     atom    5 type  1   force =    -0.00000048   -0.00000002   -0.00000045
     atom    6 type  1   force =    -0.00000035    0.00000066    0.00000029
     atom    7 type  1   force =    -0.00000010   -0.00000002   -0.00000052
     atom    8 type  2   force =    -0.00000068    0.00000129   -0.00528015
     atom    9 type  2   force =    -0.00000126    0.00114052   -0.00454673
     atom   10 type  2   force =    -0.00000186    0.00000264   -0.00528151
     atom   11 type  2   force =     0.00098284   -0.00056582   -0.00454852
     atom   12 type  2   force =    -0.00000091    0.00000254   -0.00504623
     atom   13 type  2   force =    -0.00000076    0.00000266   -0.00595105
     atom   14 type  2   force =     0.00000045    0.00000266   -0.00528050
     atom   15 type  2   force =    -0.00098439   -0.00056550   -0.00454885
     atom   16 type  2   force =     0.00098398    0.00056912    0.00454744
     atom   17 type  2   force =    -0.00000153    0.00000152    0.00528001
     atom   18 type  2   force =     0.00000009    0.00000192    0.00594980
     atom   19 type  2   force =    -0.00000060    0.00000261    0.00504581
     atom   20 type  2   force =    -0.00098265    0.00056804    0.00454662
     atom   21 type  2   force =     0.00000017    0.00000153    0.00528068
     atom   22 type  2   force =     0.00000010   -0.00113566    0.00454598
     atom   23 type  2   force =    -0.00000075    0.00000368    0.00527975
     atom   24 type  2   force =    -0.00000143    0.00000318   -0.00000079
     The Hubbard contrib.    to forces
     atom    1 type  1   force =     0.00000000    0.00000000    0.00000000
     atom    2 type  1   force =     0.00000000    0.00000000    0.00000000
     atom    3 type  1   force =     0.00000000    0.00000000    0.00000000
     atom    4 type  1   force =     0.00000000    0.00000000    0.00000000
     atom    5 type  1   force =     0.00000000    0.00000000    0.00000000
     atom    6 type  1   force =     0.00000000    0.00000000    0.00000000
     atom    7 type  1   force =     0.00000000    0.00000000    0.00000000
     atom    8 type  2   force =     0.00000000    0.00000000    0.00000000
     atom    9 type  2   force =     0.00000000    0.00000000    0.00000000
     atom   10 type  2   force =     0.00000000    0.00000000    0.00000000
     atom   11 type  2   force =     0.00000000    0.00000000    0.00000000
     atom   12 type  2   force =     0.00000000    0.00000000    0.00000000
     atom   13 type  2   force =     0.00000000    0.00000000    0.00000000
     atom   14 type  2   force =     0.00000000    0.00000000    0.00000000
     atom   15 type  2   force =     0.00000000    0.00000000    0.00000000
     atom   16 type  2   force =     0.00000000    0.00000000    0.00000000
     atom   17 type  2   force =     0.00000000    0.00000000    0.00000000
     atom   18 type  2   force =     0.00000000    0.00000000    0.00000000
     atom   19 type  2   force =     0.00000000    0.00000000    0.00000000
     atom   20 type  2   force =     0.00000000    0.00000000    0.00000000
     atom   21 type  2   force =     0.00000000    0.00000000    0.00000000
     atom   22 type  2   force =     0.00000000    0.00000000    0.00000000
     atom   23 type  2   force =     0.00000000    0.00000000    0.00000000
     atom   24 type  2   force =     0.00000000    0.00000000    0.00000000
     The SCF correction term to forces
     atom    1 type  1   force =    -0.00003313   -0.00000335    0.00004773
     atom    2 type  1   force =    -0.00001228   -0.00002951   -0.00007665
     atom    3 type  1   force =    -0.00001204   -0.00002304    0.00004271
     atom    4 type  1   force =     0.00000543    0.00003168   -0.00008908
     atom    5 type  1   force =     0.00003173    0.00001204    0.00004774
     atom    6 type  1   force =     0.00001317   -0.00002191   -0.00008638
     atom    7 type  1   force =     0.00001190    0.00001375    0.00005340
     atom    8 type  2   force =    -0.00005142   -0.00002591    0.00020222
     atom    9 type  2   force =    -0.00005059    0.00013205   -0.00011722
     atom   10 type  2   force =    -0.00001647   -0.00001793    0.00018683
     atom   11 type  2   force =     0.00012432   -0.00009854   -0.00012095
     atom   12 type  2   force =     0.00005511   -0.00000166    0.00025514
     atom   13 type  2   force =     0.00004462   -0.00000198   -0.00022430
     atom   14 type  2   force =     0.00002218    0.00003929    0.00021836
     atom   15 type  2   force =    -0.00013280   -0.00004063   -0.00012452
     atom   16 type  2   force =     0.00015164    0.00007154    0.00002126
     atom   17 type  2   force =    -0.00000572   -0.00002233   -0.00011902
     atom   18 type  2   force =    -0.00003232   -0.00000310    0.00011553
     atom   19 type  2   force =    -0.00003554   -0.00000595   -0.00012781
     atom   20 type  2   force =    -0.00015785    0.00012019    0.00001784
     atom   21 type  2   force =     0.00000445    0.00001214   -0.00010434
     atom   22 type  2   force =     0.00003192   -0.00016288    0.00000812
     atom   23 type  2   force =     0.00002725    0.00000226   -0.00008703
     atom   24 type  2   force =    -0.00001584    0.00002462   -0.00011524

     Total force =     0.014326     Total SCF correction =     0.000755


     Computing stress (Cartesian axis) and pressure



     -----------------------------------------------
     Non-local corr. energy    =      11.80849419 Ry
     -----------------------------------------------

          total   stress  (Ry/bohr**3)                   (kbar)     P=      -13.19
  -0.00008840   0.00000000   0.00000001          -13.00        0.00        0.00
   0.00000000  -0.00008841  -0.00000002            0.00      -13.01       -0.00
   0.00000001  -0.00000002  -0.00009213            0.00       -0.00      -13.55

     kinetic stress (kbar)  14692.53      0.00      0.00
                                0.00  14692.54      0.00
                                0.00      0.00  14705.41

     local   stress (kbar)  -7672.20      0.53     -0.46
                                0.53  -7671.34      0.37
                               -0.46      0.37   1502.07

     nonloc. stress (kbar)   -655.40     -0.00      0.00
                               -0.00   -655.40      0.00
                                0.00      0.00   -656.51

     hartree stress (kbar)  12334.71     -0.20      0.18
                               -0.20  12334.39     -0.14
                                0.18     -0.14   8180.95

     exc-cor stress (kbar)   7098.13     -0.00      0.00
                               -0.00   7098.13     -0.00
                                0.00     -0.00   7097.38

     corecor stress (kbar) -11516.49      0.00     -0.00
                                0.00 -11516.49      0.00
                               -0.00      0.00 -11516.62

     ewald   stress (kbar) -14379.83     -0.33      0.28
                               -0.33 -14380.39     -0.23
                                0.28     -0.23 -19413.00

     hubbard stress (kbar)      0.00      0.00      0.00
                                0.00      0.00      0.00
                                0.00      0.00      0.00

     DFT-D   stress (kbar)      0.00      0.00      0.00
                                0.00      0.00      0.00
                                0.00      0.00      0.00

     XDM     stress (kbar)      0.00      0.00      0.00
                                0.00      0.00      0.00
                                0.00      0.00      0.00

     dft-nl  stress (kbar)     85.55      0.00     -0.00
                                0.00     85.55      0.00
                               -0.00      0.00     86.77

     TS-vdW  stress (kbar)      0.00      0.00      0.00
                                0.00      0.00      0.00
                                0.00      0.00      0.00

     MDB     stress (kbar)      0.00      0.00      0.00
                                0.00      0.00      0.00
                                0.00      0.00      0.00

     3D-RISM stress (kbar)      0.00      0.00      0.00
                                0.00      0.00      0.00
                                0.00      0.00      0.00


     BFGS Geometry Optimization
     Energy error            =      0.0E+00 Ry
     Gradient error          =      4.6E-03 Ry/Bohr

     number of scf cycles    =   1
     number of bfgs steps    =   0

     energy             new  =  -15856.3477829363 Ry

     new trust radius        =       0.0053730463 bohr
     new conv_thr            =       0.0000001000 Ry


ATOMIC_POSITIONS (angstrom)
Pb            2.3557019062        4.0798050420        7.3776536872
Pb            0.0001493381        8.1597761084       14.7552966939
Pb            0.0000510116        8.1598642874        7.3775775674
Pb            7.0670665825        4.0797001037       14.7554311719
Pb            7.0669648676        4.0797843794        7.3777127328
Pb            4.7114064609        8.1597639183       14.7553602846
Pb            4.7113155230        8.1598432895        7.3776353610
I             2.3557248008        1.3595860350        5.4832008541
I             2.3558175004        1.3572552894       12.8588733632
I            -0.0000713688        5.4399120245        5.4831254848
I            -0.0019163411        5.4409475272       12.8588004089
I             7.0670116545        1.3597498120        5.4814085198
I             7.0671018659        1.3596678149       12.8618204032
I             4.7115094937        5.4399046573        5.4831863060
I             4.7135372963        5.4409401279       12.8588674790
I            -0.0021113349        2.7186925390        1.8964313460
I            -0.0000884921        2.7197266058        9.2721453762
I            -2.3556811516        6.7999594231        1.8934757318
I            -2.3555909987        6.7998790032        9.2739323177
I             4.7133360688        2.7186748829        1.8964992793
I             4.7114853140        2.7197149878        9.2722051162
I             2.3555970148        6.8023646864        1.8964215843
I             2.3556873066        6.8000379576        9.2721349076
I             2.3557914586        4.0797269406       14.7553363751



     Writing config-only to output data dir ./PbI2.save/
     NEW-OLD atomic charge density approx. for the potential

     Check: negative core charge=   -0.000002


     -----------------------------------------------
     Non-local corr. energy    =      11.80854952 Ry
     -----------------------------------------------


     total cpu time spent up to now is      677.8 secs

     Self-consistent Calculation

     iteration #  1     ecut=    70.00 Ry     beta= 0.70
     Davidson diagonalization with overlap

---- Real-time Memory Report at c_bands before calling an iterative solver
           533 MiB given to the printing process from OS
             0 MiB allocation reported by mallinfo(arena+hblkhd)
       1979028 MiB available memory on the node where the printing process lives
------------------
     ethr =  1.00E-06,  avg # of iterations =  3.0

     Threshold (ethr) on eigenvalues was too large:
     Diagonalizing with lowered threshold

     Davidson diagonalization with overlap

---- Real-time Memory Report at c_bands before calling an iterative solver
           533 MiB given to the printing process from OS
             0 MiB allocation reported by mallinfo(arena+hblkhd)
       1978437 MiB available memory on the node where the printing process lives
------------------
     ethr =  6.72E-09,  avg # of iterations =  9.0


     -----------------------------------------------
     Non-local corr. energy    =      11.80839056 Ry
     -----------------------------------------------


     total cpu time spent up to now is      731.2 secs

     total energy              =  -15856.34796640 Ry
     estimated scf accuracy    <       0.00002100 Ry

     iteration #  2     ecut=    70.00 Ry     beta= 0.70
     Davidson diagonalization with overlap

---- Real-time Memory Report at c_bands before calling an iterative solver
           533 MiB given to the printing process from OS
             0 MiB allocation reported by mallinfo(arena+hblkhd)
       1979905 MiB available memory on the node where the printing process lives
------------------
     ethr =  5.44E-09,  avg # of iterations = 12.3


     -----------------------------------------------
     Non-local corr. energy    =      11.80840081 Ry
     -----------------------------------------------


     total cpu time spent up to now is      768.7 secs

     total energy              =  -15856.34792919 Ry
     estimated scf accuracy    <       0.00062047 Ry

     iteration #  3     ecut=    70.00 Ry     beta= 0.70
     Davidson diagonalization with overlap

---- Real-time Memory Report at c_bands before calling an iterative solver
           533 MiB given to the printing process from OS
             0 MiB allocation reported by mallinfo(arena+hblkhd)
       1981207 MiB available memory on the node where the printing process lives
------------------
     ethr =  5.44E-09,  avg # of iterations = 11.5


     -----------------------------------------------
     Non-local corr. energy    =      11.80845813 Ry
     -----------------------------------------------


     total cpu time spent up to now is      802.5 secs

     total energy              =  -15856.34798432 Ry
     estimated scf accuracy    <       0.00000089 Ry

     iteration #  4     ecut=    70.00 Ry     beta= 0.70
     Davidson diagonalization with overlap

---- Real-time Memory Report at c_bands before calling an iterative solver
           533 MiB given to the printing process from OS
             0 MiB allocation reported by mallinfo(arena+hblkhd)
       1980502 MiB available memory on the node where the printing process lives
------------------
     ethr =  2.30E-10,  avg # of iterations = 12.5


     -----------------------------------------------
     Non-local corr. energy    =      11.80847542 Ry
     -----------------------------------------------


     total cpu time spent up to now is      844.1 secs

     total energy              =  -15856.34798480 Ry
     estimated scf accuracy    <       0.00000284 Ry

     iteration #  5     ecut=    70.00 Ry     beta= 0.70
     Davidson diagonalization with overlap

---- Real-time Memory Report at c_bands before calling an iterative solver
           533 MiB given to the printing process from OS
             0 MiB allocation reported by mallinfo(arena+hblkhd)
       1979408 MiB available memory on the node where the printing process lives
------------------
     ethr =  2.30E-10,  avg # of iterations = 10.3


     -----------------------------------------------
     Non-local corr. energy    =      11.80849329 Ry
     -----------------------------------------------


     total cpu time spent up to now is      870.7 secs

     total energy              =  -15856.34798534 Ry
     estimated scf accuracy    <       0.00000024 Ry

     iteration #  6     ecut=    70.00 Ry     beta= 0.70
     Davidson diagonalization with overlap

---- Real-time Memory Report at c_bands before calling an iterative solver
           533 MiB given to the printing process from OS
             0 MiB allocation reported by mallinfo(arena+hblkhd)
       1978496 MiB available memory on the node where the printing process lives
------------------
     ethr =  6.11E-11,  avg # of iterations = 10.5


     -----------------------------------------------
     Non-local corr. energy    =      11.80850927 Ry
     -----------------------------------------------


     total cpu time spent up to now is      898.0 secs

     total energy              =  -15856.34798552 Ry
     estimated scf accuracy    <       0.00000012 Ry

     iteration #  7     ecut=    70.00 Ry     beta= 0.70
     Davidson diagonalization with overlap

---- Real-time Memory Report at c_bands before calling an iterative solver
           533 MiB given to the printing process from OS
             0 MiB allocation reported by mallinfo(arena+hblkhd)
       1976605 MiB available memory on the node where the printing process lives
------------------
     ethr =  2.99E-11,  avg # of iterations = 11.3


     -----------------------------------------------
     Non-local corr. energy    =      11.80854455 Ry
     -----------------------------------------------


     total cpu time spent up to now is      927.7 secs

     total energy              =  -15856.34798574 Ry
     estimated scf accuracy    <       0.00000023 Ry

     iteration #  8     ecut=    70.00 Ry     beta= 0.70
     Davidson diagonalization with overlap

---- Real-time Memory Report at c_bands before calling an iterative solver
           533 MiB given to the printing process from OS
             0 MiB allocation reported by mallinfo(arena+hblkhd)
       1982185 MiB available memory on the node where the printing process lives
------------------
     ethr =  2.99E-11,  avg # of iterations = 11.3


     -----------------------------------------------
     Non-local corr. energy    =      11.80854425 Ry
     -----------------------------------------------


     total cpu time spent up to now is      958.3 secs

     End of self-consistent calculation

          k = 0.0000 0.0000 0.0000 ( 75645 PWs)   bands (ev):

   -42.9528 -42.9528 -42.9273 -42.9272 -42.9239 -41.4362 -41.4361 -41.4358
   -41.4357 -41.4357 -41.4356 -41.4086 -41.4085 -41.4082 -41.4081 -41.4081
   -41.4080 -41.4062 -41.4061 -41.4058 -41.4057 -41.4056 -41.4056 -41.3191
   -41.3191 -41.3187 -41.3187 -41.3186 -41.3186 -41.3185 -41.3185 -41.3182
   -41.3182 -41.3181 -41.3180 -40.8484 -40.8484 -40.8483 -40.8483 -40.8475
   -40.8475 -40.8474 -40.8474 -40.8472 -40.8471 -40.6816 -40.6815 -40.6808
   -40.6807 -40.6806 -40.6806 -40.6775 -40.6775 -40.6773 -40.6773 -40.5446
   -40.5445 -40.5445 -40.5444 -40.5444 -40.5443 -40.5440 -40.5440 -40.5440
   -40.5439 -40.5439 -40.5438 -40.5426 -40.5426 -40.5425 -40.5424 -40.5424
   -40.5423 -40.5422 -40.5421 -40.5421 -40.5420 -40.5420 -40.5420 -40.5420
   -40.5419 -40.5419 -40.5418 -40.5418 -40.5417 -13.1450 -13.1449 -13.1298
   -13.1287 -13.1237 -13.1223 -13.1223 -13.1107 -13.1106 -13.1086 -13.1058
   -13.1057 -13.1006 -13.0991 -13.0990 -12.7399 -12.7248 -12.7248 -12.7164
   -12.7164 -12.7128 -12.7096 -12.7096 -12.7069 -12.7030 -12.7030 -12.7021
   -12.6996 -12.6996 -12.6990 -12.6605 -12.6605 -12.6484 -12.6473 -12.6473
    -9.5867  -8.1079  -8.0774  -8.0771  -8.0632  -7.9918  -7.9917  -7.8359
    -7.6688  -7.5578  -7.4929  -7.3802  -7.3601  -7.3601  -7.3499  -7.2653
    -7.2653  -3.8361  -3.8360  -3.4754  -3.4084  -3.4083  -3.3738  -2.9286
    -0.0499  -0.0394  -0.0392   1.1235   1.1236   1.1811   1.3096   1.3097
     1.3691   1.5756   1.5756   1.6417   1.8611   2.0558   2.1762   2.1762
     2.1801   2.1941   2.1942   2.2329   2.2353   2.2354   2.3716   2.3938
     2.3941   2.4342   2.4344   2.4428   2.4429   2.4604   2.6651   2.7424
     2.7425   2.9430   2.9537   2.9573   2.9574   3.0133   3.0134   3.1117
     3.1130   3.1130   3.1726   3.1727   3.2490   3.2619   3.2619   3.4974
     3.5164   3.7932   3.7933   6.0888   6.3041   6.5116   6.5117   6.8518
     6.8520   6.9421   6.9812   7.0111   7.0112   7.0861   7.0862   7.1336
     7.3680   7.3683   7.6527   7.6527   7.6823   8.0144   8.0436   8.0436
     9.0016   9.0143   9.0144   9.7389   9.7848   9.7848   9.7991  10.3675
    10.9783  10.9785  11.0179  11.1446  11.1446  11.1579  11.3546  11.3613

     occupation numbers 
     1.0000   1.0000   1.0000   1.0000   1.0000   1.0000   1.0000   1.0000
     1.0000   1.0000   1.0000   1.0000   1.0000   1.0000   1.0000   1.0000
     1.0000   1.0000   1.0000   1.0000   1.0000   1.0000   1.0000   1.0000
     1.0000   1.0000   1.0000   1.0000   1.0000   1.0000   1.0000   1.0000
     1.0000   1.0000   1.0000   1.0000   1.0000   1.0000   1.0000   1.0000
     1.0000   1.0000   1.0000   1.0000   1.0000   1.0000   1.0000   1.0000
     1.0000   1.0000   1.0000   1.0000   1.0000   1.0000   1.0000   1.0000
     1.0000   1.0000   1.0000   1.0000   1.0000   1.0000   1.0000   1.0000
     1.0000   1.0000   1.0000   1.0000   1.0000   1.0000   1.0000   1.0000
     1.0000   1.0000   1.0000   1.0000   1.0000   1.0000   1.0000   1.0000
     1.0000   1.0000   1.0000   1.0000   1.0000   1.0000   1.0000   1.0000
     1.0000   1.0000   1.0000   1.0000   1.0000   1.0000   1.0000   1.0000
     1.0000   1.0000   1.0000   1.0000   1.0000   1.0000   1.0000   1.0000
     1.0000   1.0000   1.0000   1.0000   1.0000   1.0000   1.0000   1.0000
     1.0000   1.0000   1.0000   1.0000   1.0000   1.0000   1.0000   1.0000
     1.0000   1.0000   1.0000   1.0000   1.0000   1.0000   1.0000   1.0000
     1.0000   1.0000   1.0000   1.0000   1.0000   1.0000   1.0000   1.0000
     1.0000   1.0000   1.0000   1.0000   1.0000   1.0000   1.0000   1.0000
     1.0000   1.0000   1.0000   1.0000   1.0000   1.0000   1.0000   1.0000
     1.0000   1.0000   1.0000   1.0000   1.0000   1.0000   1.0000   1.0000
     1.0000   1.0000   1.0000   1.0000   1.0000   1.0000   1.0000   1.0000
     1.0000   1.0000   1.0000   1.0000   1.0000   1.0000   1.0000   1.0000
     1.0000   1.0000   1.0000   1.0000   1.0000   1.0000   1.0000   1.0000
     1.0000   1.0000   1.0000   1.0000   1.0000   1.0000   1.0000   0.9948
     0.9909   0.3031   0.3026   0.0000   0.0000   0.0000   0.0000   0.0000
     0.0000   0.0000   0.0000   0.0000   0.0000   0.0000   0.0000   0.0000
     0.0000   0.0000   0.0000   0.0000   0.0000   0.0000   0.0000   0.0000
     0.0000   0.0000   0.0000   0.0000   0.0000   0.0000   0.0000   0.0000
     0.0000   0.0000   0.0000   0.0000   0.0000   0.0000   0.0000   0.0000

[...]
     atom    2 type  1   force =     0.00001334    0.00002715    0.00002100
     atom    3 type  1   force =     0.00002019   -0.00002889   -0.00001506
     atom    4 type  1   force =     0.00000915   -0.00005664    0.00007982
     atom    5 type  1   force =     0.00001458   -0.00002702    0.00004010
     atom    6 type  1   force =     0.00001140    0.00002457    0.00001892
     atom    7 type  1   force =    -0.00000626   -0.00001848   -0.00003940
     atom    8 type  2   force =     0.00000314    0.00112916    0.23768905
     atom    9 type  2   force =    -0.00000411   -0.05425761    0.20334048
     atom   10 type  2   force =     0.00097316   -0.00054425    0.23770282
     atom   11 type  2   force =    -0.04685714    0.02703968    0.20340813
     atom   12 type  2   force =    -0.00000777    0.00000951    0.23441969
     atom   13 type  2   force =    -0.00000812    0.00001425    0.26125023
     atom   14 type  2   force =    -0.00097906   -0.00054999    0.23770563
     atom   15 type  2   force =     0.04680248    0.02701239    0.20342662
     atom   16 type  2   force =    -0.04691854   -0.02705960   -0.20347062
     atom   17 type  2   force =     0.00095823    0.00057952   -0.23769833
     atom   18 type  2   force =    -0.00000409    0.00000611   -0.26123509
     atom   19 type  2   force =    -0.00000185   -0.00001196   -0.23440060
     atom   20 type  2   force =     0.04695505   -0.02707683   -0.20343566
     atom   21 type  2   force =    -0.00096462    0.00057636   -0.23769470
     atom   22 type  2   force =     0.00000365    0.05431001   -0.20334650
     atom   23 type  2   force =    -0.00000476   -0.00111277   -0.23769856
     atom   24 type  2   force =     0.00000647    0.00007351   -0.00010111
     The ionic contribution  to forces
     atom    1 type  1   force =     0.00055348   -0.00050594   -0.00005915
     atom    2 type  1   force =    -0.00145196    0.00057375   -0.00049162
     atom    3 type  1   force =    -0.00085031    0.00135224    0.00083092
     atom    4 type  1   force =    -0.00042098    0.00114116   -0.00142205
     atom    5 type  1   force =    -0.00073935    0.00037226   -0.00056891
     atom    6 type  1   force =     0.00081725    0.00041735    0.00021458
     atom    7 type  1   force =     0.00053736    0.00059683    0.00218199
     atom    8 type  2   force =     0.00166315    0.01191060  -13.87762287
     atom    9 type  2   force =     0.00126774    0.40541394  -14.65910655
     atom   10 type  2   force =     0.00942671   -0.00625995  -13.87809146
     atom   11 type  2   force =     0.34530682   -0.20087365  -14.66140498
     atom   12 type  2   force =    -0.00128760    0.00153441  -12.81012228
     atom   13 type  2   force =    -0.00078232    0.00085848  -15.03852533
     atom   14 type  2   force =    -0.00930192   -0.00808410  -13.87768627
     atom   15 type  2   force =    -0.34446059   -0.20183552  -14.66235359
     atom   16 type  2   force =     0.35040139    0.20206157   14.66100673
     atom   17 type  2   force =     0.01039558    0.00481137   13.87977551
     atom   18 type  2   force =     0.00086759    0.00052487   15.03534340
     atom   19 type  2   force =     0.00034106    0.00047735   12.81031795
     atom   20 type  2   force =    -0.35137205    0.20152522   14.66028853
     atom   21 type  2   force =    -0.01029509    0.00449453   13.87971932
     atom   22 type  2   force =    -0.00090805   -0.40556718   14.65968035
     atom   23 type  2   force =    -0.00018939   -0.01086484   13.87919091
     atom   24 type  2   force =     0.00048149   -0.00407476   -0.00109511
     The local contribution  to forces
     atom    1 type  1   force =    -0.00055045    0.00052439    0.00004514
     atom    2 type  1   force =     0.00145570   -0.00062019    0.00047598
     atom    3 type  1   force =     0.00083182   -0.00132471   -0.00081638
     atom    4 type  1   force =     0.00040917   -0.00107007    0.00133254
     atom    5 type  1   force =     0.00072406   -0.00033963    0.00052962
     atom    6 type  1   force =    -0.00084684   -0.00046362   -0.00022902
     atom    7 type  1   force =    -0.00053399   -0.00057982   -0.00214249
     atom    8 type  2   force =    -0.00165891   -0.01303180   13.64490496
     atom    9 type  2   force =    -0.00125696   -0.35249030   14.46038786
     atom   10 type  2   force =    -0.01039014    0.00680595   13.64535525
     atom   11 type  2   force =    -0.29958142    0.17449145   14.46262894
     atom   12 type  2   force =     0.00128909   -0.00154764   12.58161499
     atom   13 type  2   force =     0.00078905   -0.00087688   14.78190281
     atom   14 type  2   force =     0.01027093    0.00862737   13.64494900
     atom   15 type  2   force =     0.29877958    0.17546669   14.46356105
     atom   16 type  2   force =    -0.30460275   -0.17563958  -14.46217142
     atom   17 type  2   force =    -0.01135144   -0.00538084  -13.64704713
     atom   18 type  2   force =    -0.00086190   -0.00053509  -14.77872933
     atom   19 type  2   force =    -0.00033595   -0.00047274  -12.58183552
     atom   20 type  2   force =     0.30554534   -0.17509652  -14.46148570
     atom   21 type  2   force =     0.01125698   -0.00506530  -13.64699623
     atom   22 type  2   force =     0.00089973    0.35259505  -14.46095331
     atom   23 type  2   force =     0.00019070    0.01197011  -13.64646380
     atom   24 type  2   force =    -0.00048703    0.00401485    0.00120248
     The core correction contribution to forces
     atom    1 type  1   force =     0.00000020    0.00000019   -0.00000006
     atom    2 type  1   force =     0.00000061   -0.00000105   -0.00000006
     atom    3 type  1   force =    -0.00000011    0.00000027    0.00000013
     atom    4 type  1   force =     0.00000003    0.00000064   -0.00000108
     atom    5 type  1   force =    -0.00000025    0.00000015   -0.00000046
     atom    6 type  1   force =    -0.00000094   -0.00000084    0.00000016
     atom    7 type  1   force =    -0.00000003    0.00000000    0.00000057
     atom    8 type  2   force =    -0.00000009    0.00001481   -0.00507644
     atom    9 type  2   force =    -0.00000018    0.00096747   -0.00442011
     atom   10 type  2   force =     0.00001013   -0.00000427   -0.00507660
     atom   11 type  2   force =     0.00082992   -0.00048167   -0.00442325
     atom   12 type  2   force =    -0.00000096    0.00000290   -0.00520693
     atom   13 type  2   force =    -0.00000066    0.00000268   -0.00541509
     atom   14 type  2   force =    -0.00001102   -0.00000461   -0.00507728
     atom   15 type  2   force =    -0.00082860   -0.00048069   -0.00442483
     atom   16 type  2   force =     0.00083358    0.00047699    0.00442661
     atom   17 type  2   force =     0.00001059    0.00000779    0.00507386
     atom   18 type  2   force =    -0.00000091    0.00000328    0.00541481
     atom   19 type  2   force =    -0.00000054    0.00000394    0.00520736
     atom   20 type  2   force =    -0.00083512    0.00047962    0.00442506
     atom   21 type  2   force =    -0.00001146    0.00000791    0.00507403
     atom   22 type  2   force =     0.00000143   -0.00096646    0.00442071
     atom   23 type  2   force =    -0.00000024   -0.00001007    0.00507509
     atom   24 type  2   force =    -0.00000124   -0.00000058   -0.00000296
     The Hubbard contrib.    to forces
     atom    1 type  1   force =     0.00000000    0.00000000    0.00000000
     atom    2 type  1   force =     0.00000000    0.00000000    0.00000000
     atom    3 type  1   force =     0.00000000    0.00000000    0.00000000
     atom    4 type  1   force =     0.00000000    0.00000000    0.00000000
     atom    5 type  1   force =     0.00000000    0.00000000    0.00000000
     atom    6 type  1   force =     0.00000000    0.00000000    0.00000000
     atom    7 type  1   force =     0.00000000    0.00000000    0.00000000
     atom    8 type  2   force =     0.00000000    0.00000000    0.00000000
     atom    9 type  2   force =     0.00000000    0.00000000    0.00000000
     atom   10 type  2   force =     0.00000000    0.00000000    0.00000000
     atom   11 type  2   force =     0.00000000    0.00000000    0.00000000
     atom   12 type  2   force =     0.00000000    0.00000000    0.00000000
     atom   13 type  2   force =     0.00000000    0.00000000    0.00000000
     atom   14 type  2   force =     0.00000000    0.00000000    0.00000000
     atom   15 type  2   force =     0.00000000    0.00000000    0.00000000
     atom   16 type  2   force =     0.00000000    0.00000000    0.00000000
     atom   17 type  2   force =     0.00000000    0.00000000    0.00000000
     atom   18 type  2   force =     0.00000000    0.00000000    0.00000000
     atom   19 type  2   force =     0.00000000    0.00000000    0.00000000
     atom   20 type  2   force =     0.00000000    0.00000000    0.00000000
     atom   21 type  2   force =     0.00000000    0.00000000    0.00000000
     atom   22 type  2   force =     0.00000000    0.00000000    0.00000000
     atom   23 type  2   force =     0.00000000    0.00000000    0.00000000
     atom   24 type  2   force =     0.00000000    0.00000000    0.00000000
     The SCF correction term to forces
     atom    1 type  1   force =    -0.00000047   -0.00000636    0.00000024
     atom    2 type  1   force =    -0.00002449    0.00002519   -0.00000776
     atom    3 type  1   force =    -0.00000449    0.00000357    0.00000137
     atom    4 type  1   force =     0.00000061   -0.00001170    0.00000909
     atom    5 type  1   force =     0.00000049   -0.00000163   -0.00000360
     atom    6 type  1   force =     0.00002445    0.00002588   -0.00000777
     atom    7 type  1   force =     0.00000457    0.00000422    0.00000111
     atom    8 type  2   force =    -0.00000190    0.00002181    0.00001597
     atom    9 type  2   force =    -0.00000106    0.00002817   -0.00000111
     atom   10 type  2   force =     0.00001244   -0.00001619    0.00001993
     atom   11 type  2   force =     0.00001831   -0.00001794   -0.00001173
     atom   12 type  2   force =     0.00000170    0.00000817    0.00001280
     atom   13 type  2   force =     0.00000122    0.00000888   -0.00001243
     atom   14 type  2   force =    -0.00001212   -0.00001368    0.00002050
     atom   15 type  2   force =    -0.00001835   -0.00001693   -0.00001279
     atom   16 type  2   force =     0.00002981    0.00000682   -0.00000188
     atom   17 type  2   force =     0.00002531    0.00000231   -0.00000943
     atom   18 type  2   force =    -0.00000073    0.00001134    0.00000297
     atom   19 type  2   force =    -0.00000107    0.00001316   -0.00000390
     atom   20 type  2   force =    -0.00002947    0.00000722   -0.00000093
     atom   21 type  2   force =    -0.00002520    0.00000371   -0.00000739
     atom   22 type  2   force =     0.00000117   -0.00002450    0.00001031
     atom   23 type  2   force =     0.00000124   -0.00001746   -0.00001423
     atom   24 type  2   force =    -0.00000052   -0.00005281   -0.00000603

     Total force =     0.001796     Total SCF correction =     0.000126


     Computing stress (Cartesian axis) and pressure



     -----------------------------------------------
     Non-local corr. energy    =      11.80956621 Ry
     -----------------------------------------------

          total   stress  (Ry/bohr**3)                   (kbar)     P=      -13.63
  -0.00009271  -0.00000001   0.00000000          -13.64       -0.00        0.00
  -0.00000001  -0.00009264   0.00000004           -0.00      -13.63        0.01
   0.00000000   0.00000004  -0.00009257            0.00        0.01      -13.62

     kinetic stress (kbar)  14690.39     -0.00      0.00
                               -0.00  14690.42      0.02
                                0.00      0.02  14703.13

     local   stress (kbar)  -7440.11     -0.19      0.16
                               -0.19  -7439.41      0.31
                                0.16      0.31   1228.63

     nonloc. stress (kbar)   -653.80     -0.00      0.00
                               -0.00   -653.77      0.02
                                0.00      0.02   -654.91

     hartree stress (kbar)  12228.15      0.07     -0.06
                                0.07  12227.89     -0.12
                               -0.06     -0.12   8299.54

     exc-cor stress (kbar)   7098.21      0.00     -0.00
                                0.00   7098.21      0.00
                               -0.00      0.00   7097.57

     corecor stress (kbar) -11516.52      0.00     -0.00
                                0.00 -11516.52     -0.00
                               -0.00     -0.00 -11516.57

     ewald   stress (kbar) -14505.55      0.13     -0.11
                                0.13 -14506.03     -0.22
                               -0.11     -0.22 -19257.71

     hubbard stress (kbar)      0.00      0.00      0.00
                                0.00      0.00      0.00
                                0.00      0.00      0.00

     DFT-D   stress (kbar)      0.00      0.00      0.00
                                0.00      0.00      0.00
                                0.00      0.00      0.00

     XDM     stress (kbar)      0.00      0.00      0.00
                                0.00      0.00      0.00
                                0.00      0.00      0.00

     dft-nl  stress (kbar)     85.58     -0.00      0.00
                               -0.00     85.59     -0.00
                                0.00     -0.00     86.70

     TS-vdW  stress (kbar)      0.00      0.00      0.00
                                0.00      0.00      0.00
                                0.00      0.00      0.00

     MDB     stress (kbar)      0.00      0.00      0.00
                                0.00      0.00      0.00
                                0.00      0.00      0.00

     3D-RISM stress (kbar)      0.00      0.00      0.00
                                0.00      0.00      0.00
                                0.00      0.00      0.00

     Energy error            =      1.9E-05 Ry
     Gradient error          =      8.0E-04 Ry/Bohr

     bfgs converged in  13 scf cycles and  12 bfgs steps
     (criteria: energy <  1.0E-04 Ry, force <  1.0E-03 Ry/Bohr)

     End of BFGS Geometry Optimization

     Final energy             =  -15856.3505994975 Ry

     File ./PbI2.bfgs deleted, as requested
Begin final coordinates

ATOMIC_POSITIONS (angstrom)
Pb            2.3557148394        4.0797854062        7.3776140850
Pb            0.0001267924        8.1598724020       14.7554571630
Pb            0.0000795483        8.1598167224        7.3776221203
Pb            7.0670502222        4.0796304746       14.7555485330
Pb            7.0669678876        4.0797605192        7.3776541079
Pb            4.7113572236        8.1599157333       14.7555274357
Pb            4.7113169665        8.1598040362        7.3776445189
I             2.3556104248        1.3539351501        5.4974464477
I             2.3556341310        1.2885244219       12.8192688647
I            -0.0049422188        5.4427356339        5.4974418512
I            -0.0611655961        5.4751427392       12.8193962920
I             7.0670292131        1.3597337700        5.4533848150
I             7.0669981084        1.3597255252       12.8909009043
I             4.7163271879        5.4428173030        5.4974021883
I             4.7725388167        5.4752029317       12.8195212680
I            -0.0609363942        2.6845038902        1.9358264218
I            -0.0049652199        2.7169250279        9.2577648650
I            -2.3555421049        6.7997500706        1.8644817135
I            -2.3555954241        6.7997815535        9.3019718829
I             4.7726138747        2.6844313389        1.9358932835
I             4.7163481171        2.7169344780        9.2577845227
I             2.3557696720        6.8709074552        1.9360849536
I             2.3556851465        6.8056052903        9.2578625626
I             2.3557745628        4.0800355696       14.7550315515
End final coordinates



     Writing all to output data dir ./PbI2.save/
 
     init_run     :      8.53s CPU      8.71s WALL (       1 calls)
     electrons    :   4989.20s CPU   5055.13s WALL (      13 calls)
     update_pot   :     24.65s CPU     24.94s WALL (      12 calls)
     forces       :     55.13s CPU     55.92s WALL (      13 calls)
     stress       :    596.71s CPU    601.08s WALL (      13 calls)

     Called by init_run:
     wfcinit      :      4.40s CPU      4.49s WALL (       1 calls)
     wfcinit:atom :      0.02s CPU      0.03s WALL (       4 calls)
     wfcinit:wfcr :      4.33s CPU      4.39s WALL (       4 calls)
     potinit      :      2.84s CPU      2.89s WALL (       1 calls)
     hinit0       :      0.49s CPU      0.50s WALL (       1 calls)

     Called by electrons:
     c_bands      :   4332.45s CPU   4379.62s WALL (     167 calls)
     sum_band     :    380.24s CPU    390.50s WALL (     167 calls)
     v_of_rho     :    107.58s CPU    109.84s WALL (     171 calls)
     v_h          :      1.23s CPU      1.24s WALL (     171 calls)
     v_xc         :    122.55s CPU    125.10s WALL (     197 calls)
     newd         :     93.55s CPU     98.37s WALL (     171 calls)
     PAW_pot      :     97.07s CPU     97.79s WALL (     183 calls)
     mix_rho      :      5.31s CPU      5.45s WALL (     167 calls)
     vdW_kernel   :      1.33s CPU      1.34s WALL (       1 calls)

     Called by c_bands:
     init_us_2    :      8.46s CPU      8.56s WALL (    1492 calls)
     init_us_2:cp :      8.45s CPU      8.55s WALL (    1492 calls)
     cegterg      :   4249.65s CPU   4295.57s WALL (     668 calls)

     Called by sum_band:
     sum_band:wei :      0.09s CPU      0.10s WALL (     167 calls)
     sum_band:loo :    273.97s CPU    276.38s WALL (     167 calls)
     sum_band:buf :      3.00s CPU      3.11s WALL (     668 calls)
     sum_band:ini :      3.77s CPU      3.81s WALL (     668 calls)
     sum_band:cal :     71.00s CPU     71.50s WALL (     716 calls)
     sum_band:bec :      0.56s CPU      0.57s WALL (     716 calls)
     addusdens    :     33.68s CPU     41.08s WALL (     167 calls)
     addusd:skk   :      0.54s CPU      0.65s WALL (     334 calls)
     addusd:dgemm :     11.39s CPU     18.40s WALL (     334 calls)
     addusd:qvan2 :     20.00s CPU     20.16s WALL (     334 calls)

     Called by *egterg:
     cdiaghg      :   1493.96s CPU   1503.08s WALL (    7371 calls)
     cegterg:over :    571.42s CPU    575.59s WALL (    6787 calls)
     cegterg:upda :    219.02s CPU    223.23s WALL (    6787 calls)
     cegterg:last :     92.77s CPU     93.43s WALL (     684 calls)
     h_psi        :   1430.96s CPU   1448.88s WALL (    7459 calls)
     s_psi        :    172.00s CPU    173.43s WALL (    7459 calls)
     g_psi        :      2.02s CPU      2.05s WALL (    6787 calls)

     Called by h_psi:
     h_psi:calbec :    244.90s CPU    246.71s WALL (    7459 calls)
     vloc_psi     :   1001.72s CPU   1012.00s WALL (    7459 calls)
     add_vuspsi   :    179.95s CPU    181.38s WALL (    7459 calls)

     General routines
     calbec       :    622.60s CPU    626.48s WALL (    8435 calls)
     fft          :    148.28s CPU    149.30s WALL (   12965 calls)
     ffts         :      1.38s CPU      1.40s WALL (     338 calls)
     fftw         :   1113.73s CPU   1125.41s WALL (  997570 calls)
     interpolate  :      1.84s CPU      1.87s WALL (     171 calls)
 
     Parallel routines

     PAW routines
     PAW_pot      :     97.07s CPU     97.79s WALL (     183 calls)
 
     PWSCF        :      1h34m CPU      1h36m WALL

 
   This run was terminated on:   0:38: 1  28Mar2024            

=------------------------------------------------------------------------------=
   JOB DONE.
=------------------------------------------------------------------------------=
