
     Program PWSCF v.7.1 starts on 30Mar2024 at  6:34:44 

     This program is part of the open-source Quantum ESPRESSO suite
     for quantum simulation of materials; please cite
         "P. Giannozzi et al., J. Phys.:Condens. Matter 21 395502 (2009);
         "P. Giannozzi et al., J. Phys.:Condens. Matter 29 465901 (2017);
         "P. Giannozzi et al., J. Chem. Phys. 152 154105 (2020);
          URL http://www.quantum-espresso.org", 
     in publications or presentations arising from this work. More details at
     http://www.quantum-espresso.org/quote

     Parallel version (MPI & OpenMP), running on     180 processor cores
     Number of MPI processes:               180
     Threads/MPI process:                     1

     MPI processes distributed on     2 nodes
     1809610 MiB available memory on the printing compute node when the environment starts
 
     Reading input from espresso.pwi
Warning: card &CELL ignored
Warning: card    CELL_DYNAMICS    = 'BFGS' ignored
Warning: card / ignored

     Current dimensions of program PWSCF are:
     Max number of different atomic species (ntypx) = 10
     Max number of k-points (npk) =  40000
     Max angular momentum in pseudopotentials (lmaxx) =  4
     file Ga.pbe-dn-kjpaw_psl.1.0.0.UPF: wavefunction(s)  4S renormalized
     file N.pbe-n-kjpaw_psl.1.0.0.UPF: wavefunction(s)  2S renormalized

     **************************************************************************
     Initializing libbeef V0.1.2 with the BEEF-vdW functional.
     Citation: Wellendorff et al., PRB 85, 235149 (2012).
     **************************************************************************


     IMPORTANT: XC functional enforced from input :
     Exchange-correlation= BEEF-VDW
                           (   1   4  43  14   2   0   0)
     Any further DFT definition will be discarded
     Please, verify this is what you really want

 
     K-points division:     npool     =       3
     R & G space division:  proc/nbgrp/npool/nimage =      60
     Subspace diagonalization in iterative solution of the eigenvalue problem:
     a serial algorithm will be used

 
     Parallelization info
     --------------------
     sticks:   dense  smooth     PW     G-vecs:    dense   smooth      PW
     Min         378     302     78                44970    32176    4254
     Max         379     303     79                44974    32181    4259
     Sum       22693   18145   4705              2698283  1930731  255309
 
     Using Slab Decomposition
 


     bravais-lattice index     =            4
     lattice parameter (alat)  =      30.6565  a.u.
     unit-cell volume          =   24400.9461 (a.u.)^3
     number of atoms/cell      =          300
     number of atomic types    =            2
     number of electrons       =      2693.00
     number of Kohn-Sham states=         1616
     kinetic-energy cutoff     =      70.0000  Ry
     charge density cutoff     =     350.0000  Ry
     scf convergence threshold =      1.0E-07
     mixing beta               =       0.7000
     number of iterations used =            8  plain     mixing
     Exchange-correlation= BEEF-VDW
                           (   1   4  43  14   2   0   0)

     celldm(1)=  30.656540  celldm(2)=   0.000000  celldm(3)=   0.977927
     celldm(4)=   0.000000  celldm(5)=   0.000000  celldm(6)=   0.000000

     crystal axes: (cart. coord. in units of alat)
               a(1) = (   1.000000   0.000000   0.000000 )  
               a(2) = (  -0.500000   0.866025   0.000000 )  
               a(3) = (   0.000000   0.000000   0.977927 )  

     reciprocal axes: (cart. coord. in units 2 pi/alat)
               b(1) = (  1.000000  0.577350 -0.000000 )  
               b(2) = (  0.000000  1.154701  0.000000 )  
               b(3) = (  0.000000 -0.000000  1.022571 )  


     PseudoPot. # 1 for Ga read from file:
     //group///packages/espresso/pseudo/psl_1.0.0/pslibrary.1.0.0/pbe/PSEUDOPOTENTIALS/Ga.pbe-dn-kjpaw_psl.1.0.0.UPF
     MD5 check sum: cd2a01e492f15b435d17032472d8505c
     Pseudo is Projector augmented-wave + core cor, Zval = 13.0
     Generated using 'atomic' code by A. Dal Corso  v.7.1
     Shape of augmentation charge: PSQ
     Using radial grid of 1205 points,  6 beta functions with: 
                l(1) =   0
                l(2) =   0
                l(3) =   1
                l(4) =   1
                l(5) =   2
                l(6) =   2
     Q(r) pseudized with 0 coefficients 


     PseudoPot. # 2 for N  read from file:
     //group///packages/espresso/pseudo/psl_1.0.0/pslibrary.1.0.0/pbe/PSEUDOPOTENTIALS/N.pbe-n-kjpaw_psl.1.0.0.UPF
     MD5 check sum: f77f775694dac7e2c3fe1c82443d1a16
     Pseudo is Projector augmented-wave + core cor, Zval =  5.0
     Generated using 'atomic' code by A. Dal Corso  v.7.1
     Shape of augmentation charge: PSQ
     Using radial grid of 1085 points,  4 beta functions with: 
                l(1) =   0
                l(2) =   0
                l(3) =   1
                l(4) =   1
     Q(r) pseudized with 0 coefficients 


     atomic species   valence    mass     pseudopotential
        Ga            13.00    69.72300     Ga( 1.00)
        N              5.00    14.00700     N ( 1.00)

      2 Sym. Ops. (no inversion) found


                                    s                        frac. trans.

      isym =  1     identity                                     

 cryst.   s( 1) = (     1          0          0      )
                  (     0          1          0      )
                  (     0          0          1      )

 cart.    s( 1) = (  1.0000000  0.0000000  0.0000000 )
                  (  0.0000000  1.0000000  0.0000000 )
                  (  0.0000000  0.0000000  1.0000000 )


      isym =  2     inv. 180 deg rotation - cryst. axis [0,1,0]  

 cryst.   s( 2) = (     1          1          0      )
                  (     0         -1          0      )
                  (     0          0          1      )

 cart.    s( 2) = (  0.5000000  0.8660254  0.0000000 )
                  (  0.8660254 -0.5000000  0.0000000 )
                  (  0.0000000  0.0000000  1.0000000 )


     point group C_s (m)    
     there are  2 classes
     the character table:

       E     s    
A'     1.00  1.00
A''    1.00 -1.00

     the symmetry operations in each class and the name of the first element:

     E        1
          identity                                               
     s        2
          inv. 180 deg rotation - cryst. axis [0,1,0]            

   Cartesian axes

     site n.     atom                  positions (alat units)
         1           Ga  tau(   1) = (   0.1000001   0.0577350   0.4886906  )
         2           Ga  tau(   2) = (   0.1000001   0.0577350   0.8146665  )
         3           Ga  tau(   3) = (   0.0000001   0.2309401   0.1627148  )
         4           Ga  tau(   4) = (   0.0000001   0.2309401   0.4886906  )
         5           Ga  tau(   5) = (   0.0000001   0.2309401   0.8146665  )
         6           Ga  tau(   6) = (  -0.0999999   0.4041451   0.1627148  )
         7           Ga  tau(   7) = (  -0.0999999   0.4041451   0.4886906  )
         8           Ga  tau(   8) = (  -0.0999999   0.4041451   0.8146665  )
         9           Ga  tau(   9) = (  -0.1999999   0.5773502   0.1627148  )
        10           Ga  tau(  10) = (  -0.1999999   0.5773502   0.4886906  )
        11           Ga  tau(  11) = (  -0.1999999   0.5773502   0.8146665  )
        12           Ga  tau(  12) = (  -0.2999999   0.7505553   0.1627148  )
        13           Ga  tau(  13) = (  -0.2999999   0.7505553   0.4886906  )
        14           Ga  tau(  14) = (  -0.2999999   0.7505553   0.8146665  )
        15           Ga  tau(  15) = (   0.3000001   0.0577350   0.1627148  )
        16           Ga  tau(  16) = (   0.3000001   0.0577350   0.4886906  )
        17           Ga  tau(  17) = (   0.3000001   0.0577350   0.8146665  )
        18           Ga  tau(  18) = (   0.2000001   0.2309401   0.1627148  )
        19           Ga  tau(  19) = (   0.2000001   0.2309401   0.4886906  )
        20           Ga  tau(  20) = (   0.2000001   0.2309401   0.8146665  )
        21           Ga  tau(  21) = (   0.1000001   0.4041451   0.1627148  )
        22           Ga  tau(  22) = (   0.1000001   0.4041451   0.4886906  )
        23           Ga  tau(  23) = (   0.1000001   0.4041451   0.8146665  )
        24           Ga  tau(  24) = (   0.0000001   0.5773502   0.1627148  )
        25           Ga  tau(  25) = (   0.0000001   0.5773502   0.4886906  )
        26           Ga  tau(  26) = (   0.0000001   0.5773502   0.8146665  )
        27           Ga  tau(  27) = (  -0.0999999   0.7505553   0.1627148  )
        28           Ga  tau(  28) = (  -0.0999999   0.7505553   0.4886906  )
        29           Ga  tau(  29) = (  -0.0999999   0.7505553   0.8146665  )
        30           Ga  tau(  30) = (   0.5000001   0.0577350   0.1627148  )
        31           Ga  tau(  31) = (   0.5000001   0.0577350   0.4886906  )
        32           Ga  tau(  32) = (   0.5000001   0.0577350   0.8146665  )
        33           Ga  tau(  33) = (   0.4000001   0.2309401   0.1627148  )
        34           Ga  tau(  34) = (   0.4000001   0.2309401   0.4886906  )
        35           Ga  tau(  35) = (   0.4000001   0.2309401   0.8146665  )
        36           Ga  tau(  36) = (   0.3000001   0.4041451   0.1627148  )
        37           Ga  tau(  37) = (   0.3000001   0.4041451   0.4886906  )
        38           Ga  tau(  38) = (   0.3000001   0.4041451   0.8146665  )
        39           Ga  tau(  39) = (   0.2000001   0.5773502   0.1627148  )
        40           Ga  tau(  40) = (   0.2000001   0.5773502   0.4886906  )
        41           Ga  tau(  41) = (   0.2000001   0.5773502   0.8146665  )
        42           Ga  tau(  42) = (   0.1000001   0.7505553   0.1627148  )
        43           Ga  tau(  43) = (   0.1000001   0.7505553   0.4886906  )
        44           Ga  tau(  44) = (   0.1000001   0.7505553   0.8146665  )
        45           Ga  tau(  45) = (   0.7000001   0.0577350   0.1627148  )
        46           Ga  tau(  46) = (   0.7000001   0.0577350   0.4886906  )
        47           Ga  tau(  47) = (   0.7000001   0.0577350   0.8146665  )
        48           Ga  tau(  48) = (   0.6000001   0.2309401   0.1627148  )
        49           Ga  tau(  49) = (   0.6000001   0.2309401   0.4886906  )
        50           Ga  tau(  50) = (   0.6000001   0.2309401   0.8146665  )
        51           Ga  tau(  51) = (   0.5000001   0.4041451   0.1627148  )
        52           Ga  tau(  52) = (   0.5000001   0.4041451   0.4886906  )
        53           Ga  tau(  53) = (   0.5000001   0.4041451   0.8146665  )
        54           Ga  tau(  54) = (   0.4000001   0.5773502   0.1627148  )
        55           Ga  tau(  55) = (   0.4000001   0.5773502   0.4886906  )
        56           Ga  tau(  56) = (   0.4000001   0.5773502   0.8146665  )
        57           Ga  tau(  57) = (   0.3000001   0.7505553   0.1627148  )
        58           Ga  tau(  58) = (   0.3000001   0.7505553   0.4886906  )
        59           Ga  tau(  59) = (   0.3000001   0.7505553   0.8146665  )
        60           Ga  tau(  60) = (   0.9000001   0.0577350   0.1627148  )
        61           Ga  tau(  61) = (   0.9000001   0.0577350   0.4886906  )
        62           Ga  tau(  62) = (   0.9000001   0.0577350   0.8146665  )
        63           Ga  tau(  63) = (   0.8000001   0.2309401   0.1627148  )
        64           Ga  tau(  64) = (   0.8000001   0.2309401   0.4886906  )
        65           Ga  tau(  65) = (   0.8000001   0.2309401   0.8146665  )
        66           Ga  tau(  66) = (   0.7000001   0.4041451   0.1627148  )
        67           Ga  tau(  67) = (   0.7000001   0.4041451   0.4886906  )
        68           Ga  tau(  68) = (   0.7000001   0.4041451   0.8146665  )
        69           Ga  tau(  69) = (   0.6000001   0.5773502   0.1627148  )
        70           Ga  tau(  70) = (   0.6000001   0.5773502   0.4886906  )
        71           Ga  tau(  71) = (   0.6000001   0.5773502   0.8146665  )
        72           Ga  tau(  72) = (   0.5000001   0.7505553   0.1627148  )
        73           Ga  tau(  73) = (   0.5000001   0.7505553   0.4886906  )
        74           Ga  tau(  74) = (   0.5000001   0.7505553   0.8146665  )
        75           Ga  tau(  75) = (  -0.0000001   0.1154701   0.3257027  )
        76           Ga  tau(  76) = (  -0.0000001   0.1154701   0.6516786  )
        77           Ga  tau(  77) = (  -0.0000001   0.1154701   0.9776544  )
        78           Ga  tau(  78) = (  -0.1000001   0.2886752   0.3257027  )
        79           Ga  tau(  79) = (  -0.1000001   0.2886752   0.6516786  )
        80           Ga  tau(  80) = (  -0.1000001   0.2886752   0.9776544  )
        81           Ga  tau(  81) = (  -0.2000001   0.4618803   0.3257027  )
        82           Ga  tau(  82) = (  -0.2000001   0.4618803   0.6516786  )
        83           Ga  tau(  83) = (  -0.2000001   0.4618803   0.9776544  )
        84           Ga  tau(  84) = (  -0.3000001   0.6350854   0.3257027  )
        85           Ga  tau(  85) = (  -0.3000001   0.6350854   0.6516786  )
        86           Ga  tau(  86) = (  -0.3000001   0.6350854   0.9776544  )
        87           Ga  tau(  87) = (  -0.4000001   0.8082905   0.3257027  )
        88           Ga  tau(  88) = (  -0.4000001   0.8082905   0.6516786  )
        89           Ga  tau(  89) = (  -0.4000001   0.8082905   0.9776544  )
        90           Ga  tau(  90) = (   0.1999999   0.1154701   0.3257027  )
        91           Ga  tau(  91) = (   0.1999999   0.1154701   0.6516786  )
        92           Ga  tau(  92) = (   0.1999999   0.1154701   0.9776544  )
        93           Ga  tau(  93) = (   0.0999999   0.2886752   0.3257027  )
        94           Ga  tau(  94) = (   0.0999999   0.2886752   0.6516786  )
        95           Ga  tau(  95) = (   0.0999999   0.2886752   0.9776544  )
        96           Ga  tau(  96) = (  -0.0000001   0.4618803   0.3257027  )
        97           Ga  tau(  97) = (  -0.0000001   0.4618803   0.6516786  )
        98           Ga  tau(  98) = (  -0.0000001   0.4618803   0.9776544  )
        99           Ga  tau(  99) = (  -0.1000001   0.6350854   0.3257027  )
       100           Ga  tau( 100) = (  -0.1000001   0.6350854   0.6516786  )
       101           Ga  tau( 101) = (  -0.1000001   0.6350854   0.9776544  )
       102           Ga  tau( 102) = (  -0.2000001   0.8082905   0.3257027  )
       103           Ga  tau( 103) = (  -0.2000001   0.8082905   0.6516786  )
       104           Ga  tau( 104) = (  -0.2000001   0.8082905   0.9776544  )
       105           Ga  tau( 105) = (   0.3999999   0.1154701   0.3257027  )
       106           Ga  tau( 106) = (   0.3999999   0.1154701   0.6516786  )
       107           Ga  tau( 107) = (   0.3999999   0.1154701   0.9776544  )
       108           Ga  tau( 108) = (   0.2999999   0.2886752   0.3257027  )
       109           Ga  tau( 109) = (   0.2999999   0.2886752   0.6516786  )
       110           Ga  tau( 110) = (   0.2999999   0.2886752   0.9776544  )
       111           Ga  tau( 111) = (   0.1999999   0.4618803   0.3257027  )
       112           Ga  tau( 112) = (   0.1999999   0.4618803   0.6516786  )
       113           Ga  tau( 113) = (   0.1999999   0.4618803   0.9776544  )
       114           Ga  tau( 114) = (   0.0999999   0.6350854   0.3257027  )
       115           Ga  tau( 115) = (   0.0999999   0.6350854   0.6516786  )
       116           Ga  tau( 116) = (   0.0999999   0.6350854   0.9776544  )
       117           Ga  tau( 117) = (  -0.0000001   0.8082905   0.3257027  )
       118           Ga  tau( 118) = (  -0.0000001   0.8082905   0.6516786  )
       119           Ga  tau( 119) = (  -0.0000001   0.8082905   0.9776544  )
       120           Ga  tau( 120) = (   0.5999999   0.1154701   0.3257027  )
       121           Ga  tau( 121) = (   0.5999999   0.1154701   0.6516786  )
       122           Ga  tau( 122) = (   0.5999999   0.1154701   0.9776544  )
       123           Ga  tau( 123) = (   0.4999999   0.2886752   0.3257027  )
       124           Ga  tau( 124) = (   0.4999999   0.2886752   0.6516786  )
       125           Ga  tau( 125) = (   0.4999999   0.2886752   0.9776544  )
       126           Ga  tau( 126) = (   0.3999999   0.4618803   0.3257027  )
       127           Ga  tau( 127) = (   0.3999999   0.4618803   0.6516786  )
       128           Ga  tau( 128) = (   0.3999999   0.4618803   0.9776544  )
       129           Ga  tau( 129) = (   0.2999999   0.6350854   0.3257027  )
       130           Ga  tau( 130) = (   0.2999999   0.6350854   0.6516786  )
       131           Ga  tau( 131) = (   0.2999999   0.6350854   0.9776544  )
       132           Ga  tau( 132) = (   0.1999999   0.8082905   0.3257027  )
       133           Ga  tau( 133) = (   0.1999999   0.8082905   0.6516786  )
       134           Ga  tau( 134) = (   0.1999999   0.8082905   0.9776544  )
       135           Ga  tau( 135) = (   0.7999999   0.1154701   0.3257027  )
       136           Ga  tau( 136) = (   0.7999999   0.1154701   0.6516786  )
       137           Ga  tau( 137) = (   0.7999999   0.1154701   0.9776544  )
       138           Ga  tau( 138) = (   0.6999999   0.2886752   0.3257027  )
       139           Ga  tau( 139) = (   0.6999999   0.2886752   0.6516786  )
       140           Ga  tau( 140) = (   0.6999999   0.2886752   0.9776544  )
       141           Ga  tau( 141) = (   0.5999999   0.4618803   0.3257027  )
       142           Ga  tau( 142) = (   0.5999999   0.4618803   0.6516786  )
       143           Ga  tau( 143) = (   0.5999999   0.4618803   0.9776544  )
       144           Ga  tau( 144) = (   0.4999999   0.6350854   0.3257027  )
       145           Ga  tau( 145) = (   0.4999999   0.6350854   0.6516786  )
       146           Ga  tau( 146) = (   0.4999999   0.6350854   0.9776544  )
       147           Ga  tau( 147) = (   0.3999999   0.8082905   0.3257027  )
       148           Ga  tau( 148) = (   0.3999999   0.8082905   0.6516786  )
       149           Ga  tau( 149) = (   0.3999999   0.8082905   0.9776544  )
       150           N   tau( 150) = (   0.1000001   0.0577350   0.2855019  )
       151           N   tau( 151) = (   0.1000001   0.0577350   0.6114777  )
       152           N   tau( 152) = (   0.1000001   0.0577350   0.9374535  )
       153           N   tau( 153) = (   0.0000001   0.2309401   0.2855019  )
       154           N   tau( 154) = (   0.0000001   0.2309401   0.6114777  )
       155           N   tau( 155) = (   0.0000001   0.2309401   0.9374535  )
       156           N   tau( 156) = (  -0.0999999   0.4041451   0.2855019  )
       157           N   tau( 157) = (  -0.0999999   0.4041451   0.6114777  )
       158           N   tau( 158) = (  -0.0999999   0.4041451   0.9374535  )
       159           N   tau( 159) = (  -0.1999999   0.5773502   0.2855019  )
       160           N   tau( 160) = (  -0.1999999   0.5773502   0.6114777  )
       161           N   tau( 161) = (  -0.1999999   0.5773502   0.9374535  )
       162           N   tau( 162) = (  -0.2999999   0.7505553   0.2855019  )
       163           N   tau( 163) = (  -0.2999999   0.7505553   0.6114777  )
       164           N   tau( 164) = (  -0.2999999   0.7505553   0.9374535  )
       165           N   tau( 165) = (   0.3000001   0.0577350   0.2855019  )
       166           N   tau( 166) = (   0.3000001   0.0577350   0.6114777  )
       167           N   tau( 167) = (   0.3000001   0.0577350   0.9374535  )
       168           N   tau( 168) = (   0.2000001   0.2309401   0.2855019  )
       169           N   tau( 169) = (   0.2000001   0.2309401   0.6114777  )
       170           N   tau( 170) = (   0.2000001   0.2309401   0.9374535  )
       171           N   tau( 171) = (   0.1000001   0.4041451   0.2855019  )
       172           N   tau( 172) = (   0.1000001   0.4041451   0.6114777  )
       173           N   tau( 173) = (   0.1000001   0.4041451   0.9374535  )
       174           N   tau( 174) = (   0.0000001   0.5773502   0.2855019  )
       175           N   tau( 175) = (   0.0000001   0.5773502   0.6114777  )
       176           N   tau( 176) = (   0.0000001   0.5773502   0.9374535  )
       177           N   tau( 177) = (  -0.0999999   0.7505553   0.2855019  )
       178           N   tau( 178) = (  -0.0999999   0.7505553   0.6114777  )
       179           N   tau( 179) = (  -0.0999999   0.7505553   0.9374535  )
       180           N   tau( 180) = (   0.5000001   0.0577350   0.2855019  )
       181           N   tau( 181) = (   0.5000001   0.0577350   0.6114777  )
       182           N   tau( 182) = (   0.5000001   0.0577350   0.9374535  )
       183           N   tau( 183) = (   0.4000001   0.2309401   0.2855019  )
       184           N   tau( 184) = (   0.4000001   0.2309401   0.6114777  )
       185           N   tau( 185) = (   0.4000001   0.2309401   0.9374535  )
       186           N   tau( 186) = (   0.3000001   0.4041451   0.2855019  )
       187           N   tau( 187) = (   0.3000001   0.4041451   0.6114777  )
       188           N   tau( 188) = (   0.3000001   0.4041451   0.9374535  )
       189           N   tau( 189) = (   0.2000001   0.5773502   0.2855019  )
       190           N   tau( 190) = (   0.2000001   0.5773502   0.6114777  )
       191           N   tau( 191) = (   0.2000001   0.5773502   0.9374535  )
       192           N   tau( 192) = (   0.1000001   0.7505553   0.2855019  )
       193           N   tau( 193) = (   0.1000001   0.7505553   0.6114777  )
       194           N   tau( 194) = (   0.1000001   0.7505553   0.9374535  )
       195           N   tau( 195) = (   0.7000001   0.0577350   0.2855019  )
       196           N   tau( 196) = (   0.7000001   0.0577350   0.6114777  )
       197           N   tau( 197) = (   0.7000001   0.0577350   0.9374535  )
       198           N   tau( 198) = (   0.6000001   0.2309401   0.2855019  )
       199           N   tau( 199) = (   0.6000001   0.2309401   0.6114777  )
       200           N   tau( 200) = (   0.6000001   0.2309401   0.9374535  )
       201           N   tau( 201) = (   0.5000001   0.4041451   0.2855019  )
       202           N   tau( 202) = (   0.5000001   0.4041451   0.6114777  )
       203           N   tau( 203) = (   0.5000001   0.4041451   0.9374535  )
       204           N   tau( 204) = (   0.4000001   0.5773502   0.2855019  )
       205           N   tau( 205) = (   0.4000001   0.5773502   0.6114777  )
       206           N   tau( 206) = (   0.4000001   0.5773502   0.9374535  )
       207           N   tau( 207) = (   0.3000001   0.7505553   0.2855019  )
       208           N   tau( 208) = (   0.3000001   0.7505553   0.6114777  )
       209           N   tau( 209) = (   0.3000001   0.7505553   0.9374535  )
       210           N   tau( 210) = (   0.9000001   0.0577350   0.2855019  )
       211           N   tau( 211) = (   0.9000001   0.0577350   0.6114777  )
       212           N   tau( 212) = (   0.9000001   0.0577350   0.9374535  )
       213           N   tau( 213) = (   0.8000001   0.2309401   0.2855019  )
       214           N   tau( 214) = (   0.8000001   0.2309401   0.6114777  )
       215           N   tau( 215) = (   0.8000001   0.2309401   0.9374535  )
       216           N   tau( 216) = (   0.7000001   0.4041451   0.2855019  )
       217           N   tau( 217) = (   0.7000001   0.4041451   0.6114777  )
       218           N   tau( 218) = (   0.7000001   0.4041451   0.9374535  )
       219           N   tau( 219) = (   0.6000001   0.5773502   0.2855019  )
       220           N   tau( 220) = (   0.6000001   0.5773502   0.6114777  )
       221           N   tau( 221) = (   0.6000001   0.5773502   0.9374535  )
       222           N   tau( 222) = (   0.5000001   0.7505553   0.2855019  )
       223           N   tau( 223) = (   0.5000001   0.7505553   0.6114777  )
       224           N   tau( 224) = (   0.5000001   0.7505553   0.9374535  )
       225           N   tau( 225) = (  -0.0000001   0.1154701   0.1225140  )
       226           N   tau( 226) = (  -0.0000001   0.1154701   0.4484898  )
       227           N   tau( 227) = (  -0.0000001   0.1154701   0.7744656  )
       228           N   tau( 228) = (  -0.1000001   0.2886752   0.1225140  )
       229           N   tau( 229) = (  -0.1000001   0.2886752   0.4484898  )
       230           N   tau( 230) = (  -0.1000001   0.2886752   0.7744656  )
       231           N   tau( 231) = (  -0.2000001   0.4618803   0.1225140  )
       232           N   tau( 232) = (  -0.2000001   0.4618803   0.4484898  )
       233           N   tau( 233) = (  -0.2000001   0.4618803   0.7744656  )
       234           N   tau( 234) = (  -0.3000001   0.6350854   0.1225140  )
       235           N   tau( 235) = (  -0.3000001   0.6350854   0.4484898  )
       236           N   tau( 236) = (  -0.3000001   0.6350854   0.7744656  )
       237           N   tau( 237) = (  -0.4000001   0.8082905   0.1225140  )
       238           N   tau( 238) = (  -0.4000001   0.8082905   0.4484898  )
       239           N   tau( 239) = (  -0.4000001   0.8082905   0.7744656  )
       240           N   tau( 240) = (   0.1999999   0.1154701   0.1225140  )
       241           N   tau( 241) = (   0.1999999   0.1154701   0.4484898  )
       242           N   tau( 242) = (   0.1999999   0.1154701   0.7744656  )
       243           N   tau( 243) = (   0.0999999   0.2886752   0.1225140  )
       244           N   tau( 244) = (   0.0999999   0.2886752   0.4484898  )
       245           N   tau( 245) = (   0.0999999   0.2886752   0.7744656  )
       246           N   tau( 246) = (  -0.0000001   0.4618803   0.1225140  )
       247           N   tau( 247) = (  -0.0000001   0.4618803   0.4484898  )
       248           N   tau( 248) = (  -0.0000001   0.4618803   0.7744656  )
       249           N   tau( 249) = (  -0.1000001   0.6350854   0.1225140  )
       250           N   tau( 250) = (  -0.1000001   0.6350854   0.4484898  )
       251           N   tau( 251) = (  -0.1000001   0.6350854   0.7744656  )
       252           N   tau( 252) = (  -0.2000001   0.8082905   0.1225140  )
       253           N   tau( 253) = (  -0.2000001   0.8082905   0.4484898  )
       254           N   tau( 254) = (  -0.2000001   0.8082905   0.7744656  )
       255           N   tau( 255) = (   0.3999999   0.1154701   0.1225140  )
       256           N   tau( 256) = (   0.3999999   0.1154701   0.4484898  )
       257           N   tau( 257) = (   0.3999999   0.1154701   0.7744656  )
       258           N   tau( 258) = (   0.2999999   0.2886752   0.1225140  )
       259           N   tau( 259) = (   0.2999999   0.2886752   0.4484898  )
       260           N   tau( 260) = (   0.2999999   0.2886752   0.7744656  )
       261           N   tau( 261) = (   0.1999999   0.4618803   0.1225140  )
       262           N   tau( 262) = (   0.1999999   0.4618803   0.4484898  )
       263           N   tau( 263) = (   0.1999999   0.4618803   0.7744656  )
       264           N   tau( 264) = (   0.0999999   0.6350854   0.1225140  )
       265           N   tau( 265) = (   0.0999999   0.6350854   0.4484898  )
       266           N   tau( 266) = (   0.0999999   0.6350854   0.7744656  )
       267           N   tau( 267) = (  -0.0000001   0.8082905   0.1225140  )
       268           N   tau( 268) = (  -0.0000001   0.8082905   0.4484898  )
       269           N   tau( 269) = (  -0.0000001   0.8082905   0.7744656  )
       270           N   tau( 270) = (   0.5999999   0.1154701   0.1225140  )
       271           N   tau( 271) = (   0.5999999   0.1154701   0.4484898  )
       272           N   tau( 272) = (   0.5999999   0.1154701   0.7744656  )
       273           N   tau( 273) = (   0.4999999   0.2886752   0.1225140  )
       274           N   tau( 274) = (   0.4999999   0.2886752   0.4484898  )
       275           N   tau( 275) = (   0.4999999   0.2886752   0.7744656  )
       276           N   tau( 276) = (   0.3999999   0.4618803   0.1225140  )
       277           N   tau( 277) = (   0.3999999   0.4618803   0.4484898  )
       278           N   tau( 278) = (   0.3999999   0.4618803   0.7744656  )
       279           N   tau( 279) = (   0.2999999   0.6350854   0.1225140  )
       280           N   tau( 280) = (   0.2999999   0.6350854   0.4484898  )
       281           N   tau( 281) = (   0.2999999   0.6350854   0.7744656  )
       282           N   tau( 282) = (   0.1999999   0.8082905   0.1225140  )
       283           N   tau( 283) = (   0.1999999   0.8082905   0.4484898  )
       284           N   tau( 284) = (   0.1999999   0.8082905   0.7744656  )
       285           N   tau( 285) = (   0.7999999   0.1154701   0.1225140  )
       286           N   tau( 286) = (   0.7999999   0.1154701   0.4484898  )
       287           N   tau( 287) = (   0.7999999   0.1154701   0.7744656  )
       288           N   tau( 288) = (   0.6999999   0.2886752   0.1225140  )
       289           N   tau( 289) = (   0.6999999   0.2886752   0.4484898  )
       290           N   tau( 290) = (   0.6999999   0.2886752   0.7744656  )
       291           N   tau( 291) = (   0.5999999   0.4618803   0.1225140  )
       292           N   tau( 292) = (   0.5999999   0.4618803   0.4484898  )
       293           N   tau( 293) = (   0.5999999   0.4618803   0.7744656  )
       294           N   tau( 294) = (   0.4999999   0.6350854   0.1225140  )
       295           N   tau( 295) = (   0.4999999   0.6350854   0.4484898  )
       296           N   tau( 296) = (   0.4999999   0.6350854   0.7744656  )
       297           N   tau( 297) = (   0.3999999   0.8082905   0.1225140  )
       298           N   tau( 298) = (   0.3999999   0.8082905   0.4484898  )
       299           N   tau( 299) = (   0.3999999   0.8082905   0.7744656  )
       300           N   tau( 300) = (   0.1000001   0.0577350   0.1627148  )

   Crystallographic axes

     site n.     atom                  positions (cryst. coord.)
         1           Ga  tau(   1) = (  0.1333334  0.0666666  0.4997208  )
         2           Ga  tau(   2) = (  0.1333334  0.0666666  0.8330541  )
         3           Ga  tau(   3) = (  0.1333334  0.2666666  0.1663874  )
         4           Ga  tau(   4) = (  0.1333334  0.2666666  0.4997208  )
         5           Ga  tau(   5) = (  0.1333334  0.2666666  0.8330541  )
         6           Ga  tau(   6) = (  0.1333334  0.4666666  0.1663874  )
         7           Ga  tau(   7) = (  0.1333334  0.4666666  0.4997208  )
         8           Ga  tau(   8) = (  0.1333334  0.4666666  0.8330541  )
         9           Ga  tau(   9) = (  0.1333334  0.6666666  0.1663874  )
        10           Ga  tau(  10) = (  0.1333334  0.6666666  0.4997208  )
        11           Ga  tau(  11) = (  0.1333334  0.6666666  0.8330541  )
        12           Ga  tau(  12) = (  0.1333334  0.8666666  0.1663874  )
        13           Ga  tau(  13) = (  0.1333334  0.8666666  0.4997208  )
        14           Ga  tau(  14) = (  0.1333334  0.8666666  0.8330541  )
        15           Ga  tau(  15) = (  0.3333334  0.0666666  0.1663874  )
        16           Ga  tau(  16) = (  0.3333334  0.0666666  0.4997208  )
        17           Ga  tau(  17) = (  0.3333334  0.0666666  0.8330541  )
        18           Ga  tau(  18) = (  0.3333334  0.2666666  0.1663874  )
        19           Ga  tau(  19) = (  0.3333334  0.2666666  0.4997208  )
        20           Ga  tau(  20) = (  0.3333334  0.2666666  0.8330541  )
        21           Ga  tau(  21) = (  0.3333334  0.4666666  0.1663874  )
        22           Ga  tau(  22) = (  0.3333334  0.4666666  0.4997208  )
        23           Ga  tau(  23) = (  0.3333334  0.4666666  0.8330541  )
        24           Ga  tau(  24) = (  0.3333334  0.6666666  0.1663874  )
        25           Ga  tau(  25) = (  0.3333334  0.6666666  0.4997208  )
        26           Ga  tau(  26) = (  0.3333334  0.6666666  0.8330541  )
        27           Ga  tau(  27) = (  0.3333334  0.8666666  0.1663874  )
        28           Ga  tau(  28) = (  0.3333334  0.8666666  0.4997208  )
        29           Ga  tau(  29) = (  0.3333334  0.8666666  0.8330541  )
        30           Ga  tau(  30) = (  0.5333334  0.0666666  0.1663874  )
        31           Ga  tau(  31) = (  0.5333334  0.0666666  0.4997208  )
        32           Ga  tau(  32) = (  0.5333334  0.0666666  0.8330541  )
        33           Ga  tau(  33) = (  0.5333334  0.2666666  0.1663874  )
        34           Ga  tau(  34) = (  0.5333334  0.2666666  0.4997208  )
        35           Ga  tau(  35) = (  0.5333334  0.2666666  0.8330541  )
        36           Ga  tau(  36) = (  0.5333334  0.4666666  0.1663874  )
        37           Ga  tau(  37) = (  0.5333334  0.4666666  0.4997208  )
        38           Ga  tau(  38) = (  0.5333334  0.4666666  0.8330541  )
        39           Ga  tau(  39) = (  0.5333334  0.6666666  0.1663874  )
        40           Ga  tau(  40) = (  0.5333334  0.6666666  0.4997208  )
        41           Ga  tau(  41) = (  0.5333334  0.6666666  0.8330541  )
        42           Ga  tau(  42) = (  0.5333334  0.8666666  0.1663874  )
        43           Ga  tau(  43) = (  0.5333334  0.8666666  0.4997208  )
        44           Ga  tau(  44) = (  0.5333334  0.8666666  0.8330541  )
        45           Ga  tau(  45) = (  0.7333334  0.0666666  0.1663874  )
        46           Ga  tau(  46) = (  0.7333334  0.0666666  0.4997208  )
        47           Ga  tau(  47) = (  0.7333334  0.0666666  0.8330541  )
        48           Ga  tau(  48) = (  0.7333334  0.2666666  0.1663874  )
        49           Ga  tau(  49) = (  0.7333334  0.2666666  0.4997208  )
        50           Ga  tau(  50) = (  0.7333334  0.2666666  0.8330541  )
        51           Ga  tau(  51) = (  0.7333334  0.4666666  0.1663874  )
        52           Ga  tau(  52) = (  0.7333334  0.4666666  0.4997208  )
        53           Ga  tau(  53) = (  0.7333334  0.4666666  0.8330541  )
        54           Ga  tau(  54) = (  0.7333334  0.6666666  0.1663874  )
        55           Ga  tau(  55) = (  0.7333334  0.6666666  0.4997208  )
        56           Ga  tau(  56) = (  0.7333334  0.6666666  0.8330541  )
        57           Ga  tau(  57) = (  0.7333334  0.8666666  0.1663874  )
        58           Ga  tau(  58) = (  0.7333334  0.8666666  0.4997208  )
        59           Ga  tau(  59) = (  0.7333334  0.8666666  0.8330541  )
        60           Ga  tau(  60) = (  0.9333334  0.0666666  0.1663874  )
        61           Ga  tau(  61) = (  0.9333334  0.0666666  0.4997208  )
        62           Ga  tau(  62) = (  0.9333334  0.0666666  0.8330541  )
        63           Ga  tau(  63) = (  0.9333334  0.2666666  0.1663874  )
        64           Ga  tau(  64) = (  0.9333334  0.2666666  0.4997208  )
        65           Ga  tau(  65) = (  0.9333334  0.2666666  0.8330541  )
        66           Ga  tau(  66) = (  0.9333334  0.4666666  0.1663874  )
        67           Ga  tau(  67) = (  0.9333334  0.4666666  0.4997208  )
        68           Ga  tau(  68) = (  0.9333334  0.4666666  0.8330541  )
        69           Ga  tau(  69) = (  0.9333334  0.6666666  0.1663874  )
        70           Ga  tau(  70) = (  0.9333334  0.6666666  0.4997208  )
        71           Ga  tau(  71) = (  0.9333334  0.6666666  0.8330541  )
        72           Ga  tau(  72) = (  0.9333334  0.8666666  0.1663874  )
        73           Ga  tau(  73) = (  0.9333334  0.8666666  0.4997208  )
        74           Ga  tau(  74) = (  0.9333334  0.8666666  0.8330541  )
        75           Ga  tau(  75) = (  0.0666666  0.1333334  0.3330541  )
        76           Ga  tau(  76) = (  0.0666666  0.1333334  0.6663874  )
        77           Ga  tau(  77) = (  0.0666666  0.1333334  0.9997208  )
        78           Ga  tau(  78) = (  0.0666666  0.3333334  0.3330541  )
        79           Ga  tau(  79) = (  0.0666666  0.3333334  0.6663874  )
        80           Ga  tau(  80) = (  0.0666666  0.3333334  0.9997208  )
        81           Ga  tau(  81) = (  0.0666666  0.5333334  0.3330541  )
        82           Ga  tau(  82) = (  0.0666666  0.5333334  0.6663874  )
        83           Ga  tau(  83) = (  0.0666666  0.5333334  0.9997208  )
        84           Ga  tau(  84) = (  0.0666666  0.7333334  0.3330541  )
        85           Ga  tau(  85) = (  0.0666666  0.7333334  0.6663874  )
        86           Ga  tau(  86) = (  0.0666666  0.7333334  0.9997208  )
        87           Ga  tau(  87) = (  0.0666666  0.9333334  0.3330541  )
        88           Ga  tau(  88) = (  0.0666666  0.9333334  0.6663874  )
        89           Ga  tau(  89) = (  0.0666666  0.9333334  0.9997208  )
        90           Ga  tau(  90) = (  0.2666666  0.1333334  0.3330541  )
        91           Ga  tau(  91) = (  0.2666666  0.1333334  0.6663874  )
        92           Ga  tau(  92) = (  0.2666666  0.1333334  0.9997208  )
        93           Ga  tau(  93) = (  0.2666666  0.3333334  0.3330541  )
        94           Ga  tau(  94) = (  0.2666666  0.3333334  0.6663874  )
        95           Ga  tau(  95) = (  0.2666666  0.3333334  0.9997208  )
        96           Ga  tau(  96) = (  0.2666666  0.5333334  0.3330541  )
        97           Ga  tau(  97) = (  0.2666666  0.5333334  0.6663874  )
        98           Ga  tau(  98) = (  0.2666666  0.5333334  0.9997208  )
        99           Ga  tau(  99) = (  0.2666666  0.7333334  0.3330541  )
       100           Ga  tau( 100) = (  0.2666666  0.7333334  0.6663874  )
       101           Ga  tau( 101) = (  0.2666666  0.7333334  0.9997208  )
       102           Ga  tau( 102) = (  0.2666666  0.9333334  0.3330541  )
       103           Ga  tau( 103) = (  0.2666666  0.9333334  0.6663874  )
       104           Ga  tau( 104) = (  0.2666666  0.9333334  0.9997208  )
       105           Ga  tau( 105) = (  0.4666666  0.1333334  0.3330541  )
       106           Ga  tau( 106) = (  0.4666666  0.1333334  0.6663874  )
       107           Ga  tau( 107) = (  0.4666666  0.1333334  0.9997208  )
       108           Ga  tau( 108) = (  0.4666666  0.3333334  0.3330541  )
       109           Ga  tau( 109) = (  0.4666666  0.3333334  0.6663874  )
       110           Ga  tau( 110) = (  0.4666666  0.3333334  0.9997208  )
       111           Ga  tau( 111) = (  0.4666666  0.5333334  0.3330541  )
       112           Ga  tau( 112) = (  0.4666666  0.5333334  0.6663874  )
       113           Ga  tau( 113) = (  0.4666666  0.5333334  0.9997208  )
       114           Ga  tau( 114) = (  0.4666666  0.7333334  0.3330541  )
       115           Ga  tau( 115) = (  0.4666666  0.7333334  0.6663874  )
       116           Ga  tau( 116) = (  0.4666666  0.7333334  0.9997208  )
       117           Ga  tau( 117) = (  0.4666666  0.9333334  0.3330541  )
       118           Ga  tau( 118) = (  0.4666666  0.9333334  0.6663874  )
       119           Ga  tau( 119) = (  0.4666666  0.9333334  0.9997208  )
       120           Ga  tau( 120) = (  0.6666666  0.1333334  0.3330541  )
       121           Ga  tau( 121) = (  0.6666666  0.1333334  0.6663874  )
       122           Ga  tau( 122) = (  0.6666666  0.1333334  0.9997208  )
       123           Ga  tau( 123) = (  0.6666666  0.3333334  0.3330541  )
       124           Ga  tau( 124) = (  0.6666666  0.3333334  0.6663874  )
       125           Ga  tau( 125) = (  0.6666666  0.3333334  0.9997208  )
       126           Ga  tau( 126) = (  0.6666666  0.5333334  0.3330541  )
       127           Ga  tau( 127) = (  0.6666666  0.5333334  0.6663874  )
       128           Ga  tau( 128) = (  0.6666666  0.5333334  0.9997208  )
       129           Ga  tau( 129) = (  0.6666666  0.7333334  0.3330541  )
       130           Ga  tau( 130) = (  0.6666666  0.7333334  0.6663874  )
       131           Ga  tau( 131) = (  0.6666666  0.7333334  0.9997208  )
       132           Ga  tau( 132) = (  0.6666666  0.9333334  0.3330541  )
       133           Ga  tau( 133) = (  0.6666666  0.9333334  0.6663874  )
       134           Ga  tau( 134) = (  0.6666666  0.9333334  0.9997208  )
       135           Ga  tau( 135) = (  0.8666666  0.1333334  0.3330541  )
       136           Ga  tau( 136) = (  0.8666666  0.1333334  0.6663874  )
       137           Ga  tau( 137) = (  0.8666666  0.1333334  0.9997208  )
       138           Ga  tau( 138) = (  0.8666666  0.3333334  0.3330541  )
       139           Ga  tau( 139) = (  0.8666666  0.3333334  0.6663874  )
       140           Ga  tau( 140) = (  0.8666666  0.3333334  0.9997208  )
       141           Ga  tau( 141) = (  0.8666666  0.5333334  0.3330541  )
       142           Ga  tau( 142) = (  0.8666666  0.5333334  0.6663874  )
       143           Ga  tau( 143) = (  0.8666666  0.5333334  0.9997208  )
       144           Ga  tau( 144) = (  0.8666666  0.7333334  0.3330541  )
       145           Ga  tau( 145) = (  0.8666666  0.7333334  0.6663874  )
       146           Ga  tau( 146) = (  0.8666666  0.7333334  0.9997208  )
       147           Ga  tau( 147) = (  0.8666666  0.9333334  0.3330541  )
       148           Ga  tau( 148) = (  0.8666666  0.9333334  0.6663874  )
       149           Ga  tau( 149) = (  0.8666666  0.9333334  0.9997208  )
       150           N   tau( 150) = (  0.1333334  0.0666666  0.2919459  )
       151           N   tau( 151) = (  0.1333334  0.0666666  0.6252792  )
       152           N   tau( 152) = (  0.1333334  0.0666666  0.9586126  )
       153           N   tau( 153) = (  0.1333334  0.2666666  0.2919459  )
       154           N   tau( 154) = (  0.1333334  0.2666666  0.6252792  )
       155           N   tau( 155) = (  0.1333334  0.2666666  0.9586126  )
       156           N   tau( 156) = (  0.1333334  0.4666666  0.2919459  )
       157           N   tau( 157) = (  0.1333334  0.4666666  0.6252792  )
       158           N   tau( 158) = (  0.1333334  0.4666666  0.9586126  )
       159           N   tau( 159) = (  0.1333334  0.6666666  0.2919459  )
       160           N   tau( 160) = (  0.1333334  0.6666666  0.6252792  )
       161           N   tau( 161) = (  0.1333334  0.6666666  0.9586126  )
       162           N   tau( 162) = (  0.1333334  0.8666666  0.2919459  )
       163           N   tau( 163) = (  0.1333334  0.8666666  0.6252792  )
       164           N   tau( 164) = (  0.1333334  0.8666666  0.9586126  )
       165           N   tau( 165) = (  0.3333334  0.0666666  0.2919459  )
       166           N   tau( 166) = (  0.3333334  0.0666666  0.6252792  )
       167           N   tau( 167) = (  0.3333334  0.0666666  0.9586126  )
       168           N   tau( 168) = (  0.3333334  0.2666666  0.2919459  )
       169           N   tau( 169) = (  0.3333334  0.2666666  0.6252792  )
       170           N   tau( 170) = (  0.3333334  0.2666666  0.9586126  )
       171           N   tau( 171) = (  0.3333334  0.4666666  0.2919459  )
       172           N   tau( 172) = (  0.3333334  0.4666666  0.6252792  )
       173           N   tau( 173) = (  0.3333334  0.4666666  0.9586126  )
       174           N   tau( 174) = (  0.3333334  0.6666666  0.2919459  )
       175           N   tau( 175) = (  0.3333334  0.6666666  0.6252792  )
       176           N   tau( 176) = (  0.3333334  0.6666666  0.9586126  )
       177           N   tau( 177) = (  0.3333334  0.8666666  0.2919459  )
       178           N   tau( 178) = (  0.3333334  0.8666666  0.6252792  )
       179           N   tau( 179) = (  0.3333334  0.8666666  0.9586126  )
       180           N   tau( 180) = (  0.5333334  0.0666666  0.2919459  )
       181           N   tau( 181) = (  0.5333334  0.0666666  0.6252792  )
       182           N   tau( 182) = (  0.5333334  0.0666666  0.9586126  )
       183           N   tau( 183) = (  0.5333334  0.2666666  0.2919459  )
       184           N   tau( 184) = (  0.5333334  0.2666666  0.6252792  )
       185           N   tau( 185) = (  0.5333334  0.2666666  0.9586126  )
       186           N   tau( 186) = (  0.5333334  0.4666666  0.2919459  )
       187           N   tau( 187) = (  0.5333334  0.4666666  0.6252792  )
       188           N   tau( 188) = (  0.5333334  0.4666666  0.9586126  )
       189           N   tau( 189) = (  0.5333334  0.6666666  0.2919459  )
       190           N   tau( 190) = (  0.5333334  0.6666666  0.6252792  )
       191           N   tau( 191) = (  0.5333334  0.6666666  0.9586126  )
       192           N   tau( 192) = (  0.5333334  0.8666666  0.2919459  )
       193           N   tau( 193) = (  0.5333334  0.8666666  0.6252792  )
       194           N   tau( 194) = (  0.5333334  0.8666666  0.9586126  )
       195           N   tau( 195) = (  0.7333334  0.0666666  0.2919459  )
       196           N   tau( 196) = (  0.7333334  0.0666666  0.6252792  )
       197           N   tau( 197) = (  0.7333334  0.0666666  0.9586126  )
       198           N   tau( 198) = (  0.7333334  0.2666666  0.2919459  )
       199           N   tau( 199) = (  0.7333334  0.2666666  0.6252792  )
       200           N   tau( 200) = (  0.7333334  0.2666666  0.9586126  )
       201           N   tau( 201) = (  0.7333334  0.4666666  0.2919459  )
       202           N   tau( 202) = (  0.7333334  0.4666666  0.6252792  )
       203           N   tau( 203) = (  0.7333334  0.4666666  0.9586126  )
       204           N   tau( 204) = (  0.7333334  0.6666666  0.2919459  )
       205           N   tau( 205) = (  0.7333334  0.6666666  0.6252792  )
       206           N   tau( 206) = (  0.7333334  0.6666666  0.9586126  )
       207           N   tau( 207) = (  0.7333334  0.8666666  0.2919459  )
       208           N   tau( 208) = (  0.7333334  0.8666666  0.6252792  )
       209           N   tau( 209) = (  0.7333334  0.8666666  0.9586126  )
       210           N   tau( 210) = (  0.9333334  0.0666666  0.2919459  )
       211           N   tau( 211) = (  0.9333334  0.0666666  0.6252792  )
       212           N   tau( 212) = (  0.9333334  0.0666666  0.9586126  )
       213           N   tau( 213) = (  0.9333334  0.2666666  0.2919459  )
       214           N   tau( 214) = (  0.9333334  0.2666666  0.6252792  )
       215           N   tau( 215) = (  0.9333334  0.2666666  0.9586126  )
       216           N   tau( 216) = (  0.9333334  0.4666666  0.2919459  )
       217           N   tau( 217) = (  0.9333334  0.4666666  0.6252792  )
       218           N   tau( 218) = (  0.9333334  0.4666666  0.9586126  )
       219           N   tau( 219) = (  0.9333334  0.6666666  0.2919459  )
       220           N   tau( 220) = (  0.9333334  0.6666666  0.6252792  )
       221           N   tau( 221) = (  0.9333334  0.6666666  0.9586126  )
       222           N   tau( 222) = (  0.9333334  0.8666666  0.2919459  )
       223           N   tau( 223) = (  0.9333334  0.8666666  0.6252792  )
       224           N   tau( 224) = (  0.9333334  0.8666666  0.9586126  )
       225           N   tau( 225) = (  0.0666666  0.1333334  0.1252792  )
       226           N   tau( 226) = (  0.0666666  0.1333334  0.4586126  )
       227           N   tau( 227) = (  0.0666666  0.1333334  0.7919459  )
       228           N   tau( 228) = (  0.0666666  0.3333334  0.1252792  )
       229           N   tau( 229) = (  0.0666666  0.3333334  0.4586126  )
       230           N   tau( 230) = (  0.0666666  0.3333334  0.7919459  )
       231           N   tau( 231) = (  0.0666666  0.5333334  0.1252792  )
       232           N   tau( 232) = (  0.0666666  0.5333334  0.4586126  )
       233           N   tau( 233) = (  0.0666666  0.5333334  0.7919459  )
       234           N   tau( 234) = (  0.0666666  0.7333334  0.1252792  )
       235           N   tau( 235) = (  0.0666666  0.7333334  0.4586126  )
       236           N   tau( 236) = (  0.0666666  0.7333334  0.7919459  )
       237           N   tau( 237) = (  0.0666666  0.9333334  0.1252792  )
       238           N   tau( 238) = (  0.0666666  0.9333334  0.4586126  )
       239           N   tau( 239) = (  0.0666666  0.9333334  0.7919459  )
       240           N   tau( 240) = (  0.2666666  0.1333334  0.1252792  )
       241           N   tau( 241) = (  0.2666666  0.1333334  0.4586126  )
       242           N   tau( 242) = (  0.2666666  0.1333334  0.7919459  )
       243           N   tau( 243) = (  0.2666666  0.3333334  0.1252792  )
       244           N   tau( 244) = (  0.2666666  0.3333334  0.4586126  )
       245           N   tau( 245) = (  0.2666666  0.3333334  0.7919459  )
       246           N   tau( 246) = (  0.2666666  0.5333334  0.1252792  )
       247           N   tau( 247) = (  0.2666666  0.5333334  0.4586126  )
       248           N   tau( 248) = (  0.2666666  0.5333334  0.7919459  )
       249           N   tau( 249) = (  0.2666666  0.7333334  0.1252792  )
       250           N   tau( 250) = (  0.2666666  0.7333334  0.4586126  )
       251           N   tau( 251) = (  0.2666666  0.7333334  0.7919459  )
       252           N   tau( 252) = (  0.2666666  0.9333334  0.1252792  )
       253           N   tau( 253) = (  0.2666666  0.9333334  0.4586126  )
       254           N   tau( 254) = (  0.2666666  0.9333334  0.7919459  )
       255           N   tau( 255) = (  0.4666666  0.1333334  0.1252792  )
       256           N   tau( 256) = (  0.4666666  0.1333334  0.4586126  )
       257           N   tau( 257) = (  0.4666666  0.1333334  0.7919459  )
       258           N   tau( 258) = (  0.4666666  0.3333334  0.1252792  )
       259           N   tau( 259) = (  0.4666666  0.3333334  0.4586126  )
       260           N   tau( 260) = (  0.4666666  0.3333334  0.7919459  )
       261           N   tau( 261) = (  0.4666666  0.5333334  0.1252792  )
       262           N   tau( 262) = (  0.4666666  0.5333334  0.4586126  )
       263           N   tau( 263) = (  0.4666666  0.5333334  0.7919459  )
       264           N   tau( 264) = (  0.4666666  0.7333334  0.1252792  )
       265           N   tau( 265) = (  0.4666666  0.7333334  0.4586126  )
       266           N   tau( 266) = (  0.4666666  0.7333334  0.7919459  )
       267           N   tau( 267) = (  0.4666666  0.9333334  0.1252792  )
       268           N   tau( 268) = (  0.4666666  0.9333334  0.4586126  )
       269           N   tau( 269) = (  0.4666666  0.9333334  0.7919459  )
       270           N   tau( 270) = (  0.6666666  0.1333334  0.1252792  )
       271           N   tau( 271) = (  0.6666666  0.1333334  0.4586126  )
       272           N   tau( 272) = (  0.6666666  0.1333334  0.7919459  )
       273           N   tau( 273) = (  0.6666666  0.3333334  0.1252792  )
       274           N   tau( 274) = (  0.6666666  0.3333334  0.4586126  )
       275           N   tau( 275) = (  0.6666666  0.3333334  0.7919459  )
       276           N   tau( 276) = (  0.6666666  0.5333334  0.1252792  )
       277           N   tau( 277) = (  0.6666666  0.5333334  0.4586126  )
       278           N   tau( 278) = (  0.6666666  0.5333334  0.7919459  )
       279           N   tau( 279) = (  0.6666666  0.7333334  0.1252792  )
       280           N   tau( 280) = (  0.6666666  0.7333334  0.4586126  )
       281           N   tau( 281) = (  0.6666666  0.7333334  0.7919459  )
       282           N   tau( 282) = (  0.6666666  0.9333334  0.1252792  )
       283           N   tau( 283) = (  0.6666666  0.9333334  0.4586126  )
       284           N   tau( 284) = (  0.6666666  0.9333334  0.7919459  )
       285           N   tau( 285) = (  0.8666666  0.1333334  0.1252792  )
       286           N   tau( 286) = (  0.8666666  0.1333334  0.4586126  )
       287           N   tau( 287) = (  0.8666666  0.1333334  0.7919459  )
       288           N   tau( 288) = (  0.8666666  0.3333334  0.1252792  )
       289           N   tau( 289) = (  0.8666666  0.3333334  0.4586126  )
       290           N   tau( 290) = (  0.8666666  0.3333334  0.7919459  )
       291           N   tau( 291) = (  0.8666666  0.5333334  0.1252792  )
       292           N   tau( 292) = (  0.8666666  0.5333334  0.4586126  )
       293           N   tau( 293) = (  0.8666666  0.5333334  0.7919459  )
       294           N   tau( 294) = (  0.8666666  0.7333334  0.1252792  )
       295           N   tau( 295) = (  0.8666666  0.7333334  0.4586126  )
       296           N   tau( 296) = (  0.8666666  0.7333334  0.7919459  )
       297           N   tau( 297) = (  0.8666666  0.9333334  0.1252792  )
       298           N   tau( 298) = (  0.8666666  0.9333334  0.4586126  )
       299           N   tau( 299) = (  0.8666666  0.9333334  0.7919459  )
       300           N   tau( 300) = (  0.1333334  0.0666666  0.1663874  )

     number of k points=     6  Gaussian smearing, width (Ry)=  0.0100
                       cart. coord. in units 2pi/alat
        k(    1) = (   0.0000000   0.0000000   0.0000000), wk =   0.2500000
        k(    2) = (   0.0000000   0.0000000  -0.5112854), wk =   0.2500000
        k(    3) = (   0.0000000  -0.5773503   0.0000000), wk =   0.5000000
        k(    4) = (   0.0000000  -0.5773503  -0.5112854), wk =   0.5000000
        k(    5) = (  -0.5000000  -0.2886751   0.0000000), wk =   0.2500000
        k(    6) = (  -0.5000000  -0.2886751  -0.5112854), wk =   0.2500000

                       cryst. coord.
        k(    1) = (   0.0000000   0.0000000   0.0000000), wk =   0.2500000
        k(    2) = (   0.0000000   0.0000000  -0.5000000), wk =   0.2500000
        k(    3) = (   0.0000000  -0.5000000   0.0000000), wk =   0.5000000
        k(    4) = (   0.0000000  -0.5000000  -0.5000000), wk =   0.5000000
        k(    5) = (  -0.5000000  -0.0000000   0.0000000), wk =   0.2500000
        k(    6) = (  -0.5000000  -0.0000000  -0.5000000), wk =   0.2500000

     Dense  grid:  2698283 G-vectors     FFT dimensions: ( 192, 192, 180)

     Smooth grid:  1930731 G-vectors     FFT dimensions: ( 180, 180, 160)

     Dynamical RAM for                 wfc:      99.18 MB

     Dynamical RAM for     wfc (w. buffer):     297.53 MB

     Dynamical RAM for           str. fact:       1.37 MB

     Dynamical RAM for           local pot:       0.00 MB

     Dynamical RAM for          nlocal pot:     238.73 MB

     Dynamical RAM for                qrad:       3.00 MB

     Dynamical RAM for          rho,v,vnew:       4.59 MB

     Dynamical RAM for               rhoin:       1.53 MB

     Dynamical RAM for            rho*nmix:      10.98 MB

     Dynamical RAM for           G-vectors:       2.82 MB

     Dynamical RAM for          h,s,v(r/c):    1912.69 MB

     Dynamical RAM for          <psi|beta>:      95.92 MB

     Dynamical RAM for                 psi:     396.70 MB

     Dynamical RAM for                hpsi:     396.70 MB

     Dynamical RAM for                spsi:     396.70 MB

     Dynamical RAM for      wfcinit/wfcrot:     258.13 MB

     Dynamical RAM for           addusdens:      77.54 MB

     Dynamical RAM for          addusforce:     146.63 MB

     Dynamical RAM for         addusstress:      46.20 MB

     Estimated static dynamical RAM per process >     555.85 MB

     Estimated max dynamical RAM per process >       3.68 GB

     Estimated total dynamical RAM >     660.62 GB

     Atomic positions and unit cell read from directory:
     ./GaN.save/
     Atomic positions from file used, from input discarded
 

     Check: negative core charge=   -0.000003

     The initial density is read from file :
     ./GaN.save/charge-density



     %%%%%%%%%%%%%%%%%%%%%%%%%%%%%%%%%%%%%%%%%%%%%%%%%%%%%%%%%%%%%%%%%%%%%%%%
     %                                                                      %
     % You are using vdW-DF, which was implemented by the Thonhauser group. %
     % Please cite the following two papers that made this development      %
     % possible and the two reviews that describe the various versions:     %
     %                                                                      %
     %   T. Thonhauser et al., PRL 115, 136402 (2015).                      %
     %   T. Thonhauser et al., PRB 76, 125112 (2007).                       %
     %   K. Berland et al., Rep. Prog. Phys. 78, 066501 (2015).             %
     %   D.C. Langreth et al., J. Phys.: Condens. Matter 21, 084203 (2009). %
     %                                                                      %
     % If you are calculating stress with vdW-DF, please also cite:         %
     %                                                                      %
     %   R. Sabatini et al., J. Phys.: Condens. Matter 24, 424209 (2012).   %
     %                                                                      %
     %%%%%%%%%%%%%%%%%%%%%%%%%%%%%%%%%%%%%%%%%%%%%%%%%%%%%%%%%%%%%%%%%%%%%%%%

     %%%%%%%%%%%%%%%%%%%%%%%%%%%%%%%%%%%%%%%%%%%%%%%%%%%%%%%%%%%%%%%%%%%%%%%%
     %                                                                      %
     %  vdW-DF NEWS:                                                        %
     %                                                                      %
     %  * vdW-DF3 is now available. DOI: 10.1021/acs.jctc.0c00471           %
     %    use with input_dft = 'vdW-DF3-opt1' or 'vdW-DF3-opt2'             %
     %                                                                      %
     %  * Unscreened and range-separated vdW-DF hybrid functionals          %
     %    DOI: 10.1063/1.4986522 and 10.1088/1361-648X/ac2ad2               %
     %    use with input_dft = 'vdW-DF-cx0' (etc) and 'vdW-DF-ahcx'         %
     %                                                                      %
     %%%%%%%%%%%%%%%%%%%%%%%%%%%%%%%%%%%%%%%%%%%%%%%%%%%%%%%%%%%%%%%%%%%%%%%%


     Carrying out vdW-DF run using the following parameters:
     Nqs    =  20  Npoints =  1024  r_max =  100.000
     q_mesh =  0.00001000  0.04494208  0.09755937  0.15916263
               0.23128650  0.31572767  0.41458969  0.53033537
               0.66584808  0.82450364  1.01025438  1.22772762
               1.48234092  1.78043706  2.12944203  2.53805004
               3.01644009  3.57652955  4.23227104  5.00000000


     -----------------------------------------------
     Non-local corr. energy    =      81.32650831 Ry
     -----------------------------------------------

     Starting wfcs from file
     Checking if some PAW data can be deallocated... 
       PAW data deallocated on  105 nodes for type:  1
       PAW data deallocated on   74 nodes for type:  2

     total cpu time spent up to now is       53.7 secs

     Self-consistent Calculation

     iteration #  1     ecut=    70.00 Ry     beta= 0.70
     Davidson diagonalization with overlap

---- Real-time Memory Report at c_bands before calling an iterative solver
           539 MiB given to the printing process from OS
             0 MiB allocation reported by mallinfo(arena+hblkhd)
       1752516 MiB available memory on the node where the printing process lives
------------------
     ethr =  1.00E-05,  avg # of iterations =  1.0

     Threshold (ethr) on eigenvalues was too large:
     Diagonalizing with lowered threshold

     Davidson diagonalization with overlap

---- Real-time Memory Report at c_bands before calling an iterative solver
          2369 MiB given to the printing process from OS
             0 MiB allocation reported by mallinfo(arena+hblkhd)
       1730149 MiB available memory on the node where the printing process lives
------------------
     ethr =  1.01E-13,  avg # of iterations = 18.2


     -----------------------------------------------
     Non-local corr. energy    =      81.32650775 Ry
     -----------------------------------------------


     total cpu time spent up to now is     3235.0 secs

     End of self-consistent calculation

          k = 0.0000 0.0000 0.0000 (241213 PWs)   bands (ev):

    -9.5822  -6.8810  -6.7015  -6.6796  -6.6736  -6.6724  -6.6563  -6.6494
    -6.6493  -6.6453  -6.5865  -6.5709  -6.5692  -6.5422  -6.5243  -6.5227
    -6.5223  -6.5197  -6.5191  -6.5189  -6.5126  -6.5125  -6.4916  -6.4915
    -6.4843  -6.4759  -6.4609  -6.4609  -6.4603  -6.4591  -6.4575  -6.4570
    -6.4513  -6.4468  -6.4449  -6.4445  -6.4441  -6.4439  -6.4335  -6.4220
    -6.4169  -6.4166  -6.4163  -6.4156  -6.4092  -6.4091  -6.4087  -6.4071
    -6.4069  -6.4047  -6.4043  -6.4042  -6.4024  -6.4022  -6.4002  -6.4001
    -6.3998  -6.3985  -6.3981  -6.3968  -6.3965  -6.3961  -6.3960  -6.3945
    -6.3942  -6.3940  -6.3938  -6.3929  -6.3928  -6.3898  -6.3888  -6.3883
    -6.3882  -6.3857  -6.3853  -6.3852  -6.3845  -6.3825  -6.3824  -6.3814
    -6.3811  -6.3807  -6.3804  -6.3790  -6.3782  -6.3778  -6.3777  -6.3758
    -6.3755  -6.3749  -6.3737  -6.3717  -6.3695  -6.3693  -6.3674  -6.3673
    -6.3670  -6.3647  -6.3642  -6.3639  -6.3627  -6.3625  -6.3620  -6.3599
    -6.3595  -6.3581  -6.3579  -6.3578  -6.3573  -6.3572  -6.3564  -6.3561
    -6.3559  -6.3543  -6.3543  -6.3539  -6.3532  -6.3511  -6.3506  -6.3491
    -6.3484  -6.3479  -6.3468  -6.3468  -6.3459  -6.3428  -6.3428  -6.3424
    -6.3418  -6.3376  -6.3373  -6.3366  -6.3326  -6.3322  -6.3289  -6.3286
    -6.3245  -6.3186  -6.3177  -6.3115  -6.3094  -6.3032  -6.3023  -6.2961
    -6.2940  -6.2383  -6.1664  -6.1622  -6.1604  -5.7606  -5.5251  -5.4486
    -5.4481  -5.4391  -5.4310  -5.4304  -5.4261  -5.4105  -5.4100  -5.3878
    -5.3877  -5.3870  -5.3861  -5.3861  -5.3841  -5.3689  -5.3643  -5.3593
    -5.3591  -5.3488  -5.3487  -5.3428  -5.3428  -5.3380  -5.3323  -5.3265
    -5.3260  -5.3216  -5.3213  -5.3198  -5.3128  -5.3114  -5.3114  -5.3107
    -5.3055  -5.3054  -5.2986  -5.2982  -5.2982  -5.2946  -5.2945  -5.2915
    -5.2914  -5.2901  -5.2890  -5.2889  -5.2877  -5.2869  -5.2868  -5.2859
    -5.2854  -5.2853  -5.2801  -5.2795  -5.2781  -5.2780  -5.2766  -5.2766
    -5.2761  -5.2736  -5.2735  -5.2722  -5.2717  -5.2717  -5.2704  -5.2704
    -5.2703  -5.2690  -5.2685  -5.2684  -5.2674  -5.2674  -5.2659  -5.2653
    -5.2644  -5.2641  -5.2641  -5.2635  -5.2623  -5.2623  -5.2608  -5.2607
    -5.2601  -5.2601  -5.2599  -5.2599  -5.2591  -5.2590  -5.2575  -5.2565
    -5.2565  -5.2554  -5.2554  -5.2535  -5.2535  -5.2530  -5.2504  -5.2503
    -5.2498  -5.2498  -5.2495  -5.2478  -5.2477  -5.2477  -5.2467  -5.2450
    -5.2445  -5.2438  -5.2437  -5.2432  -5.2420  -5.2420  -5.2414  -5.2410
    -5.2409  -5.2404  -5.2391  -5.2390  -5.2389  -5.2388  -5.2388  -5.2380
    -5.2376  -5.2376  -5.2366  -5.2364  -5.2364  -5.2352  -5.2352  -5.2349
    -5.2343  -5.2342  -5.2338  -5.2326  -5.2324  -5.2318  -5.2314  -5.2314
    -5.2309  -5.2300  -5.2299  -5.2287  -5.2285  -5.2284  -5.2267  -5.2266
    -5.2266  -5.2260  -5.2251  -5.2251  -5.2242  -5.2241  -5.2233  -5.2230
    -5.2224  -5.2224  -5.2217  -5.2215  -5.2215  -5.2200  -5.2199  -5.2194
    -5.2185  -5.2183  -5.2182  -5.2173  -5.2172  -5.2156  -5.2155  -5.2151
    -5.2148  -5.2148  -5.2131  -5.2123  -5.2122  -5.2121  -5.2118  -5.2117
    -5.2113  -5.2100  -5.2094  -5.2094  -5.2080  -5.2077  -5.2077  -5.2074
    -5.2066  -5.2065  -5.2043  -5.2042  -5.2036  -5.2035  -5.2035  -5.2016
    -5.2016  -5.2015  -5.2014  -5.2013  -5.2012  -5.1987  -5.1987  -5.1977
    -5.1977  -5.1975  -5.1966  -5.1959  -5.1959  -5.1941  -5.1941  -5.1926
    -5.1924  -5.1924  -5.1912  -5.1905  -5.1904  -5.1901  -5.1886  -5.1884
    -5.1883  -5.1866  -5.1864  -5.1840  -5.1840  -5.1839  -5.1830  -5.1822
    -5.1821  -5.1817  -5.1810  -5.1809  -5.1774  -5.1768  -5.1768  -5.1750
    -5.1747  -5.1747  -5.1746  -5.1726  -5.1726  -5.1714  -5.1714  -5.1709
    -5.1706  -5.1677  -5.1676  -5.1672  -5.1670  -5.1652  -5.1651  -5.1648
    -5.1645  -5.1645  -5.1606  -5.1606  -5.1601  -5.1598  -5.1589  -5.1589
    -5.1571  -5.1569  -5.1568  -5.1556  -5.1556  -5.1535  -5.1526  -5.1526
    -5.1525  -5.1513  -5.1511  -5.1502  -5.1495  -5.1495  -5.1492  -5.1486
    -5.1486  -5.1473  -5.1469  -5.1464  -5.1464  -5.1459  -5.1457  -5.1447
    -5.1441  -5.1434  -5.1434  -5.1427  -5.1420  -5.1419  -5.1416  -5.1410
    -5.1406  -5.1406  -5.1395  -5.1390  -5.1389  -5.1378  -5.1378  -5.1374
    -5.1374  -5.1365  -5.1365  -5.1361  -5.1354  -5.1351  -5.1346  -5.1328
    -5.1328  -5.1318  -5.1318  -5.1313  -5.1313  -5.1313  -5.1308  -5.1300
    -5.1297  -5.1297  -5.1277  -5.1276  -5.1267  -5.1262  -5.1259  -5.1258
    -5.1255  -5.1254  -5.1243  -5.1243  -5.1239  -5.1239  -5.1232  -5.1228
    -5.1228  -5.1215  -5.1214  -5.1204  -5.1203  -5.1203  -5.1198  -5.1195
    -5.1195  -5.1195  -5.1186  -5.1182  -5.1182  -5.1182  -5.1174  -5.1174
    -5.1162  -5.1161  -5.1152  -5.1152  -5.1146  -5.1145  -5.1132  -5.1127
    -5.1124  -5.1124  -5.1122  -5.1122  -5.1117  -5.1110  -5.1109  -5.1108
    -5.1095  -5.1095  -5.1092  -5.1085  -5.1081  -5.1075  -5.1074  -5.1063
    -5.1063  -5.1056  -5.1056  -5.1055  -5.1041  -5.1041  -5.1041  -5.1039
    -5.1034  -5.1028  -5.1028  -5.1022  -5.1022  -5.1010  -5.1009  -5.1009
    -5.1006  -5.1001  -5.0999  -5.0999  -5.0986  -5.0985  -5.0978  -5.0967
    -5.0967  -5.0963  -5.0960  -5.0960  -5.0943  -5.0943  -5.0939  -5.0939
    -5.0928  -5.0926  -5.0926  -5.0910  -5.0904  -5.0904  -5.0903  -5.0903
    -5.0896  -5.0896  -5.0895  -5.0883  -5.0882  -5.0882  -5.0858  -5.0858
    -5.0849  -5.0839  -5.0830  -5.0829  -5.0820  -5.0820  -5.0811  -5.0810
    -5.0805  -5.0805  -5.0790  -5.0781  -5.0781  -5.0774  -5.0772  -5.0772
    -5.0765  -5.0765  -5.0753  -5.0753  -5.0747  -5.0747  -5.0746  -5.0743
    -5.0734  -5.0734  -5.0725  -5.0720  -5.0720  -5.0708  -5.0708  -5.0705
    -5.0696  -5.0696  -5.0696  -5.0682  -5.0681  -5.0679  -5.0677  -5.0665
    -5.0665  -5.0664  -5.0652  -5.0652  -5.0645  -5.0644  -5.0644  -5.0636
    -5.0627  -5.0627  -5.0623  -5.0622  -5.0615  -5.0612  -5.0612  -5.0592
    -5.0590  -5.0590  -5.0584  -5.0579  -5.0579  -5.0572  -5.0572  -5.0569
    -5.0564  -5.0564  -5.0556  -5.0555  -5.0555  -5.0552  -5.0544  -5.0543
    -5.0540  -5.0539  -5.0522  -5.0521  -5.0513  -5.0512  -5.0504  -5.0487
    -5.0487  -5.0485  -5.0464  -5.0460  -5.0459  -5.0440  -5.0440  -5.0439
    -5.0419  -5.0417  -5.0417  -5.0407  -5.0404  -5.0404  -5.0396  -5.0395
    -5.0394  -5.0389  -5.0388  -5.0388  -5.0374  -5.0371  -5.0360  -5.0360
    -5.0351  -5.0350  -5.0336  -5.0333  -5.0329  -5.0328  -5.0313  -5.0312
    -5.0300  -5.0299  -5.0293  -5.0280  -5.0275  -5.0275  -5.0274  -5.0264
    -5.0262  -5.0259  -5.0258  -5.0250  -5.0243  -5.0224  -5.0224  -5.0216
    -5.0195  -5.0194  -5.0182  -5.0182  -5.0160  -5.0156  -5.0156  -5.0154
    -5.0134  -5.0134  -5.0105  -5.0104  -5.0082  -5.0077  -5.0076  -5.0068
    -5.0025  -5.0024  -4.9976  -4.9949  -4.9949  -4.9864  -4.9863  -4.9860
    -4.9823  -4.9770  -4.9766  -4.9765  -4.9714  -4.9656  -4.9656  -4.9634
    -4.9560  -4.9559  -4.9470  -4.9470  -4.9349  -4.9348  -4.9208  -4.9152
    -4.9150  -4.9078  -4.9072  -4.8985  -4.8983  -4.8636  -4.8472  -4.8469
    -4.8204  -4.8198  -4.8197  -4.8165  -4.8165  -4.8104  -4.8043  -4.8039
    -4.8038  -4.7743  -4.7741  -4.7710  -4.7392  -4.7392  -4.7261  -4.7259
    -4.6520  -4.6412  -4.6410  -4.6153  -4.5943  -4.5819  -4.5817  -4.5189
    -4.5160  -4.3599  -4.3596  -4.3480  -4.3257  -4.2995  -4.2792  -4.2783
    -4.2777  -4.1257  -4.1254  -4.1133  -4.1033  -4.1031  -4.1011  -4.1009
    -4.0967  -4.0947  -4.0692  -4.0689  -4.0636  -4.0547  -4.0412  -4.0411
    -3.9923  -3.9922  -3.9917  -3.9841  -3.9830  -3.9828  -3.9791  -3.9763
    -3.9761  -3.9600  -3.9599  -3.9252  -3.9249  -3.8984  -3.8683  -3.8588
    -3.8465  -3.8464  -3.8358  -3.8333  -3.8332  -3.8169  -3.8168  -3.7843
    -3.6843  -3.6833  -3.5729  -3.5256  -3.4341  -3.4337  -3.4335  -3.4263
    -3.4263  -3.4209  -3.4207  -3.4154  -3.4134  -3.4134  -3.4109  -3.4097
    -3.4094  -3.4091  -3.3886  -3.3637  -3.3636  -3.3497  -3.3262  -3.3261
    -3.3159  -3.3146  -3.3145  -3.3121  -3.3120  -3.3115  -3.3012  -3.3011
    -3.2996  -3.2996  -3.2967  -3.2944  -3.2942  -3.2858  -3.2836  -3.2836
    -3.2799  -3.2788  -3.2788  -3.2776  -3.2775  -3.2515  -3.2515  -3.2444
    -3.1707  -3.1588  -3.1586  -3.1057  -3.1056  -3.0992  -3.0937  -3.0882
    -3.0881  -3.0660  -3.0660  -3.0656  -2.9842  -2.9733  -2.9732  -2.9696
    -2.9632  -2.9628  -2.9625  -2.9506  -2.9475  -2.9472  -2.9450  -2.9407
    -2.9405  -2.9308  -2.9305  -2.9240  -2.8887  -2.8885  -2.3271  -1.2714
     2.0471   2.2132   2.2156   2.4337   2.5298   2.5305   2.5340   2.5423
     2.5426   2.5802   2.5803   2.5898   2.5932   2.5933   2.5974   2.5978
     2.5981   2.6007   2.6011   2.6023   2.6035   2.6042   2.6044   2.6077
     2.6105   2.6105   2.6146   2.6147   2.6162   2.6246   2.7323   2.7383
     2.7394   2.7629   2.7631   2.7639   2.8068   2.8075   2.8255   2.9239
     2.9257   2.9260   2.9389   2.9393   2.9474   2.9640   2.9642   2.9700
     2.9701   2.9721   2.9838   3.0059   3.0059   3.0200   3.0228   3.0436
     3.0438   3.1016   3.1017   3.1168   3.1170   3.1185   3.1427   3.2067
     3.2068   3.2176   3.2177   3.2180   3.2215   3.2217   3.2297   3.2327
     3.2544   3.2545   3.2564   3.2617   3.2622   3.2629   3.2700   3.2707
     3.2839   3.2916   3.3112   3.3115   3.4884   3.5058   3.5073   3.5795
     3.5923   3.6426   3.6711   3.6713   3.6771   3.6776   3.6779   3.6822
     3.6825   3.6837   3.6923   3.6924   3.7070   3.7070   3.7103   3.7590
     3.7722   3.7722   3.8892   3.9063   3.9072   3.9274   3.9399   3.9401
     3.9585   3.9625   3.9628   3.9635   3.9741   3.9745   3.9748   3.9967
     3.9969   4.0630   4.1840   4.1844   4.4821   4.5068   4.5105   4.5105
     4.5222   4.5311   4.5319   4.5572   4.5658   4.5660   4.5723   4.5861
     4.5868   4.5933   4.6142   4.6148   4.6413   4.6652   4.6654   4.7014
     4.7014   4.7076   4.7980   4.7981   4.9644   4.9644   4.9656   4.9781
     4.9782   4.9792   4.9848   5.0012   5.0013   5.0073   5.1589   5.1600
     5.2380   5.3301   5.4463   5.4464   5.4489   5.4533   5.4535   5.4565
     5.4567   5.4586   5.4605   5.4606   5.4652   5.4752   5.4753   5.5344
     5.5346   5.5433   5.5928   5.6565   5.6661   5.6665   5.6924   5.6930
     5.7573   5.7921   5.8498   5.8501   5.8623   5.8658   5.8658   5.8839
     5.8841   5.8938   5.8960   5.9003   5.9006   5.9097   5.9099   5.9253
     5.9254   5.9315   5.9360   5.9656   5.9694   5.9696   5.9724   5.9728
     5.9766   5.9774   5.9780   5.9781   5.9812   5.9872   5.9929   5.9929
     5.9936   5.9954   6.0008   6.0014   6.0099   6.0123   6.0156   6.0157
     6.0177   6.0232   6.0235   6.0237   6.0260   6.0261   6.0432   6.0432
     6.0618   6.0624   6.0794   6.0797   6.1543   6.1550   6.2204   6.2697
     6.2907   6.2938   6.2945   6.3132   6.3185   6.3196   6.3198   6.3291
     6.3331   6.3332   6.3356   6.3357   6.3561   6.3564   6.4074   6.4075
     6.4304   6.4432   6.4687   6.4688   6.4757   6.5062   6.5063   6.5144
     6.5211   6.5337   6.5338   6.5449   6.5597   6.5599   6.6131   6.6203
     6.6267   6.6268   6.6302   6.6306   6.6335   6.6338   6.6350   6.6386
     6.6388   6.6414   6.6428   6.6433   6.6445   6.6496   6.6503   6.6619
     6.6728   6.6876   6.6878   6.7033   6.7161   6.7161   6.7347   6.7373
     6.7373   6.7556   6.8186   6.8188   6.8371   6.8503   6.8509   6.8510
     6.8545   6.8547   6.8548   6.8884   6.8886   6.8920   7.0181   7.0184
     7.0763   7.0766   7.1005   7.1047   7.1047   7.1098   7.1154   7.1156
     7.1423   7.1772   7.2249   7.2375   7.2378   7.2710   7.2710   7.2723
     7.2745   7.2747   7.2867   7.2867   7.3027   7.3037   7.3157   7.3162
     7.3506   7.3507   7.3604   7.3606   7.3691   7.3719   7.3775   7.3836
     7.3862   7.3863   7.3874   7.3874   7.3881   7.3953   7.3953   7.4009
     7.4044   7.4046   7.4099   7.4100   7.4104   7.4202   7.4204   7.4255
     7.4269   7.4280   7.4285   7.4309   7.4314   7.4344   7.4399   7.4401
     7.4406   7.4410   7.4454   7.4509   7.4516   7.4973   7.4975   7.5116
     7.5357   7.5359   7.5483   7.5485   7.5554   7.5748   7.6151   7.6152
     7.6185   7.6186   7.6200   7.6202   7.6262   7.6294   7.6302   7.6583
     7.6691   7.6692   7.6729   7.6935   7.6937   7.6979   7.7019   7.7021
     7.7026   7.7056   7.7058   7.7306   7.7308   7.8147   7.8151   7.8701
     7.8705   7.8763   7.8776   7.8782   7.9061   7.9601   7.9603   8.0131
     8.0132   8.0414   8.0416   8.0490   8.0533   8.0536   8.0617   8.0657
     8.0658   8.0706   8.0991   8.1430   8.1488   8.1492   8.3043   8.3046
     8.3051   8.3167   8.3168   8.4067   8.4071   8.4122   8.4202   8.4205
     8.4357   8.4789   8.4791   8.5322   8.5323   8.6060   8.7587   8.7588
     8.9974   9.9144  10.2587  11.4994  11.9870  12.0267  12.0274  12.1264
    12.1619  12.1621  12.1782  12.3211  12.5803  12.5826  12.6794  12.8029
    12.8162  12.8585  12.8634  12.8637  12.8777  12.8783  12.8897  12.8978
    12.8978  12.9114  12.9117  12.9178  12.9208  12.9210  12.9241  12.9471
    12.9472  12.9523  12.9550  12.9551  12.9556  13.1318  13.2265  13.3375
    13.3393  13.6329  13.6331  13.6482  13.6557  13.6562  13.6713  13.7363
    13.7366  13.7457  13.7462  13.7560  13.8241  13.8297  13.8302  13.8353
    13.8517  13.8526  13.8614  13.8618  13.8641  13.8707  13.8720  13.8726
    13.8820  13.8823  13.8876  13.8922  13.9208  13.9252  13.9258  13.9565
    13.9569  13.9638  13.9850  13.9855  13.9913  13.9993  14.0068  14.0076
    14.0189  14.0193  14.0287  14.0382  14.0382  14.0405  14.0656  14.0660
    14.0740  14.0745  14.0845  14.0988  14.1011  14.1017  14.1349  14.1464
    14.1466  14.1563  14.1606  14.1606  14.1715  14.1716  14.1744  14.1886
    14.1980  14.1984  14.2086  14.2086  14.2620  14.4222  14.4224  14.4565
    14.4617  14.4759  14.5185  14.5198  14.6233  14.7515  14.7532  14.7672
    14.7969  14.7976  14.8498  14.8503  14.8515  14.8889  14.8934  14.8940
    14.9217  14.9303  14.9382  14.9391  15.0126  15.0129  15.0199  15.0307
    15.0308  15.0779  15.0820  15.0821  15.0929  15.0940  15.1209  15.1211
    15.1243  15.1324  15.1407  15.1412  15.1735  15.2086  15.2152  15.2152
    15.3271  15.3273  15.3398  15.3775  15.3864  15.3873  15.4495  15.4555
    15.4984  15.5543  15.6237  15.6240  15.6809  15.6812  15.7151  15.7196
    15.7604  15.7610  15.7617  15.8045  15.8048  15.8850  15.8854  15.9017
    15.9020  15.9172  15.9316  15.9419  15.9444  15.9452  15.9681  15.9684
    15.9859  15.9859  15.9864  15.9897  16.0394  16.0520  16.0523  16.0746
    16.0747  16.0907  16.0931  16.0937  16.1066  16.1075  16.1113  16.1114
    16.1156  16.1157  16.1159  16.1237  16.1240  16.1270  16.1519  16.1523
    16.1545  16.1557  16.1644  16.1644  16.1805  16.1806  16.1832  16.1978
    16.1981  16.2182  16.2183  16.2268  16.2268  16.2502  16.2767  16.2768
    16.2858  16.2875  16.2876  16.2893  16.3103  16.3106  16.3325  16.3325
    16.3359  16.3401  16.3401  16.3441  16.3545  16.3548  16.3551  16.3564
    16.3570  16.3570  16.3593  16.3595  16.3702  16.3750  16.3752  16.3895
    16.3897  16.4054  16.4056  16.4129  16.4267  16.4329  16.4360  16.4429
    16.4433  16.4473  16.4642  16.4651  16.4874  16.5142  16.5147  16.5164
    16.5424  16.5430  16.5871  16.5885  16.5994  16.5994  16.6202  16.6357

     occupation numbers 
     1.0000   1.0000   1.0000   1.0000   1.0000   1.0000   1.0000   1.0000
     1.0000   1.0000   1.0000   1.0000   1.0000   1.0000   1.0000   1.0000
     1.0000   1.0000   1.0000   1.0000   1.0000   1.0000   1.0000   1.0000
     1.0000   1.0000   1.0000   1.0000   1.0000   1.0000   1.0000   1.0000
     1.0000   1.0000   1.0000   1.0000   1.0000   1.0000   1.0000   1.0000
     1.0000   1.0000   1.0000   1.0000   1.0000   1.0000   1.0000   1.0000
     1.0000   1.0000   1.0000   1.0000   1.0000   1.0000   1.0000   1.0000
     1.0000   1.0000   1.0000   1.0000   1.0000   1.0000   1.0000   1.0000
     1.0000   1.0000   1.0000   1.0000   1.0000   1.0000   1.0000   1.0000
     1.0000   1.0000   1.0000   1.0000   1.0000   1.0000   1.0000   1.0000
     1.0000   1.0000   1.0000   1.0000   1.0000   1.0000   1.0000   1.0000
     1.0000   1.0000   1.0000   1.0000   1.0000   1.0000   1.0000   1.0000
     1.0000   1.0000   1.0000   1.0000   1.0000   1.0000   1.0000   1.0000
     1.0000   1.0000   1.0000   1.0000   1.0000   1.0000   1.0000   1.0000
     1.0000   1.0000   1.0000   1.0000   1.0000   1.0000   1.0000   1.0000
     1.0000   1.0000   1.0000   1.0000   1.0000   1.0000   1.0000   1.0000
     1.0000   1.0000   1.0000   1.0000   1.0000   1.0000   1.0000   1.0000
     1.0000   1.0000   1.0000   1.0000   1.0000   1.0000   1.0000   1.0000
     1.0000   1.0000   1.0000   1.0000   1.0000   1.0000   1.0000   1.0000
     1.0000   1.0000   1.0000   1.0000   1.0000   1.0000   1.0000   1.0000
     1.0000   1.0000   1.0000   1.0000   1.0000   1.0000   1.0000   1.0000
     1.0000   1.0000   1.0000   1.0000   1.0000   1.0000   1.0000   1.0000
     1.0000   1.0000   1.0000   1.0000   1.0000   1.0000   1.0000   1.0000
     1.0000   1.0000   1.0000   1.0000   1.0000   1.0000   1.0000   1.0000
     1.0000   1.0000   1.0000   1.0000   1.0000   1.0000   1.0000   1.0000
     1.0000   1.0000   1.0000   1.0000   1.0000   1.0000   1.0000   1.0000
     1.0000   1.0000   1.0000   1.0000   1.0000   1.0000   1.0000   1.0000
     1.0000   1.0000   1.0000   1.0000   1.0000   1.0000   1.0000   1.0000
     1.0000   1.0000   1.0000   1.0000   1.0000   1.0000   1.0000   1.0000
     1.0000   1.0000   1.0000   1.0000   1.0000   1.0000   1.0000   1.0000
     1.0000   1.0000   1.0000   1.0000   1.0000   1.0000   1.0000   1.0000
     1.0000   1.0000   1.0000   1.0000   1.0000   1.0000   1.0000   1.0000
     1.0000   1.0000   1.0000   1.0000   1.0000   1.0000   1.0000   1.0000
     1.0000   1.0000   1.0000   1.0000   1.0000   1.0000   1.0000   1.0000
     1.0000   1.0000   1.0000   1.0000   1.0000   1.0000   1.0000   1.0000
     1.0000   1.0000   1.0000   1.0000   1.0000   1.0000   1.0000   1.0000
     1.0000   1.0000   1.0000   1.0000   1.0000   1.0000   1.0000   1.0000
     1.0000   1.0000   1.0000   1.0000   1.0000   1.0000   1.0000   1.0000
     1.0000   1.0000   1.0000   1.0000   1.0000   1.0000   1.0000   1.0000
     1.0000   1.0000   1.0000   1.0000   1.0000   1.0000   1.0000   1.0000
     1.0000   1.0000   1.0000   1.0000   1.0000   1.0000   1.0000   1.0000
     1.0000   1.0000   1.0000   1.0000   1.0000   1.0000   1.0000   1.0000
     1.0000   1.0000   1.0000   1.0000   1.0000   1.0000   1.0000   1.0000
     1.0000   1.0000   1.0000   1.0000   1.0000   1.0000   1.0000   1.0000
     1.0000   1.0000   1.0000   1.0000   1.0000   1.0000   1.0000   1.0000
     1.0000   1.0000   1.0000   1.0000   1.0000   1.0000   1.0000   1.0000
     1.0000   1.0000   1.0000   1.0000   1.0000   1.0000   1.0000   1.0000
     1.0000   1.0000   1.0000   1.0000   1.0000   1.0000   1.0000   1.0000
     1.0000   1.0000   1.0000   1.0000   1.0000   1.0000   1.0000   1.0000
     1.0000   1.0000   1.0000   1.0000   1.0000   1.0000   1.0000   1.0000
     1.0000   1.0000   1.0000   1.0000   1.0000   1.0000   1.0000   1.0000
     1.0000   1.0000   1.0000   1.0000   1.0000   1.0000   1.0000   1.0000
     1.0000   1.0000   1.0000   1.0000   1.0000   1.0000   1.0000   1.0000
     1.0000   1.0000   1.0000   1.0000   1.0000   1.0000   1.0000   1.0000
     1.0000   1.0000   1.0000   1.0000   1.0000   1.0000   1.0000   1.0000
     1.0000   1.0000   1.0000   1.0000   1.0000   1.0000   1.0000   1.0000
     1.0000   1.0000   1.0000   1.0000   1.0000   1.0000   1.0000   1.0000
     1.0000   1.0000   1.0000   1.0000   1.0000   1.0000   1.0000   1.0000
     1.0000   1.0000   1.0000   1.0000   1.0000   1.0000   1.0000   1.0000
     1.0000   1.0000   1.0000   1.0000   1.0000   1.0000   1.0000   1.0000
     1.0000   1.0000   1.0000   1.0000   1.0000   1.0000   1.0000   1.0000
     1.0000   1.0000   1.0000   1.0000   1.0000   1.0000   1.0000   1.0000
     1.0000   1.0000   1.0000   1.0000   1.0000   1.0000   1.0000   1.0000
     1.0000   1.0000   1.0000   1.0000   1.0000   1.0000   1.0000   1.0000
     1.0000   1.0000   1.0000   1.0000   1.0000   1.0000   1.0000   1.0000
     1.0000   1.0000   1.0000   1.0000   1.0000   1.0000   1.0000   1.0000
     1.0000   1.0000   1.0000   1.0000   1.0000   1.0000   1.0000   1.0000
     1.0000   1.0000   1.0000   1.0000   1.0000   1.0000   1.0000   1.0000
[...]
              0.256077540986687E+03
              0.766543076359444E+01
              0.798163319860806E+03
              0.110851936905981E+03
             -0.116374269538842E+03
              0.454763477403931E+02
             -0.106966402100579E+03
              0.626876971145016E+03
             -0.375910076540151E+01
              0.119835488037596E+03
              0.435260680845990E+03
              0.116789776678504E+03
             -0.330591257368047E+03
             -0.536069548784705E+03
              0.301122355326079E+02
             -0.609910746909731E+03
              0.204500064725745E+03
             -0.105812383882413E+03
             -0.234902453414637E+03
              0.237985853392634E+03
              0.824143932646875E+02
              0.228984793325684E+03
              0.991471194647693E+01
              0.339966775122704E+03
             -0.577315892385961E+03
             -0.410719190267914E+02
             -0.506807359263979E+03
              0.113088864405005E+03
              0.277923379253572E+03
             -0.281848717022258E+02
             -0.185118578759622E+03
              0.415698164296585E+03
             -0.192395074444663E+03
              0.142229085035772E+03
             -0.122210220638623E+03
              0.329042133675564E+03
              0.346196273415538E+03
             -0.149867625019550E+03
              0.296951108413305E+03
              0.111487874267671E+03
             -0.299675538935308E+03
             -0.195702643147832E+03
              0.481424247919003E+03
              0.236168704365874E+03
             -0.203510789097181E+02
             -0.510713020646144E+02
              0.741454840109358E+03
              0.437181514245970E+03
              0.155489775006928E+03
             -0.467026726691800E+03
              0.748148982189639E+03
             -0.349386631511277E+03
             -0.431465607985540E+03
             -0.650069923318732E+03
              0.289880559322153E+03
             -0.584303900190205E+03
              0.264234256477751E+03
              0.427119128940096E+03
              0.304107854652277E+03
              0.774882246183598E+02
              0.201439379878949E+03
             -0.481600585751934E+03
             -0.172491739509671E+03
             -0.130986445642390E+03
              0.247159825619783E+03
              0.489653588691090E+03
              0.506164056472338E+03
              0.390310825993168E+03
             -0.894817991741456E+02
              0.124434475044794E+03
              0.685417296456581E+01
             -0.160510432343254E+03
              0.206301387011146E+03
              0.224594855336632E+03
             -0.284542098225168E+03
             -0.338370420915763E+03
             -0.133485327891051E+03
              0.351563516945415E+03
              0.168464413136790E+03
             -0.241211368869725E+03
             -0.369423990124377E+03
             -0.537824642961756E+03
              0.110680474148407E+02
              0.144303196564463E+03
             -0.203189418145054E+03
              0.752299910792966E+03
              0.364960038978497E+02
             -0.852578921597002E+03
              0.188735452197057E+03
              0.373853894297624E+03
             -0.171304229632541E+03
              0.207348672524097E+02
             -0.237412283932706E+03
              0.348646164805258E+03
              0.161252742053509E+03
             -0.446182744522484E+03
              0.531388961936156E+03
              0.149269640837031E+02
             -0.228076734293948E+03
             -0.270619343513211E+03
              0.105797382615724E+04
              0.471363730119965E+03
             -0.131389555146440E+03
              0.259605703730440E+03
             -0.462569413277723E+03
             -0.826864782040984E+02
             -0.469195158576610E+03
              0.187985472134124E+03
              0.319404981665462E+03
              0.379327124099304E+03
             -0.151129728344429E+03
              0.446032683489493E+02
              0.433125884318038E+03
              0.160403801402535E+03
              0.271490198884336E+03
              0.115574843110481E+03
             -0.780041693499479E+02
              0.116123284472403E+02
             -0.714853191848301E+02
              0.110272984360286E+03
              0.243709359388640E+02
             -0.394571514007980E+03
              0.600763087672391E+03
              0.240284577136061E+03
             -0.431608539607831E+03
             -0.320206319689015E+03
             -0.464093776565974E+03
             -0.219772667751984E+03
             -0.161653513551037E+03
             -0.358971487842396E+03
             -0.351406958205344E+03
              0.443112429472271E+03
              0.349402267036285E+03
             -0.436120875078714E+02
              0.509454450210258E+03
              0.964917290063804E+02
             -0.822354490276488E+03
              0.463828998230113E+03
              0.107160903305640E+03
              0.357777982170429E+03
              0.799107135999548E+02
              0.598484852008187E+02
              0.708904254054460E+02
              0.186324104698893E+03
             -0.340965357206083E+03
             -0.170256549916287E+03
             -0.313089671028129E+03
             -0.259940286571232E+03
              0.118491854373123E+03
             -0.297730534020070E+03
              0.139191547664068E+03
              0.184192523003069E+03
             -0.195999595346109E+03
             -0.103353227331293E+03
             -0.911352665958748E+01
              0.509073963679850E+03
              0.808419282288696E+02
              0.504752356413694E+03
              0.179556645366458E+03
             -0.652012156017815E+03
             -0.221994675489316E+03
              0.222819562319932E+03
              0.501416076428652E+03
              0.965479921016844E+02
              0.195949532692506E+03
              0.472884869447376E+03
             -0.275189674004292E+03
             -0.446699197833451E+03
              0.580265664241157E+03
              0.954152430746763E+01
             -0.615338068041975E+03
              0.206279164656145E+03
              0.407276997342872E+03
             -0.940892690494211E+02
             -0.385068327338181E+03
              0.684009397431578E+02
              0.252129545678454E+02
             -0.210737916319756E+03
              0.765464404421427E+02
             -0.657608058666648E+02
              0.906654788907689E+03
              0.249975321113026E+03
             -0.416078567164036E+03
              0.125867267884605E+03
              0.582222369144421E+03
             -0.373054000683528E+03
             -0.995689964024912E+02
             -0.330173123637971E+03
              0.263543086053218E+03
              0.112064214594365E+03
              0.174981494328233E+03
              0.134289963865676E+02
              0.653758790747855E+03
             -0.365694730320156E+03
             -0.277620592922864E+03
             -0.306308115877845E+03
              0.263378945604826E+03
              0.628908182768963E+03
             -0.794872958418048E+02
              0.259824592930319E+03
             -0.351598058287326E+03
              0.352594706709378E+02
             -0.104151811783726E+03
             -0.350846007683745E+02
             -0.149732461274995E+03
             -0.137840355776025E+03
             -0.101659574604472E+03
              0.108732487105905E+03
              0.183192043275192E+03
             -0.422012591373088E+03
              0.306665061023618E+03
             -0.495688167996684E+03
              0.370154173176792E+03
             -0.429846160361244E+03
              0.650335887606428E+03
              0.346675586112007E+03
              0.386817014121070E+03
              0.885576660680167E+02
              0.993449327467124E+02
             -0.872624462215281E+03
              0.149716237513051E+03
              0.396868303764477E+02
              0.684872330753915E+02
             -0.130133650884593E+03
              0.679007602802641E+03
             -0.206517662942215E+03
             -0.268167328882536E+03
             -0.673308318573954E+03
             -0.224100739443619E+03
             -0.305768422694816E+03
             -0.271138254638906E+03
             -0.742804580076927E+02
             -0.141930651581815E+03
             -0.188065159526226E+03
             -0.282833158175472E+03
              0.210823833747513E+03
              0.696656443733021E+03
              0.594049818497595E+03
             -0.118239775017689E+03
             -0.729001799988694E+03
             -0.306526063219902E+03
              0.140605027970639E+03
              0.155634969977611E+03
              0.225324016086905E+03
              0.175426935858745E+03
              0.571358903600294E+02
              0.674527342918188E+03
             -0.167351876167217E+03
              0.342308955551019E+03
              0.157083291641329E+03
             -0.220903871838579E+03
             -0.138944168769221E+03
              0.311859330825834E+03
             -0.180565845677421E+03
             -0.128232241261138E+03
             -0.831657364755713E+02
              0.389715965627331E+03
             -0.522236372496586E+03
             -0.575917142529975E+02
             -0.427605332128970E+03
             -0.924592549460961E+03
              0.344403289811271E+01
             -0.114448334991028E+03
              0.317576811446778E+03
              0.377481707288083E+03
              0.517855425435747E+03
             -0.340616901191084E+03
              0.554081007060281E+03
              0.144862415017605E+03
             -0.165196725931208E+03
              0.100071320394738E+03
             -0.176009370669751E+03
             -0.123087536057377E+03
              0.282135468262699E+03
             -0.275091913118587E+03
              0.669228217611961E+03
             -0.171093415191283E+03
             -0.357922631152284E+03
              0.681110074873174E+03
             -0.382685588441442E+03
             -0.566751815689777E+02
              0.695453829460384E+02
              0.211251400695308E+03
             -0.311996535551079E+03
             -0.233707794104176E+03
              0.355178391045466E+03
             -0.576076133035705E+03
              0.423048470729184E+03
              0.553537979486467E+02
              0.330481187990908E+03
              0.458124551091793E+03
              0.115313366146021E+03
             -0.602904988354240E+03
             -0.266285411157693E+03
             -0.445750269031637E+03
             -0.279474833232167E+03
             -0.920788940062635E+02
              0.109527138934335E+03
             -0.209063517748353E+03
              0.147184522876223E+02
             -0.678058611582524E+03
              0.167855159406956E+02
             -0.428509066663399E+03
              0.420927552649961E+03
             -0.226251393302945E+03
             -0.445067710451764E+02
              0.302956013915555E+03
              0.325428529090940E+02
              0.301596331218935E+03
             -0.540406917036384E+03
              0.118529608538409E+03
              0.373553867419806E+02
              0.217197306744573E+03
              0.390106122186286E+03
             -0.681770224652591E+02
             -0.427924361588435E+03
             -0.244869581151871E+03
             -0.169188562007438E+03
             -0.823472220140502E+02
              0.403533541380542E+03
              0.248441973623605E+03
             -0.259519225668995E+03
             -0.236747604998281E+03
              0.195583707818903E+03
              0.191451182205665E+03
             -0.530509421004842E+03
              0.148593206628716E+03
              0.389321204163410E+03
             -0.191184980092301E+02
              0.456115095848234E+03
              0.231414023122303E+03
              0.364536953992261E+03
              0.553541556842266E+03
              0.907433304493873E+02
             -0.774175452544637E+03
              0.795071037022557E+02
              0.858672388460816E+03
              0.617762402725066E+03
             -0.414199327067271E+03
              0.412833476275861E+02
              0.537509608877132E+03
              0.488620105128747E+03
              0.232379165004196E+03
             -0.123202187055377E+03
              0.222693021528265E+03
              0.467954479947093E+03
             -0.209139851716683E+03
             -0.149732615747255E+03
              0.292077982392390E+03
             -0.210218047316619E+02
              0.274031712080534E+03
             -0.684765605115801E+02
              0.565260564891568E+03
             -0.215413142153015E+03
              0.128890257487432E+03
             -0.263441595072473E+03
              0.267016559969374E+03
             -0.352954080487393E+02
              0.421858220686640E+03
              0.295005947124241E+02
              0.166547806118448E+03
             -0.279981835183941E+03
             -0.172239686632528E+03
             -0.812855534998037E+02
             -0.699743418858484E+02
              0.443002905214032E+03
              0.183507919702989E+03
              0.568692421131042E+03
              0.472944800466244E+03
              0.105782988136526E+03
              0.408701144202092E+01
              0.555597651849136E+03
              0.292429610884745E+03
              0.791551796554631E+01
              0.493628056920737E+03
             -0.442905733457334E+03
              0.145384246572999E+03
             -0.278456059094931E+03
             -0.111628481535766E+03
              0.710729283840192E+03
             -0.108866904168993E+03
             -0.524702705827940E+01
             -0.936126394527162E+02
              0.590721178178447E+03
             -0.137834400613480E+03
             -0.163917683947097E+02
              0.119261709758245E+04
             -0.385367228860000E+03
             -0.411476135159950E+03
             -0.431860165264151E+03
             -0.253191177691780E+03
              0.252038118973248E+03
             -0.107716823868784E+03
              0.698144918606981E+02
             -0.218076810718439E+02
              0.150914254744623E+03
              0.246035928628579E+03
              0.283414208383815E+03
              0.417209756820571E+03
              0.230311404384344E+03
              0.292845558734945E+03
             -0.473127242447077E+03
             -0.452734792510540E+03
             -0.114645406045919E+03
             -0.443875897281910E+03
              0.710801434609158E+03
              0.609201583134763E+03
              0.291063599046943E+03
              0.788174649888813E+03
             -0.410215498615956E+03
             -0.167239476159902E+03
             -0.232524085853746E+03
              0.651857071279967E+03
 
 BEEF-vdW xc energy contributions
            1 :    -5975.054717340410     
            2 :     5381.621809067307     
            3 :    -4387.301605259283     
            4 :     3283.012758041305     
            5 :    -2324.867301655384     
            6 :     1636.798133393711     
            7 :    -1196.624978093703     
            8 :     899.1393823971457     
            9 :    -645.3875824844090     
           10 :     400.1062189017357     
           11 :    -189.7552248484426     
           12 :     57.11979662071826     
           13 :    -14.26470071612675     
           14 :     28.68589542469545     
           15 :    -47.32429678240806     
           16 :     34.34534837478895     
           17 :     8.225401701535702     
           18 :    -50.73753274274895     
           19 :     65.41289667658020     
           20 :    -50.05635421706575     
           21 :     28.22961596249843     
           22 :    -28.33039580754576     
           23 :     60.23097974466691     
           24 :    -108.2306955122112     
           25 :     144.5416862656975     
           26 :    -151.0377304488757     
           27 :     131.5999272382642     
           28 :    -106.3272601431263     
           29 :     93.88849681921965     
           30 :    -97.05524610394332     
           31 :    -512.4163231166622     
           32 :    -351.1553908287460     

     Writing all to output data dir ./GaN.save/
 
     init_run     :     24.68s CPU     51.79s WALL (       1 calls)
     electrons    :   3142.59s CPU   3182.96s WALL (       1 calls)
     forces       :     67.59s CPU     68.73s WALL (       1 calls)
     stress       :   1333.80s CPU   1346.29s WALL (       1 calls)

     Called by init_run:
     wfcinit      :      8.38s CPU     34.94s WALL (       1 calls)
     potinit      :      1.85s CPU      2.09s WALL (       1 calls)
     hinit0       :      1.46s CPU      1.54s WALL (       1 calls)

     Called by electrons:
     c_bands      :   3088.86s CPU   3127.39s WALL (       2 calls)
     sum_band     :     50.54s CPU     51.87s WALL (       2 calls)
     v_of_rho     :      2.10s CPU      2.28s WALL (       2 calls)
     v_h          :      0.02s CPU      0.02s WALL (       2 calls)
     v_xc         :     34.08s CPU     36.77s WALL (      38 calls)
     newd         :      0.42s CPU      0.58s WALL (       2 calls)
     PAW_pot      :      1.13s CPU      1.14s WALL (       2 calls)
     mix_rho      :      0.01s CPU      0.01s WALL (       2 calls)
     vdW_kernel   :      0.26s CPU      0.27s WALL (       1 calls)

     Called by c_bands:
     init_us_2    :      3.06s CPU      3.29s WALL (      12 calls)
     init_us_2:cp :      3.05s CPU      3.29s WALL (      12 calls)
     cegterg      :   2600.59s CPU   2634.46s WALL (       4 calls)

     Called by sum_band:
     sum_band:wei :      0.01s CPU      0.01s WALL (       2 calls)
     sum_band:loo :     44.49s CPU     44.88s WALL (       2 calls)
     sum_band:buf :      0.53s CPU      0.54s WALL (       4 calls)
     sum_band:ini :      1.09s CPU      1.12s WALL (       4 calls)
     sum_band:cal :     29.88s CPU     30.09s WALL (       4 calls)
     sum_band:bec :      0.24s CPU      0.24s WALL (       4 calls)
     addusdens    :      0.36s CPU      0.54s WALL (       2 calls)
     addusd:skk   :      0.05s CPU      0.15s WALL (       4 calls)
     addusd:dgemm :      0.22s CPU      0.29s WALL (       4 calls)
     addusd:qvan2 :      0.07s CPU      0.07s WALL (       4 calls)

     Called by *egterg:
     cdiaghg      :   2103.87s CPU   2124.36s WALL (      35 calls)
     cegterg:over :     91.61s CPU     93.95s WALL (      35 calls)
     cegterg:upda :     57.57s CPU     58.49s WALL (      35 calls)
     cegterg:last :     29.39s CPU     29.65s WALL (       4 calls)
     h_psi        :    214.00s CPU    217.30s WALL (      39 calls)
     s_psi        :     74.42s CPU     75.53s WALL (      39 calls)
     g_psi        :      0.21s CPU      0.21s WALL (      35 calls)

     Called by h_psi:
     h_psi:calbec :     80.36s CPU     80.98s WALL (      39 calls)
     vloc_psi     :     58.18s CPU     58.83s WALL (      39 calls)
     add_vuspsi   :     74.56s CPU     75.88s WALL (      39 calls)

     General routines
     calbec       :    220.62s CPU    222.21s WALL (      53 calls)
     fft          :     13.73s CPU     13.90s WALL (    2232 calls)
     ffts         :      0.19s CPU      0.19s WALL (       4 calls)
     fftw         :     65.57s CPU     66.30s WALL (   38906 calls)
     interpolate  :      0.03s CPU      0.03s WALL (       2 calls)
 
     Parallel routines

     PAW routines
     PAW_pot      :      1.13s CPU      1.14s WALL (       2 calls)
     PAW_symme    :      0.03s CPU      0.03s WALL (       3 calls)
 
     PWSCF        :      1h16m CPU      1h18m WALL

 
   This run was terminated on:   7:53:18  30Mar2024            

=------------------------------------------------------------------------------=
   JOB DONE.
=------------------------------------------------------------------------------=
