
     Program PWSCF v.7.1 starts on 29Mar2024 at  7:52:53 

     This program is part of the open-source Quantum ESPRESSO suite
     for quantum simulation of materials; please cite
         "P. Giannozzi et al., J. Phys.:Condens. Matter 21 395502 (2009);
         "P. Giannozzi et al., J. Phys.:Condens. Matter 29 465901 (2017);
         "P. Giannozzi et al., J. Chem. Phys. 152 154105 (2020);
          URL http://www.quantum-espresso.org", 
     in publications or presentations arising from this work. More details at
     http://www.quantum-espresso.org/quote

     Parallel version (MPI & OpenMP), running on     180 processor cores
     Number of MPI processes:               180
     Threads/MPI process:                     1

     MPI processes distributed on     2 nodes
     1847032 MiB available memory on the printing compute node when the environment starts
 
     Reading input from espresso.pwi
Warning: card &CELL ignored
Warning: card    CELL_DYNAMICS    = 'BFGS' ignored
Warning: card / ignored

     Current dimensions of program PWSCF are:
     Max number of different atomic species (ntypx) = 10
     Max number of k-points (npk) =  40000
     Max angular momentum in pseudopotentials (lmaxx) =  4
     file Ga.pbe-dn-kjpaw_psl.1.0.0.UPF: wavefunction(s)  4S renormalized
     file N.pbe-n-kjpaw_psl.1.0.0.UPF: wavefunction(s)  2S renormalized

     **************************************************************************
     Initializing libbeef V0.1.2 with the BEEF-vdW functional.
     Citation: Wellendorff et al., PRB 85, 235149 (2012).
     **************************************************************************


     IMPORTANT: XC functional enforced from input :
     Exchange-correlation= BEEF-VDW
                           (   1   4  43  14   2   0   0)
     Any further DFT definition will be discarded
     Please, verify this is what you really want

 
     K-points division:     npool     =       3
     R & G space division:  proc/nbgrp/npool/nimage =      60
     Subspace diagonalization in iterative solution of the eigenvalue problem:
     a serial algorithm will be used

 
     Parallelization info
     --------------------
     sticks:   dense  smooth     PW     G-vecs:    dense   smooth      PW
     Min         378     302     78                44970    32176    4254
     Max         379     303     79                44974    32181    4259
     Sum       22693   18145   4705              2698283  1930731  255309
 
     Using Slab Decomposition
 


     bravais-lattice index     =            4
     lattice parameter (alat)  =      30.6565  a.u.
     unit-cell volume          =   24400.9461 (a.u.)^3
     number of atoms/cell      =          300
     number of atomic types    =            2
     number of electrons       =      2693.00
     number of Kohn-Sham states=         1616
     kinetic-energy cutoff     =      70.0000  Ry
     charge density cutoff     =     350.0000  Ry
     scf convergence threshold =      1.0E-07
     mixing beta               =       0.7000
     number of iterations used =            8  plain     mixing
     energy convergence thresh.=      1.0E-04
     force convergence thresh. =      1.0E-03
     Exchange-correlation= BEEF-VDW
                           (   1   4  43  14   2   0   0)
     nstep                     =           50


     celldm(1)=  30.656540  celldm(2)=   0.000000  celldm(3)=   0.977927
     celldm(4)=   0.000000  celldm(5)=   0.000000  celldm(6)=   0.000000

     crystal axes: (cart. coord. in units of alat)
               a(1) = (   1.000000   0.000000   0.000000 )  
               a(2) = (  -0.500000   0.866025   0.000000 )  
               a(3) = (   0.000000   0.000000   0.977927 )  

     reciprocal axes: (cart. coord. in units 2 pi/alat)
               b(1) = (  1.000000  0.577350 -0.000000 )  
               b(2) = (  0.000000  1.154701  0.000000 )  
               b(3) = (  0.000000 -0.000000  1.022571 )  


     PseudoPot. # 1 for Ga read from file:
     //group///packages/espresso/pseudo/psl_1.0.0/pslibrary.1.0.0/pbe/PSEUDOPOTENTIALS/Ga.pbe-dn-kjpaw_psl.1.0.0.UPF
     MD5 check sum: cd2a01e492f15b435d17032472d8505c
     Pseudo is Projector augmented-wave + core cor, Zval = 13.0
     Generated using 'atomic' code by A. Dal Corso  v.7.1
     Shape of augmentation charge: PSQ
     Using radial grid of 1205 points,  6 beta functions with: 
                l(1) =   0
                l(2) =   0
                l(3) =   1
                l(4) =   1
                l(5) =   2
                l(6) =   2
     Q(r) pseudized with 0 coefficients 


     PseudoPot. # 2 for N  read from file:
     //group///packages/espresso/pseudo/psl_1.0.0/pslibrary.1.0.0/pbe/PSEUDOPOTENTIALS/N.pbe-n-kjpaw_psl.1.0.0.UPF
     MD5 check sum: f77f775694dac7e2c3fe1c82443d1a16
     Pseudo is Projector augmented-wave + core cor, Zval =  5.0
     Generated using 'atomic' code by A. Dal Corso  v.7.1
     Shape of augmentation charge: PSQ
     Using radial grid of 1085 points,  4 beta functions with: 
                l(1) =   0
                l(2) =   0
                l(3) =   1
                l(4) =   1
     Q(r) pseudized with 0 coefficients 


     atomic species   valence    mass     pseudopotential
        Ga            13.00    69.72300     Ga( 1.00)
        N              5.00    14.00700     N ( 1.00)

      2 Sym. Ops. (no inversion) found


                                    s                        frac. trans.

      isym =  1     identity                                     

 cryst.   s( 1) = (     1          0          0      )
                  (     0          1          0      )
                  (     0          0          1      )

 cart.    s( 1) = (  1.0000000  0.0000000  0.0000000 )
                  (  0.0000000  1.0000000  0.0000000 )
                  (  0.0000000  0.0000000  1.0000000 )


      isym =  2     inv. 180 deg rotation - cryst. axis [0,1,0]  

 cryst.   s( 2) = (     1          1          0      )
                  (     0         -1          0      )
                  (     0          0          1      )

 cart.    s( 2) = (  0.5000000  0.8660254  0.0000000 )
                  (  0.8660254 -0.5000000  0.0000000 )
                  (  0.0000000  0.0000000  1.0000000 )


     point group C_s (m)    
     there are  2 classes
     the character table:

       E     s    
A'     1.00  1.00
A''    1.00 -1.00

     the symmetry operations in each class and the name of the first element:

     E        1
          identity                                               
     s        2
          inv. 180 deg rotation - cryst. axis [0,1,0]            

   Cartesian axes

     site n.     atom                  positions (alat units)
         1           Ga  tau(   1) = (   0.1000001   0.0577350   0.4886906  )
         2           Ga  tau(   2) = (   0.1000001   0.0577350   0.8146665  )
         3           Ga  tau(   3) = (   0.0000001   0.2309401   0.1627148  )
         4           Ga  tau(   4) = (   0.0000001   0.2309401   0.4886906  )
         5           Ga  tau(   5) = (   0.0000001   0.2309401   0.8146665  )
         6           Ga  tau(   6) = (  -0.0999999   0.4041451   0.1627148  )
         7           Ga  tau(   7) = (  -0.0999999   0.4041451   0.4886906  )
         8           Ga  tau(   8) = (  -0.0999999   0.4041451   0.8146665  )
         9           Ga  tau(   9) = (  -0.1999999   0.5773502   0.1627148  )
        10           Ga  tau(  10) = (  -0.1999999   0.5773502   0.4886906  )
        11           Ga  tau(  11) = (  -0.1999999   0.5773502   0.8146665  )
        12           Ga  tau(  12) = (  -0.2999999   0.7505553   0.1627148  )
        13           Ga  tau(  13) = (  -0.2999999   0.7505553   0.4886906  )
        14           Ga  tau(  14) = (  -0.2999999   0.7505553   0.8146665  )
        15           Ga  tau(  15) = (   0.3000001   0.0577350   0.1627148  )
        16           Ga  tau(  16) = (   0.3000001   0.0577350   0.4886906  )
        17           Ga  tau(  17) = (   0.3000001   0.0577350   0.8146665  )
        18           Ga  tau(  18) = (   0.2000001   0.2309401   0.1627148  )
        19           Ga  tau(  19) = (   0.2000001   0.2309401   0.4886906  )
        20           Ga  tau(  20) = (   0.2000001   0.2309401   0.8146665  )
        21           Ga  tau(  21) = (   0.1000001   0.4041451   0.1627148  )
        22           Ga  tau(  22) = (   0.1000001   0.4041451   0.4886906  )
        23           Ga  tau(  23) = (   0.1000001   0.4041451   0.8146665  )
        24           Ga  tau(  24) = (   0.0000001   0.5773502   0.1627148  )
        25           Ga  tau(  25) = (   0.0000001   0.5773502   0.4886906  )
        26           Ga  tau(  26) = (   0.0000001   0.5773502   0.8146665  )
        27           Ga  tau(  27) = (  -0.0999999   0.7505553   0.1627148  )
        28           Ga  tau(  28) = (  -0.0999999   0.7505553   0.4886906  )
        29           Ga  tau(  29) = (  -0.0999999   0.7505553   0.8146665  )
        30           Ga  tau(  30) = (   0.5000001   0.0577350   0.1627148  )
        31           Ga  tau(  31) = (   0.5000001   0.0577350   0.4886906  )
        32           Ga  tau(  32) = (   0.5000001   0.0577350   0.8146665  )
        33           Ga  tau(  33) = (   0.4000001   0.2309401   0.1627148  )
        34           Ga  tau(  34) = (   0.4000001   0.2309401   0.4886906  )
        35           Ga  tau(  35) = (   0.4000001   0.2309401   0.8146665  )
        36           Ga  tau(  36) = (   0.3000001   0.4041451   0.1627148  )
        37           Ga  tau(  37) = (   0.3000001   0.4041451   0.4886906  )
        38           Ga  tau(  38) = (   0.3000001   0.4041451   0.8146665  )
        39           Ga  tau(  39) = (   0.2000001   0.5773502   0.1627148  )
        40           Ga  tau(  40) = (   0.2000001   0.5773502   0.4886906  )
        41           Ga  tau(  41) = (   0.2000001   0.5773502   0.8146665  )
        42           Ga  tau(  42) = (   0.1000001   0.7505553   0.1627148  )
        43           Ga  tau(  43) = (   0.1000001   0.7505553   0.4886906  )
        44           Ga  tau(  44) = (   0.1000001   0.7505553   0.8146665  )
        45           Ga  tau(  45) = (   0.7000001   0.0577350   0.1627148  )
        46           Ga  tau(  46) = (   0.7000001   0.0577350   0.4886906  )
        47           Ga  tau(  47) = (   0.7000001   0.0577350   0.8146665  )
        48           Ga  tau(  48) = (   0.6000001   0.2309401   0.1627148  )
        49           Ga  tau(  49) = (   0.6000001   0.2309401   0.4886906  )
        50           Ga  tau(  50) = (   0.6000001   0.2309401   0.8146665  )
        51           Ga  tau(  51) = (   0.5000001   0.4041451   0.1627148  )
        52           Ga  tau(  52) = (   0.5000001   0.4041451   0.4886906  )
        53           Ga  tau(  53) = (   0.5000001   0.4041451   0.8146665  )
        54           Ga  tau(  54) = (   0.4000001   0.5773502   0.1627148  )
        55           Ga  tau(  55) = (   0.4000001   0.5773502   0.4886906  )
        56           Ga  tau(  56) = (   0.4000001   0.5773502   0.8146665  )
        57           Ga  tau(  57) = (   0.3000001   0.7505553   0.1627148  )
        58           Ga  tau(  58) = (   0.3000001   0.7505553   0.4886906  )
        59           Ga  tau(  59) = (   0.3000001   0.7505553   0.8146665  )
        60           Ga  tau(  60) = (   0.9000001   0.0577350   0.1627148  )
        61           Ga  tau(  61) = (   0.9000001   0.0577350   0.4886906  )
        62           Ga  tau(  62) = (   0.9000001   0.0577350   0.8146665  )
        63           Ga  tau(  63) = (   0.8000001   0.2309401   0.1627148  )
        64           Ga  tau(  64) = (   0.8000001   0.2309401   0.4886906  )
        65           Ga  tau(  65) = (   0.8000001   0.2309401   0.8146665  )
        66           Ga  tau(  66) = (   0.7000001   0.4041451   0.1627148  )
        67           Ga  tau(  67) = (   0.7000001   0.4041451   0.4886906  )
        68           Ga  tau(  68) = (   0.7000001   0.4041451   0.8146665  )
        69           Ga  tau(  69) = (   0.6000001   0.5773502   0.1627148  )
        70           Ga  tau(  70) = (   0.6000001   0.5773502   0.4886906  )
        71           Ga  tau(  71) = (   0.6000001   0.5773502   0.8146665  )
        72           Ga  tau(  72) = (   0.5000001   0.7505553   0.1627148  )
        73           Ga  tau(  73) = (   0.5000001   0.7505553   0.4886906  )
        74           Ga  tau(  74) = (   0.5000001   0.7505553   0.8146665  )
        75           Ga  tau(  75) = (  -0.0000001   0.1154701   0.3257027  )
        76           Ga  tau(  76) = (  -0.0000001   0.1154701   0.6516786  )
        77           Ga  tau(  77) = (  -0.0000001   0.1154701   0.9776544  )
        78           Ga  tau(  78) = (  -0.1000001   0.2886752   0.3257027  )
        79           Ga  tau(  79) = (  -0.1000001   0.2886752   0.6516786  )
        80           Ga  tau(  80) = (  -0.1000001   0.2886752   0.9776544  )
        81           Ga  tau(  81) = (  -0.2000001   0.4618803   0.3257027  )
        82           Ga  tau(  82) = (  -0.2000001   0.4618803   0.6516786  )
        83           Ga  tau(  83) = (  -0.2000001   0.4618803   0.9776544  )
        84           Ga  tau(  84) = (  -0.3000001   0.6350854   0.3257027  )
        85           Ga  tau(  85) = (  -0.3000001   0.6350854   0.6516786  )
        86           Ga  tau(  86) = (  -0.3000001   0.6350854   0.9776544  )
        87           Ga  tau(  87) = (  -0.4000001   0.8082905   0.3257027  )
        88           Ga  tau(  88) = (  -0.4000001   0.8082905   0.6516786  )
        89           Ga  tau(  89) = (  -0.4000001   0.8082905   0.9776544  )
        90           Ga  tau(  90) = (   0.1999999   0.1154701   0.3257027  )
        91           Ga  tau(  91) = (   0.1999999   0.1154701   0.6516786  )
        92           Ga  tau(  92) = (   0.1999999   0.1154701   0.9776544  )
        93           Ga  tau(  93) = (   0.0999999   0.2886752   0.3257027  )
        94           Ga  tau(  94) = (   0.0999999   0.2886752   0.6516786  )
        95           Ga  tau(  95) = (   0.0999999   0.2886752   0.9776544  )
        96           Ga  tau(  96) = (  -0.0000001   0.4618803   0.3257027  )
        97           Ga  tau(  97) = (  -0.0000001   0.4618803   0.6516786  )
        98           Ga  tau(  98) = (  -0.0000001   0.4618803   0.9776544  )
        99           Ga  tau(  99) = (  -0.1000001   0.6350854   0.3257027  )
       100           Ga  tau( 100) = (  -0.1000001   0.6350854   0.6516786  )
       101           Ga  tau( 101) = (  -0.1000001   0.6350854   0.9776544  )
       102           Ga  tau( 102) = (  -0.2000001   0.8082905   0.3257027  )
       103           Ga  tau( 103) = (  -0.2000001   0.8082905   0.6516786  )
       104           Ga  tau( 104) = (  -0.2000001   0.8082905   0.9776544  )
       105           Ga  tau( 105) = (   0.3999999   0.1154701   0.3257027  )
       106           Ga  tau( 106) = (   0.3999999   0.1154701   0.6516786  )
       107           Ga  tau( 107) = (   0.3999999   0.1154701   0.9776544  )
       108           Ga  tau( 108) = (   0.2999999   0.2886752   0.3257027  )
       109           Ga  tau( 109) = (   0.2999999   0.2886752   0.6516786  )
       110           Ga  tau( 110) = (   0.2999999   0.2886752   0.9776544  )
       111           Ga  tau( 111) = (   0.1999999   0.4618803   0.3257027  )
       112           Ga  tau( 112) = (   0.1999999   0.4618803   0.6516786  )
       113           Ga  tau( 113) = (   0.1999999   0.4618803   0.9776544  )
       114           Ga  tau( 114) = (   0.0999999   0.6350854   0.3257027  )
       115           Ga  tau( 115) = (   0.0999999   0.6350854   0.6516786  )
       116           Ga  tau( 116) = (   0.0999999   0.6350854   0.9776544  )
       117           Ga  tau( 117) = (  -0.0000001   0.8082905   0.3257027  )
       118           Ga  tau( 118) = (  -0.0000001   0.8082905   0.6516786  )
       119           Ga  tau( 119) = (  -0.0000001   0.8082905   0.9776544  )
       120           Ga  tau( 120) = (   0.5999999   0.1154701   0.3257027  )
       121           Ga  tau( 121) = (   0.5999999   0.1154701   0.6516786  )
       122           Ga  tau( 122) = (   0.5999999   0.1154701   0.9776544  )
       123           Ga  tau( 123) = (   0.4999999   0.2886752   0.3257027  )
       124           Ga  tau( 124) = (   0.4999999   0.2886752   0.6516786  )
       125           Ga  tau( 125) = (   0.4999999   0.2886752   0.9776544  )
       126           Ga  tau( 126) = (   0.3999999   0.4618803   0.3257027  )
       127           Ga  tau( 127) = (   0.3999999   0.4618803   0.6516786  )
       128           Ga  tau( 128) = (   0.3999999   0.4618803   0.9776544  )
       129           Ga  tau( 129) = (   0.2999999   0.6350854   0.3257027  )
       130           Ga  tau( 130) = (   0.2999999   0.6350854   0.6516786  )
       131           Ga  tau( 131) = (   0.2999999   0.6350854   0.9776544  )
       132           Ga  tau( 132) = (   0.1999999   0.8082905   0.3257027  )
       133           Ga  tau( 133) = (   0.1999999   0.8082905   0.6516786  )
       134           Ga  tau( 134) = (   0.1999999   0.8082905   0.9776544  )
       135           Ga  tau( 135) = (   0.7999999   0.1154701   0.3257027  )
       136           Ga  tau( 136) = (   0.7999999   0.1154701   0.6516786  )
       137           Ga  tau( 137) = (   0.7999999   0.1154701   0.9776544  )
       138           Ga  tau( 138) = (   0.6999999   0.2886752   0.3257027  )
       139           Ga  tau( 139) = (   0.6999999   0.2886752   0.6516786  )
       140           Ga  tau( 140) = (   0.6999999   0.2886752   0.9776544  )
       141           Ga  tau( 141) = (   0.5999999   0.4618803   0.3257027  )
       142           Ga  tau( 142) = (   0.5999999   0.4618803   0.6516786  )
       143           Ga  tau( 143) = (   0.5999999   0.4618803   0.9776544  )
       144           Ga  tau( 144) = (   0.4999999   0.6350854   0.3257027  )
       145           Ga  tau( 145) = (   0.4999999   0.6350854   0.6516786  )
       146           Ga  tau( 146) = (   0.4999999   0.6350854   0.9776544  )
       147           Ga  tau( 147) = (   0.3999999   0.8082905   0.3257027  )
       148           Ga  tau( 148) = (   0.3999999   0.8082905   0.6516786  )
       149           Ga  tau( 149) = (   0.3999999   0.8082905   0.9776544  )
       150           N   tau( 150) = (   0.1000001   0.0577350   0.2855019  )
       151           N   tau( 151) = (   0.1000001   0.0577350   0.6114777  )
       152           N   tau( 152) = (   0.1000001   0.0577350   0.9374535  )
       153           N   tau( 153) = (   0.0000001   0.2309401   0.2855019  )
       154           N   tau( 154) = (   0.0000001   0.2309401   0.6114777  )
       155           N   tau( 155) = (   0.0000001   0.2309401   0.9374535  )
       156           N   tau( 156) = (  -0.0999999   0.4041451   0.2855019  )
       157           N   tau( 157) = (  -0.0999999   0.4041451   0.6114777  )
       158           N   tau( 158) = (  -0.0999999   0.4041451   0.9374535  )
       159           N   tau( 159) = (  -0.1999999   0.5773502   0.2855019  )
       160           N   tau( 160) = (  -0.1999999   0.5773502   0.6114777  )
       161           N   tau( 161) = (  -0.1999999   0.5773502   0.9374535  )
       162           N   tau( 162) = (  -0.2999999   0.7505553   0.2855019  )
       163           N   tau( 163) = (  -0.2999999   0.7505553   0.6114777  )
       164           N   tau( 164) = (  -0.2999999   0.7505553   0.9374535  )
       165           N   tau( 165) = (   0.3000001   0.0577350   0.2855019  )
       166           N   tau( 166) = (   0.3000001   0.0577350   0.6114777  )
       167           N   tau( 167) = (   0.3000001   0.0577350   0.9374535  )
       168           N   tau( 168) = (   0.2000001   0.2309401   0.2855019  )
       169           N   tau( 169) = (   0.2000001   0.2309401   0.6114777  )
       170           N   tau( 170) = (   0.2000001   0.2309401   0.9374535  )
       171           N   tau( 171) = (   0.1000001   0.4041451   0.2855019  )
       172           N   tau( 172) = (   0.1000001   0.4041451   0.6114777  )
       173           N   tau( 173) = (   0.1000001   0.4041451   0.9374535  )
       174           N   tau( 174) = (   0.0000001   0.5773502   0.2855019  )
       175           N   tau( 175) = (   0.0000001   0.5773502   0.6114777  )
       176           N   tau( 176) = (   0.0000001   0.5773502   0.9374535  )
       177           N   tau( 177) = (  -0.0999999   0.7505553   0.2855019  )
       178           N   tau( 178) = (  -0.0999999   0.7505553   0.6114777  )
       179           N   tau( 179) = (  -0.0999999   0.7505553   0.9374535  )
       180           N   tau( 180) = (   0.5000001   0.0577350   0.2855019  )
       181           N   tau( 181) = (   0.5000001   0.0577350   0.6114777  )
       182           N   tau( 182) = (   0.5000001   0.0577350   0.9374535  )
       183           N   tau( 183) = (   0.4000001   0.2309401   0.2855019  )
       184           N   tau( 184) = (   0.4000001   0.2309401   0.6114777  )
       185           N   tau( 185) = (   0.4000001   0.2309401   0.9374535  )
       186           N   tau( 186) = (   0.3000001   0.4041451   0.2855019  )
       187           N   tau( 187) = (   0.3000001   0.4041451   0.6114777  )
       188           N   tau( 188) = (   0.3000001   0.4041451   0.9374535  )
       189           N   tau( 189) = (   0.2000001   0.5773502   0.2855019  )
       190           N   tau( 190) = (   0.2000001   0.5773502   0.6114777  )
       191           N   tau( 191) = (   0.2000001   0.5773502   0.9374535  )
       192           N   tau( 192) = (   0.1000001   0.7505553   0.2855019  )
       193           N   tau( 193) = (   0.1000001   0.7505553   0.6114777  )
       194           N   tau( 194) = (   0.1000001   0.7505553   0.9374535  )
       195           N   tau( 195) = (   0.7000001   0.0577350   0.2855019  )
       196           N   tau( 196) = (   0.7000001   0.0577350   0.6114777  )
       197           N   tau( 197) = (   0.7000001   0.0577350   0.9374535  )
       198           N   tau( 198) = (   0.6000001   0.2309401   0.2855019  )
       199           N   tau( 199) = (   0.6000001   0.2309401   0.6114777  )
       200           N   tau( 200) = (   0.6000001   0.2309401   0.9374535  )
       201           N   tau( 201) = (   0.5000001   0.4041451   0.2855019  )
       202           N   tau( 202) = (   0.5000001   0.4041451   0.6114777  )
       203           N   tau( 203) = (   0.5000001   0.4041451   0.9374535  )
       204           N   tau( 204) = (   0.4000001   0.5773502   0.2855019  )
       205           N   tau( 205) = (   0.4000001   0.5773502   0.6114777  )
       206           N   tau( 206) = (   0.4000001   0.5773502   0.9374535  )
       207           N   tau( 207) = (   0.3000001   0.7505553   0.2855019  )
       208           N   tau( 208) = (   0.3000001   0.7505553   0.6114777  )
       209           N   tau( 209) = (   0.3000001   0.7505553   0.9374535  )
       210           N   tau( 210) = (   0.9000001   0.0577350   0.2855019  )
       211           N   tau( 211) = (   0.9000001   0.0577350   0.6114777  )
       212           N   tau( 212) = (   0.9000001   0.0577350   0.9374535  )
       213           N   tau( 213) = (   0.8000001   0.2309401   0.2855019  )
       214           N   tau( 214) = (   0.8000001   0.2309401   0.6114777  )
       215           N   tau( 215) = (   0.8000001   0.2309401   0.9374535  )
       216           N   tau( 216) = (   0.7000001   0.4041451   0.2855019  )
       217           N   tau( 217) = (   0.7000001   0.4041451   0.6114777  )
       218           N   tau( 218) = (   0.7000001   0.4041451   0.9374535  )
       219           N   tau( 219) = (   0.6000001   0.5773502   0.2855019  )
       220           N   tau( 220) = (   0.6000001   0.5773502   0.6114777  )
       221           N   tau( 221) = (   0.6000001   0.5773502   0.9374535  )
       222           N   tau( 222) = (   0.5000001   0.7505553   0.2855019  )
       223           N   tau( 223) = (   0.5000001   0.7505553   0.6114777  )
       224           N   tau( 224) = (   0.5000001   0.7505553   0.9374535  )
       225           N   tau( 225) = (  -0.0000001   0.1154701   0.1225140  )
       226           N   tau( 226) = (  -0.0000001   0.1154701   0.4484898  )
       227           N   tau( 227) = (  -0.0000001   0.1154701   0.7744656  )
       228           N   tau( 228) = (  -0.1000001   0.2886752   0.1225140  )
       229           N   tau( 229) = (  -0.1000001   0.2886752   0.4484898  )
       230           N   tau( 230) = (  -0.1000001   0.2886752   0.7744656  )
       231           N   tau( 231) = (  -0.2000001   0.4618803   0.1225140  )
       232           N   tau( 232) = (  -0.2000001   0.4618803   0.4484898  )
       233           N   tau( 233) = (  -0.2000001   0.4618803   0.7744656  )
       234           N   tau( 234) = (  -0.3000001   0.6350854   0.1225140  )
       235           N   tau( 235) = (  -0.3000001   0.6350854   0.4484898  )
       236           N   tau( 236) = (  -0.3000001   0.6350854   0.7744656  )
       237           N   tau( 237) = (  -0.4000001   0.8082905   0.1225140  )
       238           N   tau( 238) = (  -0.4000001   0.8082905   0.4484898  )
       239           N   tau( 239) = (  -0.4000001   0.8082905   0.7744656  )
       240           N   tau( 240) = (   0.1999999   0.1154701   0.1225140  )
       241           N   tau( 241) = (   0.1999999   0.1154701   0.4484898  )
       242           N   tau( 242) = (   0.1999999   0.1154701   0.7744656  )
       243           N   tau( 243) = (   0.0999999   0.2886752   0.1225140  )
       244           N   tau( 244) = (   0.0999999   0.2886752   0.4484898  )
       245           N   tau( 245) = (   0.0999999   0.2886752   0.7744656  )
       246           N   tau( 246) = (  -0.0000001   0.4618803   0.1225140  )
       247           N   tau( 247) = (  -0.0000001   0.4618803   0.4484898  )
       248           N   tau( 248) = (  -0.0000001   0.4618803   0.7744656  )
       249           N   tau( 249) = (  -0.1000001   0.6350854   0.1225140  )
       250           N   tau( 250) = (  -0.1000001   0.6350854   0.4484898  )
       251           N   tau( 251) = (  -0.1000001   0.6350854   0.7744656  )
       252           N   tau( 252) = (  -0.2000001   0.8082905   0.1225140  )
       253           N   tau( 253) = (  -0.2000001   0.8082905   0.4484898  )
       254           N   tau( 254) = (  -0.2000001   0.8082905   0.7744656  )
       255           N   tau( 255) = (   0.3999999   0.1154701   0.1225140  )
       256           N   tau( 256) = (   0.3999999   0.1154701   0.4484898  )
       257           N   tau( 257) = (   0.3999999   0.1154701   0.7744656  )
       258           N   tau( 258) = (   0.2999999   0.2886752   0.1225140  )
       259           N   tau( 259) = (   0.2999999   0.2886752   0.4484898  )
       260           N   tau( 260) = (   0.2999999   0.2886752   0.7744656  )
       261           N   tau( 261) = (   0.1999999   0.4618803   0.1225140  )
       262           N   tau( 262) = (   0.1999999   0.4618803   0.4484898  )
       263           N   tau( 263) = (   0.1999999   0.4618803   0.7744656  )
       264           N   tau( 264) = (   0.0999999   0.6350854   0.1225140  )
       265           N   tau( 265) = (   0.0999999   0.6350854   0.4484898  )
       266           N   tau( 266) = (   0.0999999   0.6350854   0.7744656  )
       267           N   tau( 267) = (  -0.0000001   0.8082905   0.1225140  )
       268           N   tau( 268) = (  -0.0000001   0.8082905   0.4484898  )
       269           N   tau( 269) = (  -0.0000001   0.8082905   0.7744656  )
       270           N   tau( 270) = (   0.5999999   0.1154701   0.1225140  )
       271           N   tau( 271) = (   0.5999999   0.1154701   0.4484898  )
       272           N   tau( 272) = (   0.5999999   0.1154701   0.7744656  )
       273           N   tau( 273) = (   0.4999999   0.2886752   0.1225140  )
       274           N   tau( 274) = (   0.4999999   0.2886752   0.4484898  )
       275           N   tau( 275) = (   0.4999999   0.2886752   0.7744656  )
       276           N   tau( 276) = (   0.3999999   0.4618803   0.1225140  )
       277           N   tau( 277) = (   0.3999999   0.4618803   0.4484898  )
       278           N   tau( 278) = (   0.3999999   0.4618803   0.7744656  )
       279           N   tau( 279) = (   0.2999999   0.6350854   0.1225140  )
       280           N   tau( 280) = (   0.2999999   0.6350854   0.4484898  )
       281           N   tau( 281) = (   0.2999999   0.6350854   0.7744656  )
       282           N   tau( 282) = (   0.1999999   0.8082905   0.1225140  )
       283           N   tau( 283) = (   0.1999999   0.8082905   0.4484898  )
       284           N   tau( 284) = (   0.1999999   0.8082905   0.7744656  )
       285           N   tau( 285) = (   0.7999999   0.1154701   0.1225140  )
       286           N   tau( 286) = (   0.7999999   0.1154701   0.4484898  )
       287           N   tau( 287) = (   0.7999999   0.1154701   0.7744656  )
       288           N   tau( 288) = (   0.6999999   0.2886752   0.1225140  )
       289           N   tau( 289) = (   0.6999999   0.2886752   0.4484898  )
       290           N   tau( 290) = (   0.6999999   0.2886752   0.7744656  )
       291           N   tau( 291) = (   0.5999999   0.4618803   0.1225140  )
       292           N   tau( 292) = (   0.5999999   0.4618803   0.4484898  )
       293           N   tau( 293) = (   0.5999999   0.4618803   0.7744656  )
       294           N   tau( 294) = (   0.4999999   0.6350854   0.1225140  )
       295           N   tau( 295) = (   0.4999999   0.6350854   0.4484898  )
       296           N   tau( 296) = (   0.4999999   0.6350854   0.7744656  )
       297           N   tau( 297) = (   0.3999999   0.8082905   0.1225140  )
       298           N   tau( 298) = (   0.3999999   0.8082905   0.4484898  )
       299           N   tau( 299) = (   0.3999999   0.8082905   0.7744656  )
       300           N   tau( 300) = (   0.1000001   0.0577350   0.1627148  )

   Crystallographic axes

     site n.     atom                  positions (cryst. coord.)
         1           Ga  tau(   1) = (  0.1333334  0.0666666  0.4997208  )
         2           Ga  tau(   2) = (  0.1333334  0.0666666  0.8330541  )
         3           Ga  tau(   3) = (  0.1333334  0.2666666  0.1663874  )
         4           Ga  tau(   4) = (  0.1333334  0.2666666  0.4997208  )
         5           Ga  tau(   5) = (  0.1333334  0.2666666  0.8330541  )
         6           Ga  tau(   6) = (  0.1333334  0.4666666  0.1663874  )
         7           Ga  tau(   7) = (  0.1333334  0.4666666  0.4997208  )
         8           Ga  tau(   8) = (  0.1333334  0.4666666  0.8330541  )
         9           Ga  tau(   9) = (  0.1333334  0.6666666  0.1663874  )
        10           Ga  tau(  10) = (  0.1333334  0.6666666  0.4997208  )
        11           Ga  tau(  11) = (  0.1333334  0.6666666  0.8330541  )
        12           Ga  tau(  12) = (  0.1333334  0.8666666  0.1663874  )
        13           Ga  tau(  13) = (  0.1333334  0.8666666  0.4997208  )
        14           Ga  tau(  14) = (  0.1333334  0.8666666  0.8330541  )
        15           Ga  tau(  15) = (  0.3333334  0.0666666  0.1663874  )
        16           Ga  tau(  16) = (  0.3333334  0.0666666  0.4997208  )
        17           Ga  tau(  17) = (  0.3333334  0.0666666  0.8330541  )
        18           Ga  tau(  18) = (  0.3333334  0.2666666  0.1663874  )
        19           Ga  tau(  19) = (  0.3333334  0.2666666  0.4997208  )
        20           Ga  tau(  20) = (  0.3333334  0.2666666  0.8330541  )
        21           Ga  tau(  21) = (  0.3333334  0.4666666  0.1663874  )
        22           Ga  tau(  22) = (  0.3333334  0.4666666  0.4997208  )
        23           Ga  tau(  23) = (  0.3333334  0.4666666  0.8330541  )
        24           Ga  tau(  24) = (  0.3333334  0.6666666  0.1663874  )
        25           Ga  tau(  25) = (  0.3333334  0.6666666  0.4997208  )
        26           Ga  tau(  26) = (  0.3333334  0.6666666  0.8330541  )
        27           Ga  tau(  27) = (  0.3333334  0.8666666  0.1663874  )
        28           Ga  tau(  28) = (  0.3333334  0.8666666  0.4997208  )
        29           Ga  tau(  29) = (  0.3333334  0.8666666  0.8330541  )
        30           Ga  tau(  30) = (  0.5333334  0.0666666  0.1663874  )
        31           Ga  tau(  31) = (  0.5333334  0.0666666  0.4997208  )
        32           Ga  tau(  32) = (  0.5333334  0.0666666  0.8330541  )
        33           Ga  tau(  33) = (  0.5333334  0.2666666  0.1663874  )
        34           Ga  tau(  34) = (  0.5333334  0.2666666  0.4997208  )
        35           Ga  tau(  35) = (  0.5333334  0.2666666  0.8330541  )
        36           Ga  tau(  36) = (  0.5333334  0.4666666  0.1663874  )
        37           Ga  tau(  37) = (  0.5333334  0.4666666  0.4997208  )
        38           Ga  tau(  38) = (  0.5333334  0.4666666  0.8330541  )
        39           Ga  tau(  39) = (  0.5333334  0.6666666  0.1663874  )
        40           Ga  tau(  40) = (  0.5333334  0.6666666  0.4997208  )
        41           Ga  tau(  41) = (  0.5333334  0.6666666  0.8330541  )
        42           Ga  tau(  42) = (  0.5333334  0.8666666  0.1663874  )
        43           Ga  tau(  43) = (  0.5333334  0.8666666  0.4997208  )
        44           Ga  tau(  44) = (  0.5333334  0.8666666  0.8330541  )
        45           Ga  tau(  45) = (  0.7333334  0.0666666  0.1663874  )
        46           Ga  tau(  46) = (  0.7333334  0.0666666  0.4997208  )
        47           Ga  tau(  47) = (  0.7333334  0.0666666  0.8330541  )
        48           Ga  tau(  48) = (  0.7333334  0.2666666  0.1663874  )
        49           Ga  tau(  49) = (  0.7333334  0.2666666  0.4997208  )
        50           Ga  tau(  50) = (  0.7333334  0.2666666  0.8330541  )
        51           Ga  tau(  51) = (  0.7333334  0.4666666  0.1663874  )
        52           Ga  tau(  52) = (  0.7333334  0.4666666  0.4997208  )
        53           Ga  tau(  53) = (  0.7333334  0.4666666  0.8330541  )
        54           Ga  tau(  54) = (  0.7333334  0.6666666  0.1663874  )
        55           Ga  tau(  55) = (  0.7333334  0.6666666  0.4997208  )
        56           Ga  tau(  56) = (  0.7333334  0.6666666  0.8330541  )
        57           Ga  tau(  57) = (  0.7333334  0.8666666  0.1663874  )
        58           Ga  tau(  58) = (  0.7333334  0.8666666  0.4997208  )
        59           Ga  tau(  59) = (  0.7333334  0.8666666  0.8330541  )
        60           Ga  tau(  60) = (  0.9333334  0.0666666  0.1663874  )
        61           Ga  tau(  61) = (  0.9333334  0.0666666  0.4997208  )
        62           Ga  tau(  62) = (  0.9333334  0.0666666  0.8330541  )
        63           Ga  tau(  63) = (  0.9333334  0.2666666  0.1663874  )
        64           Ga  tau(  64) = (  0.9333334  0.2666666  0.4997208  )
        65           Ga  tau(  65) = (  0.9333334  0.2666666  0.8330541  )
        66           Ga  tau(  66) = (  0.9333334  0.4666666  0.1663874  )
        67           Ga  tau(  67) = (  0.9333334  0.4666666  0.4997208  )
        68           Ga  tau(  68) = (  0.9333334  0.4666666  0.8330541  )
        69           Ga  tau(  69) = (  0.9333334  0.6666666  0.1663874  )
        70           Ga  tau(  70) = (  0.9333334  0.6666666  0.4997208  )
        71           Ga  tau(  71) = (  0.9333334  0.6666666  0.8330541  )
        72           Ga  tau(  72) = (  0.9333334  0.8666666  0.1663874  )
        73           Ga  tau(  73) = (  0.9333334  0.8666666  0.4997208  )
        74           Ga  tau(  74) = (  0.9333334  0.8666666  0.8330541  )
        75           Ga  tau(  75) = (  0.0666666  0.1333334  0.3330541  )
        76           Ga  tau(  76) = (  0.0666666  0.1333334  0.6663874  )
        77           Ga  tau(  77) = (  0.0666666  0.1333334  0.9997208  )
        78           Ga  tau(  78) = (  0.0666666  0.3333334  0.3330541  )
        79           Ga  tau(  79) = (  0.0666666  0.3333334  0.6663874  )
        80           Ga  tau(  80) = (  0.0666666  0.3333334  0.9997208  )
        81           Ga  tau(  81) = (  0.0666666  0.5333334  0.3330541  )
        82           Ga  tau(  82) = (  0.0666666  0.5333334  0.6663874  )
        83           Ga  tau(  83) = (  0.0666666  0.5333334  0.9997208  )
        84           Ga  tau(  84) = (  0.0666666  0.7333334  0.3330541  )
        85           Ga  tau(  85) = (  0.0666666  0.7333334  0.6663874  )
        86           Ga  tau(  86) = (  0.0666666  0.7333334  0.9997208  )
        87           Ga  tau(  87) = (  0.0666666  0.9333334  0.3330541  )
        88           Ga  tau(  88) = (  0.0666666  0.9333334  0.6663874  )
        89           Ga  tau(  89) = (  0.0666666  0.9333334  0.9997208  )
        90           Ga  tau(  90) = (  0.2666666  0.1333334  0.3330541  )
        91           Ga  tau(  91) = (  0.2666666  0.1333334  0.6663874  )
        92           Ga  tau(  92) = (  0.2666666  0.1333334  0.9997208  )
        93           Ga  tau(  93) = (  0.2666666  0.3333334  0.3330541  )
        94           Ga  tau(  94) = (  0.2666666  0.3333334  0.6663874  )
        95           Ga  tau(  95) = (  0.2666666  0.3333334  0.9997208  )
        96           Ga  tau(  96) = (  0.2666666  0.5333334  0.3330541  )
        97           Ga  tau(  97) = (  0.2666666  0.5333334  0.6663874  )
        98           Ga  tau(  98) = (  0.2666666  0.5333334  0.9997208  )
        99           Ga  tau(  99) = (  0.2666666  0.7333334  0.3330541  )
       100           Ga  tau( 100) = (  0.2666666  0.7333334  0.6663874  )
       101           Ga  tau( 101) = (  0.2666666  0.7333334  0.9997208  )
       102           Ga  tau( 102) = (  0.2666666  0.9333334  0.3330541  )
       103           Ga  tau( 103) = (  0.2666666  0.9333334  0.6663874  )
       104           Ga  tau( 104) = (  0.2666666  0.9333334  0.9997208  )
       105           Ga  tau( 105) = (  0.4666666  0.1333334  0.3330541  )
       106           Ga  tau( 106) = (  0.4666666  0.1333334  0.6663874  )
       107           Ga  tau( 107) = (  0.4666666  0.1333334  0.9997208  )
       108           Ga  tau( 108) = (  0.4666666  0.3333334  0.3330541  )
       109           Ga  tau( 109) = (  0.4666666  0.3333334  0.6663874  )
       110           Ga  tau( 110) = (  0.4666666  0.3333334  0.9997208  )
       111           Ga  tau( 111) = (  0.4666666  0.5333334  0.3330541  )
       112           Ga  tau( 112) = (  0.4666666  0.5333334  0.6663874  )
       113           Ga  tau( 113) = (  0.4666666  0.5333334  0.9997208  )
       114           Ga  tau( 114) = (  0.4666666  0.7333334  0.3330541  )
       115           Ga  tau( 115) = (  0.4666666  0.7333334  0.6663874  )
       116           Ga  tau( 116) = (  0.4666666  0.7333334  0.9997208  )
       117           Ga  tau( 117) = (  0.4666666  0.9333334  0.3330541  )
       118           Ga  tau( 118) = (  0.4666666  0.9333334  0.6663874  )
       119           Ga  tau( 119) = (  0.4666666  0.9333334  0.9997208  )
       120           Ga  tau( 120) = (  0.6666666  0.1333334  0.3330541  )
       121           Ga  tau( 121) = (  0.6666666  0.1333334  0.6663874  )
       122           Ga  tau( 122) = (  0.6666666  0.1333334  0.9997208  )
       123           Ga  tau( 123) = (  0.6666666  0.3333334  0.3330541  )
       124           Ga  tau( 124) = (  0.6666666  0.3333334  0.6663874  )
       125           Ga  tau( 125) = (  0.6666666  0.3333334  0.9997208  )
       126           Ga  tau( 126) = (  0.6666666  0.5333334  0.3330541  )
       127           Ga  tau( 127) = (  0.6666666  0.5333334  0.6663874  )
       128           Ga  tau( 128) = (  0.6666666  0.5333334  0.9997208  )
       129           Ga  tau( 129) = (  0.6666666  0.7333334  0.3330541  )
       130           Ga  tau( 130) = (  0.6666666  0.7333334  0.6663874  )
       131           Ga  tau( 131) = (  0.6666666  0.7333334  0.9997208  )
       132           Ga  tau( 132) = (  0.6666666  0.9333334  0.3330541  )
       133           Ga  tau( 133) = (  0.6666666  0.9333334  0.6663874  )
       134           Ga  tau( 134) = (  0.6666666  0.9333334  0.9997208  )
       135           Ga  tau( 135) = (  0.8666666  0.1333334  0.3330541  )
       136           Ga  tau( 136) = (  0.8666666  0.1333334  0.6663874  )
       137           Ga  tau( 137) = (  0.8666666  0.1333334  0.9997208  )
       138           Ga  tau( 138) = (  0.8666666  0.3333334  0.3330541  )
       139           Ga  tau( 139) = (  0.8666666  0.3333334  0.6663874  )
       140           Ga  tau( 140) = (  0.8666666  0.3333334  0.9997208  )
       141           Ga  tau( 141) = (  0.8666666  0.5333334  0.3330541  )
       142           Ga  tau( 142) = (  0.8666666  0.5333334  0.6663874  )
       143           Ga  tau( 143) = (  0.8666666  0.5333334  0.9997208  )
       144           Ga  tau( 144) = (  0.8666666  0.7333334  0.3330541  )
       145           Ga  tau( 145) = (  0.8666666  0.7333334  0.6663874  )
       146           Ga  tau( 146) = (  0.8666666  0.7333334  0.9997208  )
       147           Ga  tau( 147) = (  0.8666666  0.9333334  0.3330541  )
       148           Ga  tau( 148) = (  0.8666666  0.9333334  0.6663874  )
       149           Ga  tau( 149) = (  0.8666666  0.9333334  0.9997208  )
       150           N   tau( 150) = (  0.1333334  0.0666666  0.2919459  )
       151           N   tau( 151) = (  0.1333334  0.0666666  0.6252792  )
       152           N   tau( 152) = (  0.1333334  0.0666666  0.9586126  )
       153           N   tau( 153) = (  0.1333334  0.2666666  0.2919459  )
       154           N   tau( 154) = (  0.1333334  0.2666666  0.6252792  )
       155           N   tau( 155) = (  0.1333334  0.2666666  0.9586126  )
       156           N   tau( 156) = (  0.1333334  0.4666666  0.2919459  )
       157           N   tau( 157) = (  0.1333334  0.4666666  0.6252792  )
       158           N   tau( 158) = (  0.1333334  0.4666666  0.9586126  )
       159           N   tau( 159) = (  0.1333334  0.6666666  0.2919459  )
       160           N   tau( 160) = (  0.1333334  0.6666666  0.6252792  )
       161           N   tau( 161) = (  0.1333334  0.6666666  0.9586126  )
       162           N   tau( 162) = (  0.1333334  0.8666666  0.2919459  )
       163           N   tau( 163) = (  0.1333334  0.8666666  0.6252792  )
       164           N   tau( 164) = (  0.1333334  0.8666666  0.9586126  )
       165           N   tau( 165) = (  0.3333334  0.0666666  0.2919459  )
       166           N   tau( 166) = (  0.3333334  0.0666666  0.6252792  )
       167           N   tau( 167) = (  0.3333334  0.0666666  0.9586126  )
       168           N   tau( 168) = (  0.3333334  0.2666666  0.2919459  )
       169           N   tau( 169) = (  0.3333334  0.2666666  0.6252792  )
       170           N   tau( 170) = (  0.3333334  0.2666666  0.9586126  )
       171           N   tau( 171) = (  0.3333334  0.4666666  0.2919459  )
       172           N   tau( 172) = (  0.3333334  0.4666666  0.6252792  )
       173           N   tau( 173) = (  0.3333334  0.4666666  0.9586126  )
       174           N   tau( 174) = (  0.3333334  0.6666666  0.2919459  )
       175           N   tau( 175) = (  0.3333334  0.6666666  0.6252792  )
       176           N   tau( 176) = (  0.3333334  0.6666666  0.9586126  )
       177           N   tau( 177) = (  0.3333334  0.8666666  0.2919459  )
       178           N   tau( 178) = (  0.3333334  0.8666666  0.6252792  )
       179           N   tau( 179) = (  0.3333334  0.8666666  0.9586126  )
       180           N   tau( 180) = (  0.5333334  0.0666666  0.2919459  )
       181           N   tau( 181) = (  0.5333334  0.0666666  0.6252792  )
       182           N   tau( 182) = (  0.5333334  0.0666666  0.9586126  )
       183           N   tau( 183) = (  0.5333334  0.2666666  0.2919459  )
       184           N   tau( 184) = (  0.5333334  0.2666666  0.6252792  )
       185           N   tau( 185) = (  0.5333334  0.2666666  0.9586126  )
       186           N   tau( 186) = (  0.5333334  0.4666666  0.2919459  )
       187           N   tau( 187) = (  0.5333334  0.4666666  0.6252792  )
       188           N   tau( 188) = (  0.5333334  0.4666666  0.9586126  )
       189           N   tau( 189) = (  0.5333334  0.6666666  0.2919459  )
       190           N   tau( 190) = (  0.5333334  0.6666666  0.6252792  )
       191           N   tau( 191) = (  0.5333334  0.6666666  0.9586126  )
       192           N   tau( 192) = (  0.5333334  0.8666666  0.2919459  )
       193           N   tau( 193) = (  0.5333334  0.8666666  0.6252792  )
       194           N   tau( 194) = (  0.5333334  0.8666666  0.9586126  )
       195           N   tau( 195) = (  0.7333334  0.0666666  0.2919459  )
       196           N   tau( 196) = (  0.7333334  0.0666666  0.6252792  )
       197           N   tau( 197) = (  0.7333334  0.0666666  0.9586126  )
       198           N   tau( 198) = (  0.7333334  0.2666666  0.2919459  )
       199           N   tau( 199) = (  0.7333334  0.2666666  0.6252792  )
       200           N   tau( 200) = (  0.7333334  0.2666666  0.9586126  )
       201           N   tau( 201) = (  0.7333334  0.4666666  0.2919459  )
       202           N   tau( 202) = (  0.7333334  0.4666666  0.6252792  )
       203           N   tau( 203) = (  0.7333334  0.4666666  0.9586126  )
       204           N   tau( 204) = (  0.7333334  0.6666666  0.2919459  )
       205           N   tau( 205) = (  0.7333334  0.6666666  0.6252792  )
       206           N   tau( 206) = (  0.7333334  0.6666666  0.9586126  )
       207           N   tau( 207) = (  0.7333334  0.8666666  0.2919459  )
       208           N   tau( 208) = (  0.7333334  0.8666666  0.6252792  )
       209           N   tau( 209) = (  0.7333334  0.8666666  0.9586126  )
       210           N   tau( 210) = (  0.9333334  0.0666666  0.2919459  )
       211           N   tau( 211) = (  0.9333334  0.0666666  0.6252792  )
       212           N   tau( 212) = (  0.9333334  0.0666666  0.9586126  )
       213           N   tau( 213) = (  0.9333334  0.2666666  0.2919459  )
       214           N   tau( 214) = (  0.9333334  0.2666666  0.6252792  )
       215           N   tau( 215) = (  0.9333334  0.2666666  0.9586126  )
       216           N   tau( 216) = (  0.9333334  0.4666666  0.2919459  )
       217           N   tau( 217) = (  0.9333334  0.4666666  0.6252792  )
       218           N   tau( 218) = (  0.9333334  0.4666666  0.9586126  )
       219           N   tau( 219) = (  0.9333334  0.6666666  0.2919459  )
       220           N   tau( 220) = (  0.9333334  0.6666666  0.6252792  )
       221           N   tau( 221) = (  0.9333334  0.6666666  0.9586126  )
       222           N   tau( 222) = (  0.9333334  0.8666666  0.2919459  )
       223           N   tau( 223) = (  0.9333334  0.8666666  0.6252792  )
       224           N   tau( 224) = (  0.9333334  0.8666666  0.9586126  )
       225           N   tau( 225) = (  0.0666666  0.1333334  0.1252792  )
       226           N   tau( 226) = (  0.0666666  0.1333334  0.4586126  )
       227           N   tau( 227) = (  0.0666666  0.1333334  0.7919459  )
       228           N   tau( 228) = (  0.0666666  0.3333334  0.1252792  )
       229           N   tau( 229) = (  0.0666666  0.3333334  0.4586126  )
       230           N   tau( 230) = (  0.0666666  0.3333334  0.7919459  )
       231           N   tau( 231) = (  0.0666666  0.5333334  0.1252792  )
       232           N   tau( 232) = (  0.0666666  0.5333334  0.4586126  )
       233           N   tau( 233) = (  0.0666666  0.5333334  0.7919459  )
       234           N   tau( 234) = (  0.0666666  0.7333334  0.1252792  )
       235           N   tau( 235) = (  0.0666666  0.7333334  0.4586126  )
       236           N   tau( 236) = (  0.0666666  0.7333334  0.7919459  )
       237           N   tau( 237) = (  0.0666666  0.9333334  0.1252792  )
       238           N   tau( 238) = (  0.0666666  0.9333334  0.4586126  )
       239           N   tau( 239) = (  0.0666666  0.9333334  0.7919459  )
       240           N   tau( 240) = (  0.2666666  0.1333334  0.1252792  )
       241           N   tau( 241) = (  0.2666666  0.1333334  0.4586126  )
       242           N   tau( 242) = (  0.2666666  0.1333334  0.7919459  )
       243           N   tau( 243) = (  0.2666666  0.3333334  0.1252792  )
       244           N   tau( 244) = (  0.2666666  0.3333334  0.4586126  )
       245           N   tau( 245) = (  0.2666666  0.3333334  0.7919459  )
       246           N   tau( 246) = (  0.2666666  0.5333334  0.1252792  )
       247           N   tau( 247) = (  0.2666666  0.5333334  0.4586126  )
       248           N   tau( 248) = (  0.2666666  0.5333334  0.7919459  )
       249           N   tau( 249) = (  0.2666666  0.7333334  0.1252792  )
       250           N   tau( 250) = (  0.2666666  0.7333334  0.4586126  )
       251           N   tau( 251) = (  0.2666666  0.7333334  0.7919459  )
       252           N   tau( 252) = (  0.2666666  0.9333334  0.1252792  )
       253           N   tau( 253) = (  0.2666666  0.9333334  0.4586126  )
       254           N   tau( 254) = (  0.2666666  0.9333334  0.7919459  )
       255           N   tau( 255) = (  0.4666666  0.1333334  0.1252792  )
       256           N   tau( 256) = (  0.4666666  0.1333334  0.4586126  )
       257           N   tau( 257) = (  0.4666666  0.1333334  0.7919459  )
       258           N   tau( 258) = (  0.4666666  0.3333334  0.1252792  )
       259           N   tau( 259) = (  0.4666666  0.3333334  0.4586126  )
       260           N   tau( 260) = (  0.4666666  0.3333334  0.7919459  )
       261           N   tau( 261) = (  0.4666666  0.5333334  0.1252792  )
       262           N   tau( 262) = (  0.4666666  0.5333334  0.4586126  )
       263           N   tau( 263) = (  0.4666666  0.5333334  0.7919459  )
       264           N   tau( 264) = (  0.4666666  0.7333334  0.1252792  )
       265           N   tau( 265) = (  0.4666666  0.7333334  0.4586126  )
       266           N   tau( 266) = (  0.4666666  0.7333334  0.7919459  )
       267           N   tau( 267) = (  0.4666666  0.9333334  0.1252792  )
       268           N   tau( 268) = (  0.4666666  0.9333334  0.4586126  )
       269           N   tau( 269) = (  0.4666666  0.9333334  0.7919459  )
       270           N   tau( 270) = (  0.6666666  0.1333334  0.1252792  )
       271           N   tau( 271) = (  0.6666666  0.1333334  0.4586126  )
       272           N   tau( 272) = (  0.6666666  0.1333334  0.7919459  )
       273           N   tau( 273) = (  0.6666666  0.3333334  0.1252792  )
       274           N   tau( 274) = (  0.6666666  0.3333334  0.4586126  )
       275           N   tau( 275) = (  0.6666666  0.3333334  0.7919459  )
       276           N   tau( 276) = (  0.6666666  0.5333334  0.1252792  )
       277           N   tau( 277) = (  0.6666666  0.5333334  0.4586126  )
       278           N   tau( 278) = (  0.6666666  0.5333334  0.7919459  )
       279           N   tau( 279) = (  0.6666666  0.7333334  0.1252792  )
       280           N   tau( 280) = (  0.6666666  0.7333334  0.4586126  )
       281           N   tau( 281) = (  0.6666666  0.7333334  0.7919459  )
       282           N   tau( 282) = (  0.6666666  0.9333334  0.1252792  )
       283           N   tau( 283) = (  0.6666666  0.9333334  0.4586126  )
       284           N   tau( 284) = (  0.6666666  0.9333334  0.7919459  )
       285           N   tau( 285) = (  0.8666666  0.1333334  0.1252792  )
       286           N   tau( 286) = (  0.8666666  0.1333334  0.4586126  )
       287           N   tau( 287) = (  0.8666666  0.1333334  0.7919459  )
       288           N   tau( 288) = (  0.8666666  0.3333334  0.1252792  )
       289           N   tau( 289) = (  0.8666666  0.3333334  0.4586126  )
       290           N   tau( 290) = (  0.8666666  0.3333334  0.7919459  )
       291           N   tau( 291) = (  0.8666666  0.5333334  0.1252792  )
       292           N   tau( 292) = (  0.8666666  0.5333334  0.4586126  )
       293           N   tau( 293) = (  0.8666666  0.5333334  0.7919459  )
       294           N   tau( 294) = (  0.8666666  0.7333334  0.1252792  )
       295           N   tau( 295) = (  0.8666666  0.7333334  0.4586126  )
       296           N   tau( 296) = (  0.8666666  0.7333334  0.7919459  )
       297           N   tau( 297) = (  0.8666666  0.9333334  0.1252792  )
       298           N   tau( 298) = (  0.8666666  0.9333334  0.4586126  )
       299           N   tau( 299) = (  0.8666666  0.9333334  0.7919459  )
       300           N   tau( 300) = (  0.1333334  0.0666666  0.1663874  )

     number of k points=     6  Gaussian smearing, width (Ry)=  0.0100
                       cart. coord. in units 2pi/alat
        k(    1) = (   0.0000000   0.0000000   0.0000000), wk =   0.2500000
        k(    2) = (   0.0000000   0.0000000  -0.5112854), wk =   0.2500000
        k(    3) = (   0.0000000  -0.5773503   0.0000000), wk =   0.5000000
        k(    4) = (   0.0000000  -0.5773503  -0.5112854), wk =   0.5000000
        k(    5) = (  -0.5000000  -0.2886751   0.0000000), wk =   0.2500000
        k(    6) = (  -0.5000000  -0.2886751  -0.5112854), wk =   0.2500000

                       cryst. coord.
        k(    1) = (   0.0000000   0.0000000   0.0000000), wk =   0.2500000
        k(    2) = (   0.0000000   0.0000000  -0.5000000), wk =   0.2500000
        k(    3) = (   0.0000000  -0.5000000   0.0000000), wk =   0.5000000
        k(    4) = (   0.0000000  -0.5000000  -0.5000000), wk =   0.5000000
        k(    5) = (  -0.5000000  -0.0000000   0.0000000), wk =   0.2500000
        k(    6) = (  -0.5000000  -0.0000000  -0.5000000), wk =   0.2500000

     Dense  grid:  2698283 G-vectors     FFT dimensions: ( 192, 192, 180)

     Smooth grid:  1930731 G-vectors     FFT dimensions: ( 180, 180, 160)

     Dynamical RAM for                 wfc:      99.18 MB

     Dynamical RAM for     wfc (w. buffer):     297.53 MB

     Dynamical RAM for           str. fact:       1.37 MB

     Dynamical RAM for           local pot:       0.00 MB

     Dynamical RAM for          nlocal pot:     238.73 MB

     Dynamical RAM for                qrad:       3.00 MB

     Dynamical RAM for          rho,v,vnew:       4.59 MB

     Dynamical RAM for               rhoin:       1.53 MB

     Dynamical RAM for            rho*nmix:      10.98 MB

     Dynamical RAM for           G-vectors:       2.82 MB

     Dynamical RAM for          h,s,v(r/c):    1912.69 MB

     Dynamical RAM for          <psi|beta>:      95.92 MB

     Dynamical RAM for                 psi:     396.70 MB

     Dynamical RAM for                hpsi:     396.70 MB

     Dynamical RAM for                spsi:     396.70 MB

     Dynamical RAM for      wfcinit/wfcrot:     258.13 MB

     Dynamical RAM for           addusdens:      77.54 MB

     Dynamical RAM for          addusforce:     146.63 MB

     Dynamical RAM for         addusstress:      46.20 MB

     Estimated static dynamical RAM per process >     555.85 MB

     Estimated max dynamical RAM per process >       3.68 GB

     Estimated total dynamical RAM >     660.62 GB

     Atomic positions and unit cell read from directory:
     ./GaN.save/
     Atomic positions from file used, from input discarded
 

     Check: negative core charge=   -0.000003

     The initial density is read from file :
     ./GaN.save/charge-density



     %%%%%%%%%%%%%%%%%%%%%%%%%%%%%%%%%%%%%%%%%%%%%%%%%%%%%%%%%%%%%%%%%%%%%%%%
     %                                                                      %
     % You are using vdW-DF, which was implemented by the Thonhauser group. %
     % Please cite the following two papers that made this development      %
     % possible and the two reviews that describe the various versions:     %
     %                                                                      %
     %   T. Thonhauser et al., PRL 115, 136402 (2015).                      %
     %   T. Thonhauser et al., PRB 76, 125112 (2007).                       %
     %   K. Berland et al., Rep. Prog. Phys. 78, 066501 (2015).             %
     %   D.C. Langreth et al., J. Phys.: Condens. Matter 21, 084203 (2009). %
     %                                                                      %
     % If you are calculating stress with vdW-DF, please also cite:         %
     %                                                                      %
     %   R. Sabatini et al., J. Phys.: Condens. Matter 24, 424209 (2012).   %
     %                                                                      %
     %%%%%%%%%%%%%%%%%%%%%%%%%%%%%%%%%%%%%%%%%%%%%%%%%%%%%%%%%%%%%%%%%%%%%%%%

     %%%%%%%%%%%%%%%%%%%%%%%%%%%%%%%%%%%%%%%%%%%%%%%%%%%%%%%%%%%%%%%%%%%%%%%%
     %                                                                      %
     %  vdW-DF NEWS:                                                        %
     %                                                                      %
     %  * vdW-DF3 is now available. DOI: 10.1021/acs.jctc.0c00471           %
     %    use with input_dft = 'vdW-DF3-opt1' or 'vdW-DF3-opt2'             %
     %                                                                      %
     %  * Unscreened and range-separated vdW-DF hybrid functionals          %
     %    DOI: 10.1063/1.4986522 and 10.1088/1361-648X/ac2ad2               %
     %    use with input_dft = 'vdW-DF-cx0' (etc) and 'vdW-DF-ahcx'         %
     %                                                                      %
     %%%%%%%%%%%%%%%%%%%%%%%%%%%%%%%%%%%%%%%%%%%%%%%%%%%%%%%%%%%%%%%%%%%%%%%%


     Carrying out vdW-DF run using the following parameters:
     Nqs    =  20  Npoints =  1024  r_max =  100.000
     q_mesh =  0.00001000  0.04494208  0.09755937  0.15916263
               0.23128650  0.31572767  0.41458969  0.53033537
               0.66584808  0.82450364  1.01025438  1.22772762
               1.48234092  1.78043706  2.12944203  2.53805004
               3.01644009  3.57652955  4.23227104  5.00000000


     -----------------------------------------------
     Non-local corr. energy    =      81.32644113 Ry
     -----------------------------------------------

     Starting wfcs from file
     Checking if some PAW data can be deallocated... 
       PAW data deallocated on  105 nodes for type:  1
       PAW data deallocated on   74 nodes for type:  2
     Calculation restarted from scf iteration #     3

     total cpu time spent up to now is        7.8 secs

     Self-consistent Calculation

     iteration #  3     ecut=    70.00 Ry     beta= 0.70
     Calculation restarted from end of k-point loop
     Davidson diagonalization with overlap

---- Real-time Memory Report at c_bands before calling an iterative solver
           547 MiB given to the printing process from OS
             0 MiB allocation reported by mallinfo(arena+hblkhd)
       1801808 MiB available memory on the node where the printing process lives
------------------
     ethr =  2.96E-09,  avg # of iterations = 16.3


     -----------------------------------------------
     Non-local corr. energy    =      81.32644769 Ry
     -----------------------------------------------


     total cpu time spent up to now is       39.0 secs

     total energy              =  -46587.77639431 Ry
     estimated scf accuracy    <       0.00006442 Ry

     iteration #  4     ecut=    70.00 Ry     beta= 0.70
     Davidson diagonalization with overlap

---- Real-time Memory Report at c_bands before calling an iterative solver
           894 MiB given to the printing process from OS
             0 MiB allocation reported by mallinfo(arena+hblkhd)
       1741804 MiB available memory on the node where the printing process lives
------------------
     ethr =  2.39E-09,  avg # of iterations = 16.5


     -----------------------------------------------
     Non-local corr. energy    =      81.32645100 Ry
     -----------------------------------------------


     total cpu time spent up to now is     2080.4 secs

     total energy              =  -46587.77640184 Ry
     estimated scf accuracy    <       0.00002815 Ry

     iteration #  5     ecut=    70.00 Ry     beta= 0.70
     Davidson diagonalization with overlap

---- Real-time Memory Report at c_bands before calling an iterative solver
          2722 MiB given to the printing process from OS
             0 MiB allocation reported by mallinfo(arena+hblkhd)
       1727429 MiB available memory on the node where the printing process lives
------------------
     ethr =  1.05E-09,  avg # of iterations =  5.0


     -----------------------------------------------
     Non-local corr. energy    =      81.32645325 Ry
     -----------------------------------------------


     total cpu time spent up to now is     2643.9 secs

     total energy              =  -46587.77640569 Ry
     estimated scf accuracy    <       0.00002011 Ry

     iteration #  6     ecut=    70.00 Ry     beta= 0.70
     Davidson diagonalization with overlap

---- Real-time Memory Report at c_bands before calling an iterative solver
          2722 MiB given to the printing process from OS
             0 MiB allocation reported by mallinfo(arena+hblkhd)
       1727261 MiB available memory on the node where the printing process lives
------------------
     ethr =  7.47E-10,  avg # of iterations =  3.8


     -----------------------------------------------
     Non-local corr. energy    =      81.32645683 Ry
     -----------------------------------------------


     total cpu time spent up to now is     3105.5 secs

     total energy              =  -46587.77640804 Ry
     estimated scf accuracy    <       0.00000808 Ry

     iteration #  7     ecut=    70.00 Ry     beta= 0.70
     Davidson diagonalization with overlap

---- Real-time Memory Report at c_bands before calling an iterative solver
          2722 MiB given to the printing process from OS
             0 MiB allocation reported by mallinfo(arena+hblkhd)
       1725805 MiB available memory on the node where the printing process lives
------------------
     ethr =  3.00E-10,  avg # of iterations = 15.7


     -----------------------------------------------
     Non-local corr. energy    =      81.32645834 Ry
     -----------------------------------------------


     total cpu time spent up to now is     4546.3 secs

     total energy              =  -46587.77640840 Ry
     estimated scf accuracy    <       0.00000083 Ry

     iteration #  8     ecut=    70.00 Ry     beta= 0.70
     Davidson diagonalization with overlap

---- Real-time Memory Report at c_bands before calling an iterative solver
          2722 MiB given to the printing process from OS
             0 MiB allocation reported by mallinfo(arena+hblkhd)
       1726272 MiB available memory on the node where the printing process lives
------------------
     ethr =  3.07E-11,  avg # of iterations = 13.5


     -----------------------------------------------
     Non-local corr. energy    =      81.32647342 Ry
     -----------------------------------------------


     total cpu time spent up to now is     7694.7 secs

     End of self-consistent calculation

          k = 0.0000 0.0000 0.0000 (241213 PWs)   bands (ev):

    -9.5810  -6.8810  -6.7013  -6.6797  -6.6737  -6.6725  -6.6563  -6.6494
    -6.6492  -6.6455  -6.5866  -6.5712  -6.5694  -6.5424  -6.5242  -6.5224
    -6.5222  -6.5196  -6.5190  -6.5188  -6.5125  -6.5125  -6.4916  -6.4915
    -6.4845  -6.4758  -6.4610  -6.4610  -6.4602  -6.4591  -6.4575  -6.4569
    -6.4513  -6.4469  -6.4449  -6.4446  -6.4441  -6.4439  -6.4335  -6.4218
    -6.4169  -6.4166  -6.4163  -6.4156  -6.4092  -6.4091  -6.4086  -6.4071
    -6.4068  -6.4048  -6.4044  -6.4041  -6.4025  -6.4022  -6.4002  -6.4000
    -6.3997  -6.3985  -6.3980  -6.3967  -6.3963  -6.3960  -6.3959  -6.3943
    -6.3941  -6.3939  -6.3938  -6.3928  -6.3927  -6.3898  -6.3888  -6.3882
    -6.3881  -6.3857  -6.3852  -6.3852  -6.3846  -6.3823  -6.3823  -6.3815
    -6.3812  -6.3808  -6.3804  -6.3789  -6.3782  -6.3778  -6.3776  -6.3758
    -6.3757  -6.3751  -6.3738  -6.3714  -6.3694  -6.3691  -6.3675  -6.3673
    -6.3670  -6.3648  -6.3643  -6.3638  -6.3629  -6.3623  -6.3618  -6.3598
    -6.3594  -6.3580  -6.3577  -6.3577  -6.3573  -6.3571  -6.3564  -6.3561
    -6.3559  -6.3542  -6.3542  -6.3537  -6.3531  -6.3509  -6.3504  -6.3490
    -6.3483  -6.3479  -6.3467  -6.3467  -6.3456  -6.3426  -6.3426  -6.3422
    -6.3416  -6.3373  -6.3371  -6.3365  -6.3324  -6.3321  -6.3288  -6.3284
    -6.3245  -6.3182  -6.3174  -6.3111  -6.3094  -6.3031  -6.3022  -6.2963
    -6.2942  -6.2380  -6.1680  -6.1617  -6.1599  -5.7625  -5.5257  -5.4491
    -5.4485  -5.4398  -5.4318  -5.4311  -5.4267  -5.4112  -5.4107  -5.3886
    -5.3883  -5.3876  -5.3868  -5.3868  -5.3848  -5.3697  -5.3647  -5.3597
    -5.3596  -5.3493  -5.3492  -5.3434  -5.3434  -5.3384  -5.3328  -5.3270
    -5.3264  -5.3219  -5.3216  -5.3203  -5.3128  -5.3118  -5.3117  -5.3111
    -5.3056  -5.3056  -5.2987  -5.2983  -5.2982  -5.2947  -5.2945  -5.2916
    -5.2914  -5.2901  -5.2890  -5.2889  -5.2877  -5.2869  -5.2869  -5.2860
    -5.2855  -5.2854  -5.2800  -5.2794  -5.2783  -5.2782  -5.2766  -5.2766
    -5.2763  -5.2736  -5.2736  -5.2724  -5.2720  -5.2719  -5.2706  -5.2705
    -5.2705  -5.2688  -5.2686  -5.2684  -5.2675  -5.2675  -5.2660  -5.2653
    -5.2643  -5.2641  -5.2641  -5.2635  -5.2622  -5.2622  -5.2607  -5.2606
    -5.2600  -5.2600  -5.2600  -5.2599  -5.2590  -5.2589  -5.2576  -5.2565
    -5.2564  -5.2554  -5.2554  -5.2535  -5.2535  -5.2529  -5.2503  -5.2503
    -5.2497  -5.2497  -5.2495  -5.2477  -5.2477  -5.2476  -5.2466  -5.2448
    -5.2445  -5.2437  -5.2437  -5.2431  -5.2419  -5.2419  -5.2414  -5.2409
    -5.2408  -5.2403  -5.2389  -5.2389  -5.2389  -5.2387  -5.2386  -5.2378
    -5.2374  -5.2374  -5.2366  -5.2362  -5.2362  -5.2351  -5.2351  -5.2348
    -5.2341  -5.2341  -5.2337  -5.2324  -5.2323  -5.2319  -5.2314  -5.2313
    -5.2307  -5.2299  -5.2298  -5.2287  -5.2284  -5.2282  -5.2267  -5.2266
    -5.2265  -5.2259  -5.2250  -5.2250  -5.2241  -5.2241  -5.2234  -5.2230
    -5.2222  -5.2222  -5.2215  -5.2215  -5.2215  -5.2199  -5.2198  -5.2192
    -5.2184  -5.2183  -5.2182  -5.2172  -5.2171  -5.2154  -5.2154  -5.2150
    -5.2147  -5.2147  -5.2131  -5.2121  -5.2121  -5.2120  -5.2117  -5.2116
    -5.2113  -5.2099  -5.2094  -5.2094  -5.2079  -5.2076  -5.2075  -5.2073
    -5.2065  -5.2064  -5.2042  -5.2041  -5.2034  -5.2034  -5.2033  -5.2015
    -5.2015  -5.2013  -5.2013  -5.2012  -5.2011  -5.1987  -5.1986  -5.1976
    -5.1976  -5.1973  -5.1965  -5.1957  -5.1957  -5.1940  -5.1940  -5.1925
    -5.1923  -5.1922  -5.1911  -5.1904  -5.1903  -5.1900  -5.1885  -5.1883
    -5.1882  -5.1865  -5.1864  -5.1839  -5.1838  -5.1838  -5.1829  -5.1821
    -5.1821  -5.1816  -5.1808  -5.1808  -5.1774  -5.1766  -5.1766  -5.1751
    -5.1749  -5.1746  -5.1745  -5.1727  -5.1727  -5.1714  -5.1714  -5.1708
    -5.1707  -5.1679  -5.1678  -5.1671  -5.1669  -5.1652  -5.1652  -5.1647
    -5.1646  -5.1646  -5.1606  -5.1605  -5.1601  -5.1597  -5.1590  -5.1589
    -5.1571  -5.1569  -5.1569  -5.1556  -5.1556  -5.1534  -5.1526  -5.1526
    -5.1525  -5.1513  -5.1511  -5.1504  -5.1494  -5.1494  -5.1491  -5.1486
    -5.1486  -5.1473  -5.1469  -5.1463  -5.1463  -5.1459  -5.1457  -5.1448
    -5.1441  -5.1433  -5.1433  -5.1427  -5.1420  -5.1419  -5.1415  -5.1409
    -5.1406  -5.1406  -5.1395  -5.1389  -5.1388  -5.1377  -5.1377  -5.1374
    -5.1373  -5.1364  -5.1364  -5.1360  -5.1353  -5.1350  -5.1345  -5.1328
    -5.1328  -5.1317  -5.1317  -5.1313  -5.1312  -5.1312  -5.1307  -5.1299
    -5.1295  -5.1295  -5.1277  -5.1275  -5.1268  -5.1262  -5.1258  -5.1258
    -5.1253  -5.1253  -5.1242  -5.1242  -5.1238  -5.1238  -5.1231  -5.1227
    -5.1227  -5.1214  -5.1213  -5.1203  -5.1202  -5.1202  -5.1196  -5.1196
    -5.1194  -5.1194  -5.1187  -5.1181  -5.1181  -5.1180  -5.1173  -5.1172
    -5.1161  -5.1159  -5.1150  -5.1150  -5.1147  -5.1146  -5.1130  -5.1126
    -5.1124  -5.1124  -5.1121  -5.1121  -5.1116  -5.1108  -5.1108  -5.1107
    -5.1094  -5.1093  -5.1090  -5.1084  -5.1080  -5.1073  -5.1072  -5.1062
    -5.1062  -5.1055  -5.1054  -5.1054  -5.1040  -5.1040  -5.1039  -5.1037
    -5.1032  -5.1028  -5.1027  -5.1021  -5.1021  -5.1010  -5.1008  -5.1007
    -5.1005  -5.1000  -5.0998  -5.0997  -5.0985  -5.0984  -5.0978  -5.0965
    -5.0965  -5.0961  -5.0960  -5.0959  -5.0942  -5.0942  -5.0938  -5.0938
    -5.0927  -5.0926  -5.0926  -5.0910  -5.0903  -5.0902  -5.0901  -5.0901
    -5.0895  -5.0895  -5.0895  -5.0883  -5.0881  -5.0881  -5.0857  -5.0857
    -5.0847  -5.0839  -5.0829  -5.0828  -5.0819  -5.0819  -5.0811  -5.0810
    -5.0806  -5.0806  -5.0789  -5.0779  -5.0779  -5.0772  -5.0771  -5.0771
    -5.0764  -5.0764  -5.0752  -5.0752  -5.0746  -5.0746  -5.0746  -5.0742
    -5.0733  -5.0733  -5.0724  -5.0718  -5.0717  -5.0708  -5.0707  -5.0703
    -5.0695  -5.0694  -5.0694  -5.0680  -5.0680  -5.0678  -5.0676  -5.0664
    -5.0664  -5.0663  -5.0650  -5.0650  -5.0644  -5.0643  -5.0643  -5.0635
    -5.0627  -5.0627  -5.0621  -5.0621  -5.0613  -5.0611  -5.0610  -5.0592
    -5.0590  -5.0589  -5.0584  -5.0578  -5.0578  -5.0571  -5.0571  -5.0568
    -5.0563  -5.0563  -5.0554  -5.0554  -5.0554  -5.0550  -5.0543  -5.0542
    -5.0539  -5.0538  -5.0520  -5.0520  -5.0510  -5.0510  -5.0503  -5.0487
    -5.0486  -5.0482  -5.0462  -5.0460  -5.0459  -5.0438  -5.0438  -5.0437
    -5.0417  -5.0416  -5.0415  -5.0405  -5.0402  -5.0402  -5.0394  -5.0392
    -5.0392  -5.0387  -5.0386  -5.0386  -5.0371  -5.0369  -5.0359  -5.0359
    -5.0348  -5.0347  -5.0334  -5.0331  -5.0327  -5.0326  -5.0311  -5.0311
    -5.0298  -5.0297  -5.0293  -5.0278  -5.0274  -5.0273  -5.0273  -5.0262
    -5.0260  -5.0257  -5.0257  -5.0247  -5.0241  -5.0222  -5.0222  -5.0214
    -5.0193  -5.0192  -5.0181  -5.0180  -5.0157  -5.0154  -5.0154  -5.0154
    -5.0133  -5.0133  -5.0103  -5.0102  -5.0080  -5.0076  -5.0075  -5.0066
    -5.0024  -5.0024  -4.9975  -4.9951  -4.9951  -4.9867  -4.9865  -4.9862
    -4.9826  -4.9772  -4.9770  -4.9769  -4.9715  -4.9660  -4.9660  -4.9638
    -4.9564  -4.9563  -4.9474  -4.9473  -4.9352  -4.9351  -4.9210  -4.9158
    -4.9156  -4.9086  -4.9082  -4.8988  -4.8986  -4.8639  -4.8474  -4.8472
    -4.8209  -4.8208  -4.8207  -4.8167  -4.8166  -4.8103  -4.8042  -4.8040
    -4.8039  -4.7745  -4.7744  -4.7711  -4.7400  -4.7399  -4.7267  -4.7265
    -4.6527  -4.6418  -4.6418  -4.6160  -4.5948  -4.5826  -4.5826  -4.5188
    -4.5164  -4.3599  -4.3596  -4.3480  -4.3257  -4.2994  -4.2792  -4.2784
    -4.2778  -4.1257  -4.1253  -4.1133  -4.1033  -4.1031  -4.1010  -4.1008
    -4.0967  -4.0946  -4.0691  -4.0689  -4.0637  -4.0546  -4.0413  -4.0411
    -3.9924  -3.9924  -3.9918  -3.9840  -3.9829  -3.9828  -3.9790  -3.9761
    -3.9760  -3.9599  -3.9598  -3.9253  -3.9251  -3.8986  -3.8686  -3.8588
    -3.8464  -3.8463  -3.8356  -3.8333  -3.8331  -3.8169  -3.8168  -3.7842
    -3.6843  -3.6834  -3.5728  -3.5255  -3.4343  -3.4339  -3.4336  -3.4263
    -3.4263  -3.4208  -3.4206  -3.4153  -3.4133  -3.4132  -3.4109  -3.4095
    -3.4093  -3.4091  -3.3885  -3.3638  -3.3636  -3.3497  -3.3262  -3.3261
    -3.3158  -3.3145  -3.3144  -3.3119  -3.3118  -3.3114  -3.3011  -3.3010
    -3.2995  -3.2995  -3.2966  -3.2944  -3.2941  -3.2858  -3.2836  -3.2836
    -3.2798  -3.2787  -3.2787  -3.2775  -3.2774  -3.2516  -3.2516  -3.2443
    -3.1707  -3.1588  -3.1586  -3.1056  -3.1055  -3.0992  -3.0937  -3.0880
    -3.0880  -3.0661  -3.0660  -3.0657  -2.9846  -2.9730  -2.9729  -2.9694
    -2.9630  -2.9626  -2.9623  -2.9504  -2.9474  -2.9471  -2.9449  -2.9406
    -2.9404  -2.9309  -2.9306  -2.9241  -2.8890  -2.8887  -2.3293  -1.2730
     2.0471   2.2141   2.2153   2.4336   2.5297   2.5305   2.5341   2.5424
     2.5427   2.5803   2.5804   2.5898   2.5933   2.5934   2.5974   2.5979
     2.5982   2.6008   2.6013   2.6026   2.6033   2.6045   2.6046   2.6077
     2.6105   2.6105   2.6147   2.6148   2.6161   2.6245   2.7323   2.7384
     2.7393   2.7631   2.7632   2.7641   2.8070   2.8076   2.8255   2.9240
     2.9257   2.9260   2.9391   2.9394   2.9475   2.9641   2.9643   2.9700
     2.9701   2.9723   2.9838   3.0058   3.0059   3.0200   3.0228   3.0437
     3.0439   3.1017   3.1018   3.1168   3.1170   3.1186   3.1425   3.2067
     3.2068   3.2177   3.2178   3.2181   3.2215   3.2218   3.2298   3.2329
     3.2546   3.2548   3.2565   3.2618   3.2622   3.2630   3.2701   3.2709
     3.2839   3.2918   3.3110   3.3113   3.4880   3.5060   3.5073   3.5796
     3.5924   3.6426   3.6712   3.6714   3.6772   3.6776   3.6780   3.6822
     3.6825   3.6839   3.6924   3.6926   3.7071   3.7071   3.7105   3.7586
     3.7723   3.7724   3.8894   3.9062   3.9072   3.9273   3.9400   3.9402
     3.9582   3.9626   3.9628   3.9636   3.9741   3.9745   3.9747   3.9966
     3.9967   4.0625   4.1840   4.1844   4.4820   4.5069   4.5103   4.5104
     4.5219   4.5312   4.5319   4.5568   4.5658   4.5660   4.5725   4.5862
     4.5868   4.5933   4.6142   4.6149   4.6416   4.6652   4.6654   4.7014
     4.7014   4.7077   4.7978   4.7979   4.9645   4.9646   4.9657   4.9783
     4.9784   4.9794   4.9848   5.0013   5.0014   5.0073   5.1589   5.1598
     5.2380   5.3295   5.4464   5.4465   5.4490   5.4535   5.4537   5.4566
     5.4567   5.4589   5.4606   5.4607   5.4652   5.4752   5.4752   5.5344
     5.5346   5.5429   5.5929   5.6565   5.6661   5.6666   5.6925   5.6930
     5.7573   5.7921   5.8500   5.8503   5.8623   5.8657   5.8657   5.8841
     5.8843   5.8939   5.8960   5.9003   5.9006   5.9097   5.9099   5.9254
     5.9255   5.9317   5.9359   5.9657   5.9695   5.9697   5.9725   5.9729
     5.9766   5.9774   5.9780   5.9782   5.9813   5.9874   5.9932   5.9932
     5.9939   5.9952   6.0010   6.0016   6.0100   6.0122   6.0158   6.0160
     6.0179   6.0234   6.0234   6.0236   6.0260   6.0262   6.0433   6.0433
     6.0617   6.0618   6.0791   6.0796   6.1546   6.1553   6.2203   6.2701
     6.2908   6.2938   6.2945   6.3134   6.3185   6.3196   6.3198   6.3292
     6.3332   6.3334   6.3356   6.3357   6.3561   6.3563   6.4074   6.4075
     6.4303   6.4432   6.4689   6.4690   6.4757   6.5061   6.5062   6.5145
     6.5212   6.5337   6.5338   6.5448   6.5597   6.5600   6.6130   6.6204
     6.6267   6.6269   6.6304   6.6308   6.6336   6.6339   6.6351   6.6388
     6.6390   6.6415   6.6428   6.6434   6.6446   6.6496   6.6504   6.6621
     6.6721   6.6877   6.6878   6.7032   6.7162   6.7163   6.7347   6.7369
     6.7369   6.7557   6.8187   6.8188   6.8371   6.8503   6.8508   6.8509
     6.8546   6.8549   6.8549   6.8882   6.8884   6.8917   7.0181   7.0183
     7.0764   7.0767   7.1005   7.1047   7.1047   7.1099   7.1155   7.1157
     7.1423   7.1769   7.2247   7.2375   7.2377   7.2711   7.2711   7.2724
     7.2746   7.2747   7.2867   7.2868   7.3027   7.3038   7.3158   7.3163
     7.3506   7.3506   7.3604   7.3607   7.3690   7.3719   7.3775   7.3838
     7.3864   7.3865   7.3875   7.3875   7.3882   7.3954   7.3954   7.4011
     7.4045   7.4047   7.4102   7.4103   7.4106   7.4202   7.4204   7.4256
     7.4270   7.4280   7.4286   7.4310   7.4316   7.4343   7.4399   7.4400
     7.4406   7.4411   7.4455   7.4511   7.4517   7.4974   7.4975   7.5111
     7.5355   7.5357   7.5482   7.5484   7.5553   7.5748   7.6151   7.6153
     7.6186   7.6187   7.6202   7.6203   7.6258   7.6295   7.6303   7.6581
     7.6691   7.6692   7.6730   7.6937   7.6938   7.6980   7.7019   7.7021
     7.7026   7.7057   7.7058   7.7306   7.7308   7.8141   7.8146   7.8697
     7.8701   7.8764   7.8777   7.8782   7.9059   7.9601   7.9603   8.0132
     8.0132   8.0415   8.0417   8.0491   8.0534   8.0537   8.0620   8.0658
     8.0659   8.0707   8.0988   8.1405   8.1482   8.1485   8.3045   8.3047
     8.3053   8.3166   8.3166   8.4068   8.4072   8.4123   8.4201   8.4204
     8.4356   8.4789   8.4791   8.5319   8.5320   8.6054   8.7586   8.7587
     8.9940   9.9174  10.2599  11.4999  11.9871  12.0265  12.0274  12.1266
    12.1620  12.1622  12.1785  12.3206  12.5803  12.5824  12.6794  12.8029
    12.8163  12.8587  12.8636  12.8638  12.8778  12.8784  12.8899  12.8976
    12.8976  12.9114  12.9117  12.9182  12.9211  12.9212  12.9241  12.9471
    12.9472  12.9521  12.9550  12.9552  12.9557  13.1312  13.2257  13.3376
    13.3391  13.6329  13.6331  13.6482  13.6555  13.6561  13.6713  13.7362
    13.7363  13.7460  13.7464  13.7553  13.8244  13.8298  13.8304  13.8345
    13.8516  13.8525  13.8613  13.8618  13.8641  13.8708  13.8719  13.8725
    13.8821  13.8823  13.8874  13.8926  13.9213  13.9252  13.9258  13.9567
    13.9572  13.9638  13.9850  13.9855  13.9912  13.9997  14.0068  14.0075
    14.0189  14.0192  14.0285  14.0378  14.0378  14.0404  14.0655  14.0659
    14.0739  14.0745  14.0847  14.0990  14.1015  14.1021  14.1350  14.1462
    14.1464  14.1566  14.1606  14.1607  14.1713  14.1714  14.1742  14.1892
    14.1980  14.1983  14.2088  14.2089  14.2610  14.4223  14.4226  14.4560
    14.4617  14.4759  14.5184  14.5196  14.6228  14.7515  14.7530  14.7672
    14.7966  14.7972  14.8498  14.8502  14.8512  14.8890  14.8935  14.8941
    14.9218  14.9306  14.9381  14.9389  15.0123  15.0127  15.0199  15.0308
    15.0308  15.0781  15.0819  15.0819  15.0930  15.0940  15.1211  15.1212
    15.1246  15.1320  15.1404  15.1411  15.1733  15.2081  15.2147  15.2148
    15.3274  15.3275  15.3396  15.3773  15.3861  15.3869  15.4482  15.4528
    15.4984  15.5541  15.6236  15.6241  15.6808  15.6812  15.7151  15.7200
    15.7607  15.7613  15.7620  15.8041  15.8044  15.8849  15.8852  15.9016
    15.9019  15.9175  15.9316  15.9420  15.9445  15.9451  15.9682  15.9684
    15.9858  15.9858  15.9862  15.9899  16.0394  16.0519  16.0524  16.0746
    16.0747  16.0913  16.0930  16.0936  16.1070  16.1072  16.1113  16.1115
    16.1158  16.1160  16.1162  16.1237  16.1239  16.1268  16.1520  16.1524
    16.1547  16.1554  16.1646  16.1647  16.1802  16.1802  16.1832  16.1973
    16.1977  16.2185  16.2186  16.2267  16.2268  16.2502  16.2767  16.2769
    16.2859  16.2873  16.2873  16.2896  16.3110  16.3112  16.3323  16.3324
    16.3358  16.3403  16.3403  16.3442  16.3547  16.3549  16.3552  16.3564
    16.3573  16.3574  16.3596  16.3598  16.3704  16.3754  16.3755  16.3894
    16.3897  16.4053  16.4055  16.4133  16.4263  16.4329  16.4355  16.4427
    16.4432  16.4476  16.4647  16.4654  16.4873  16.5140  16.5146  16.5162
    16.5421  16.5426  16.5870  16.5879  16.5993  16.5994  16.6208  16.6361

     occupation numbers 
     1.0000   1.0000   1.0000   1.0000   1.0000   1.0000   1.0000   1.0000
     1.0000   1.0000   1.0000   1.0000   1.0000   1.0000   1.0000   1.0000
     1.0000   1.0000   1.0000   1.0000   1.0000   1.0000   1.0000   1.0000
     1.0000   1.0000   1.0000   1.0000   1.0000   1.0000   1.0000   1.0000
     1.0000   1.0000   1.0000   1.0000   1.0000   1.0000   1.0000   1.0000
     1.0000   1.0000   1.0000   1.0000   1.0000   1.0000   1.0000   1.0000
     1.0000   1.0000   1.0000   1.0000   1.0000   1.0000   1.0000   1.0000
     1.0000   1.0000   1.0000   1.0000   1.0000   1.0000   1.0000   1.0000
     1.0000   1.0000   1.0000   1.0000   1.0000   1.0000   1.0000   1.0000
     1.0000   1.0000   1.0000   1.0000   1.0000   1.0000   1.0000   1.0000
     1.0000   1.0000   1.0000   1.0000   1.0000   1.0000   1.0000   1.0000
     1.0000   1.0000   1.0000   1.0000   1.0000   1.0000   1.0000   1.0000
     1.0000   1.0000   1.0000   1.0000   1.0000   1.0000   1.0000   1.0000
     1.0000   1.0000   1.0000   1.0000   1.0000   1.0000   1.0000   1.0000
     1.0000   1.0000   1.0000   1.0000   1.0000   1.0000   1.0000   1.0000
     1.0000   1.0000   1.0000   1.0000   1.0000   1.0000   1.0000   1.0000
     1.0000   1.0000   1.0000   1.0000   1.0000   1.0000   1.0000   1.0000
     1.0000   1.0000   1.0000   1.0000   1.0000   1.0000   1.0000   1.0000
     1.0000   1.0000   1.0000   1.0000   1.0000   1.0000   1.0000   1.0000
     1.0000   1.0000   1.0000   1.0000   1.0000   1.0000   1.0000   1.0000
[...]
Ga           14.5860049062        0.9386081241        7.9524409128
Ga           14.6030533732        0.9389325201       13.1991585033
Ga           13.0003393871        3.7342944496        2.6431611657
Ga           12.9798804686        3.7458962979        7.9224699678
Ga           12.9762819225        3.7479963615       13.2193743853
Ga           11.3570018216        6.5569665882        2.6402403893
Ga           11.3564630944        6.5566555538        7.9234631496
Ga           11.3551649658        6.5559060790       13.2171792437
Ga            9.7341648260        9.3914747361        2.6431611657
Ga            9.7339828621        9.3679558689        7.9224699678
Ga            9.7340022975        9.3637894047       13.2193743853
Ga            8.1385770423       12.2780757374        2.6588046286
Ga            8.1058622066       12.1625445203        7.9524409128
Ga            8.1146673753       12.1771467279       13.1991585033
Ga            0.0171483527        1.8633849241        5.3393846842
Ga            0.0024434656        1.8712241644       10.5361245233
Ga            0.0494894944        1.8464753490       15.7950890791
Ga           -1.6155479846        4.6755067488        5.2796846007
Ga           -1.6274402666        4.6873674337       10.5766565813
Ga           -1.6110927799        4.6666570166       15.8613872999
Ga           -3.2441110225        7.4932188169        5.2751749705
Ga           -3.2447150735        7.4928700679       10.5735003191
Ga           -3.2454445677        7.4924488942       15.8642333104
Ga           -4.8700397350       10.3124518133        5.2796846007
Ga           -4.8657142215       10.2962224526       10.5766565813
Ga           -4.8754762256       10.3207349999       15.8613872999
Ga           -6.4890605049       13.1324692306        5.3393846842
Ga           -6.4896239673       13.1158148046       10.5361245233
Ga           -6.4875340557       13.1689322685       15.7950890791
Ga            3.2264102563        1.8627715088        5.3399191992
Ga            3.2412888766        1.8713616843       10.5362219804
Ga            3.1966386828        1.8455828829       15.7947125968
Ga            1.6228890774        4.6707366166        5.3002040514
Ga            1.6224845087        4.6913694879       10.5780018476
Ga            1.6230808514        4.6785553041       15.8480481836
Ga            0.0001633970        7.4904684197        5.2832036980
Ga           -0.0018581892        7.4941241560       10.5717362064
Ga            0.0004374927        7.4916415402       15.8618709664
Ga           -1.6243557265       10.3042180797        5.2832036980
Ga           -1.6222005591       10.3006394665       10.5717362064
Ga           -1.6232027265       10.3038688933       15.8618709664
Ga           -3.2549522597       13.1194056439        5.3002040514
Ga           -3.2372859534       13.1087388415       10.5780018476
Ga           -3.2480851907       13.1156623812       15.8480481836
Ga            6.4788890665        1.8706397764        5.2798676057
Ga            6.4943048013        1.8742599774       10.5772104769
Ga            6.4698027124        1.8712937418       15.8620553124
Ga            4.8594637810        4.6755666501        5.2798676057
Ga            4.8703068344        4.6871069676       10.5772104769
Ga            4.8554869546        4.6673706540       15.8620553124
Ga            3.2445832462        7.4901350599        5.2830032793
Ga            3.2461842668        7.4936221558       10.5716881783
Ga            3.2442559617        7.4913961853       15.8619114712
Ga            1.6220444225       10.3026949730        5.2830087209
Ga            1.6218869543       10.3026040587       10.5709666868
Ga            1.6220423027       10.3026937492       15.8614456339
Ga           -0.0024345000       13.1141347696        5.2830032793
Ga            0.0013859238       13.1137777462       10.5716881783
Ga           -0.0015059758       13.1132207702       15.8619114712
Ga            9.7336258555        1.8720820500        5.2752882689
Ga            9.7334166896        1.8726112160       10.5737941107
Ga            9.7337782211        1.8735767875       15.8647578965
Ga            8.1090203648        4.6817477695        5.2818831590
Ga            8.1110687770        4.6829304208       10.5691107470
Ga            8.1077240744        4.6809993559       15.8631013955
Ga            6.4880812210        7.4935302554        5.2752882689
Ga            6.4884349092        7.4930845294       10.5737941107
Ga            6.4894518844        7.4929148391       15.8647578965
Ga            4.8698669840       10.3041722097        5.2827048064
Ga            4.8672301428       10.3006007236       10.5714750437
Ga            4.8686646292       10.3040053908       15.8618451047
Ga            3.2472350278       13.1146532000        5.2827048064
Ga            3.2428236095       13.1141553716       10.5714750437
Ga            3.2464893810       13.1136953397       15.8618451047
Ga           12.9881388923        1.8705833683        5.2799358274
Ga           12.9722321195        1.8748812366       10.5769429916
Ga           12.9976727829        1.8706942400       15.8611299418
Ga           11.3578794021        4.6818718934        5.2818184103
Ga           11.3558364446        4.6830406363       10.5690057524
Ga           11.3589360390        4.6811400978       15.8630164631
Ga            9.7335573779        7.4952801673        5.2818184103
Ga            9.7335480602        7.4929265427       10.5690057524
Ga            9.7334519428        7.4965611395       15.8630164631
Ga            8.1140398430       10.3127705630        5.2799358274
Ga            8.1098085197       10.2968459595       10.5769429916
Ga            8.1189028061       10.3209717186       15.8611299418
Ga            6.4999188668       13.1189370966        5.2990311122
Ga            6.4827534000       13.1090266098       10.5781323699
Ga            6.4945173511       13.1158185301       15.8482425759
N             1.6217006896        0.9362878587        5.0985398467
N             1.6217849925        0.9363365310        9.8884456894
N             1.6226524091        0.9368373342       15.0797281687
N             0.0055776467        3.7288767986        4.6334682317
N            -0.0020774504        3.7635664736        9.9370352812
N             0.0061040407        3.7347307419       15.1987652800
N            -1.6208190227        6.5507537016        4.6254878719
N            -1.6243584747        6.5588394380        9.9185802349
N            -1.6215301188        6.5484279636       15.2174863553
N            -3.2486601608        9.3702572594        4.6254878719
N            -3.2434274336        9.3631491359        9.9185802349
N            -3.2510298570        9.3708043012       15.2174863553
N            -4.8792789104       12.1896965433        4.6334682317
N            -4.8530643190       12.1657221972        9.9370352812
N            -4.8739460497       12.1872254422       15.1987652800
N             4.8481689744        0.9410289786        4.6335080873
N             4.8821705054        0.9295059139        9.9368737275
N             4.8535071472        0.9379737368       15.1990444443
N             3.2390407622        3.7281207980        4.6335080873
N             3.2460622609        3.7633285200        9.9368737275
N             3.2390639316        3.7342714122       15.1990444443
N             1.6223871202        6.5479889739        4.6342412395
N             1.6221441468        6.5626851683        9.9209838465
N             1.6224156572        6.5542697399       15.2091018039
N            -0.0010907285        9.3655733068        4.6303943248
N             0.0001439181        9.3662861303        9.9190664725
N            -0.0012526420        9.3654798260       15.2092669821
N            -1.6294514137       12.1803385329        4.6342412395
N            -1.6168456228       12.1727800145        9.9209838465
N            -1.6239978423       12.1772228636       15.2091018039
N             8.1056468690        0.9381274649        4.6254553731
N             8.1140491304        0.9368965868        9.9186460297
N             8.1042350045        0.9397906011       15.2176764839
N             6.4861846390        3.7447989765        4.6308856746
N             6.4889533417        3.7463974877        9.9182210311
N             6.4852056445        3.7442337537       15.2115587849
N             4.8652669250        6.5506301641        4.6254553731
N             4.8684020840        6.5585221749        9.9186460297
N             4.8660013110        6.5485758854       15.2176764839
N             3.2459383341        9.3656498314        4.6305081074
N             3.2443008890        9.3662558135        9.9191670286
N             3.2460965668        9.3656228317       15.2095017460
N             1.6224900751       12.1775446997        4.6305081074
N             1.6221961484       12.1758236396        9.9191670286
N             1.6225458090       12.1776952331       15.2095017460
N            11.3616500029        0.9383819703        4.6252194602
N            11.3526051675        0.9370787253        9.9185151355
N            11.3629368803        0.9398170223       15.2172283479
N             9.7333412291        3.7472442193        4.6292453425
N             9.7333662387        3.7455924438        9.9177886337
N             9.7332663728        3.7468487237       15.2108656302
N             8.1118805764        6.5556964523        4.6292453425
N             8.1104626016        6.5565439990        9.9177886337
N             8.1115006390        6.5558293726       15.2108656302
N             6.4934889000        9.3702843401        4.6252194602
N             6.4878378391        9.3631029054        9.9185151355
N             6.4953751302        9.3706812826       15.2172283479
N             4.8742215152       12.1803361432        4.6337680766
N             4.8615749433       12.1730346415        9.9210153112
N             4.8694681044       12.1775917602       15.2092740597
N            14.6188146388        0.9412048106        4.6329415603
N            14.5845124679        0.9296097321        9.9365513903
N            14.6148263003        0.9384249528       15.1990824457
N            12.9806742808        3.7448644980        4.6305421057
N            12.9775655971        3.7465630606        9.9176899880
N            12.9815496294        3.7441861299       15.2112569710
N            11.3549687225        6.5557927779        4.6290004668
N            11.3562967473        6.5565595133        9.9175045698
N            11.3551854702        6.5559179172       15.2105223991
N             9.7334862032        9.3691592303        4.6305421057
N             9.7334028597        9.3656177500        9.9176899880
N             9.7333363935        9.3702564885       15.2112569710
N             8.1245158694       12.1896602390        4.6329415603
N             8.0973231514       12.1657512269        9.9365513903
N             8.1201142726       12.1875961655       15.1990824457
N             0.3154874847        1.6927417484        1.9250505372
N            -0.0526644982        1.9034828077        7.3464813529
N            -0.0101064486        1.8789353170       12.5306645901
N            -1.5708283366        4.6224451224        1.9908817133
N            -1.6252091484        4.6912571809        7.2715527770
N            -1.6267369171        4.6856369998       12.5680294848
N            -3.2405471616        7.4952764130        1.9910349984
N            -3.2446986353        7.4928795585        7.2679095483
N            -3.2442400010        7.4931443511       12.5682571708
N            -4.8936326274       10.3777109778        1.9908817133
N            -4.8612300426       10.2962097841        7.2715527770
N            -4.8668611465       10.2976967881       12.5680294848
N            -6.4876722640       13.4761600857        1.9250505372
N            -6.4892411446       13.0519605865        7.3464813529
N            -6.4892208703       13.1010906838       12.5306645901
N             2.9291389846        1.6911418601        1.9249196233
N             3.2965431918        1.9032627781        7.3469873045
N             3.2538647650        1.8786223768       12.5308427353
N             1.6224846567        4.6764963929        1.9774167014
N             1.6223631331        4.6826894195        7.2866683313
N             1.6220238198        4.6871162858       12.5676745827
N             0.0026759629        7.4879983650        1.9876701100
N            -0.0003587419        7.4936711523        7.2739956923
N            -0.0015821417        7.4924250597       12.5659812455
N            -1.6252385737       10.3076290529        1.9876701100
N            -1.6218431483       10.3021645278        7.2739956923
N            -1.6235339959       10.3017280788       12.5659812455
N            -3.2501663574       13.1161755172        1.9774167014
N            -3.2448638009       13.1129737614        7.2866683313
N            -3.2411996789       13.1104664742       12.5676745827
N             6.4106855145        1.8590864386        1.9914054806
N             6.4976169444        1.8718155209        7.2716912719
N             6.4929639840        1.8753566347       12.5685133973
N             4.8153565209        4.6222773104        1.9914054806
N             4.8698459445        4.6911975959        7.2716912719
N             4.8705861588        4.6853974572       12.5685133973
N             3.2422688076        7.4883276418        1.9876442204
N             3.2446993919        7.4937756474        7.2738100257
N             3.2460381751        7.4925396983       12.5659753192
N             1.6226994667       10.3030731630        1.9881809505
N             1.6222648896       10.3028222598        7.2740599797
N             1.6223129279       10.3028499947       12.5644798196
N            -0.0051569894       13.1130341160        1.9876442204
N             0.0007764141       13.1124150610        7.2738100257
N             0.0003754423       13.1141924558       12.5659753192
N             9.7342998318        1.8684823000        1.9913887761
N             9.7332066939        1.8730613057        7.2680227408
N             9.7331813136        1.8726057992       12.5685314844
N             8.0982561560        4.6755330506        1.9901648909
N             8.1115275518        4.6831952945        7.2728720633
N             8.1113693949        4.6831039826       12.5636476897
N             6.4853007342        7.4959138110        1.9913887761
N             6.4887197005        7.4926776229        7.2680227408
N             6.4883125301        7.4928833962       12.5685314844
N             4.8707690510       10.3080021501        1.9875352653
N             4.8661027189       10.3021868821        7.2735796510
N             4.8678259207       10.3018115769       12.5657770169
N             3.2510028870       13.1135194427        1.9875352653
N             3.2436335511       13.1123859146        7.2735796510
N             3.2441701282       13.1140659037       12.5657770169
N            13.0576195713        1.8597675678        1.9906411599
N            12.9692634631        1.8715373746        7.2717538718
N            12.9736328596        1.8755749638       12.5683489120
N            11.3683173567        4.6757028370        1.9901749628
N            11.3553403974        4.6831808626        7.2728807097
N            11.3549663616        4.6833215209       12.5635548283
N             9.7334337956        7.5074042293        1.9901749628
N             9.7334214761        7.4924268401        7.2728807097
N             9.7333562720        7.4920325865       12.5635548283
N             8.1394134245       10.3783504964        1.9906411599
N             8.1054283221       10.2959469587        7.2717538718
N             8.1111096752       10.2977121724       12.5683489120
N             6.4965793071       13.1170090010        1.9775779989
N             6.4890894873       13.1126847515        7.2858786880
N             6.4856982342       13.1107268106       12.5677995623
N             1.6239578247        0.9375910163        2.4005022256
End final coordinates



     Writing all to output data dir ./GaN.save/
 
     init_run     :      5.83s CPU      6.45s WALL (       1 calls)
     electrons    :  30270.46s CPU  30574.95s WALL (       2 calls)
     update_pot   :      2.62s CPU      2.69s WALL (       1 calls)
     forces       :    136.72s CPU    138.89s WALL (       2 calls)
     stress       :   2662.24s CPU   2689.97s WALL (       2 calls)

     Called by init_run:
     wfcinit      :      0.77s CPU      0.88s WALL (       1 calls)
     potinit      :      1.85s CPU      2.08s WALL (       1 calls)
     hinit0       :      1.58s CPU      1.70s WALL (       1 calls)

     Called by electrons:
     c_bands      :  29754.86s CPU  30049.70s WALL (      19 calls)
     sum_band     :    479.26s CPU    485.85s WALL (      19 calls)
     v_of_rho     :     19.80s CPU     20.83s WALL (      20 calls)
     v_h          :      0.18s CPU      0.18s WALL (      20 calls)
     v_xc         :     23.39s CPU     24.65s WALL (      24 calls)
     newd         :      4.90s CPU      5.80s WALL (      20 calls)
     PAW_pot      :     11.82s CPU     11.92s WALL (      21 calls)
     mix_rho      :      0.95s CPU      1.05s WALL (      19 calls)
     vdW_kernel   :      0.27s CPU      0.28s WALL (       1 calls)

     Called by c_bands:
     init_us_2    :     18.97s CPU     19.44s WALL (      84 calls)
     init_us_2:cp :     18.97s CPU     19.44s WALL (      84 calls)
     cegterg      :  22736.53s CPU  22985.08s WALL (      36 calls)

     Called by sum_band:
     sum_band:wei :      0.08s CPU      0.08s WALL (      19 calls)
     sum_band:loo :    428.19s CPU    431.91s WALL (      19 calls)
     sum_band:buf :      5.01s CPU      5.08s WALL (      38 calls)
     sum_band:ini :     10.29s CPU     10.64s WALL (      38 calls)
     sum_band:cal :    298.73s CPU    300.88s WALL (      40 calls)
     sum_band:bec :      2.36s CPU      2.38s WALL (      40 calls)
     addusdens    :      4.07s CPU      5.08s WALL (      19 calls)
     addusd:skk   :      0.56s CPU      0.90s WALL (      38 calls)
     addusd:dgemm :      2.32s CPU      2.96s WALL (      38 calls)
     addusd:qvan2 :      0.69s CPU      0.70s WALL (      38 calls)

     Called by *egterg:
     cdiaghg      :  18087.23s CPU  18213.21s WALL (     392 calls)
     cegterg:over :    873.57s CPU    894.11s WALL (     360 calls)
     cegterg:upda :    543.67s CPU    552.60s WALL (     360 calls)
     cegterg:last :    275.63s CPU    277.56s WALL (      36 calls)
     h_psi        :   1983.34s CPU   2013.33s WALL (     396 calls)
     s_psi        :    692.84s CPU    702.81s WALL (     396 calls)
     g_psi        :      1.47s CPU      1.48s WALL (     360 calls)

     Called by h_psi:
     h_psi:calbec :    732.26s CPU    738.09s WALL (     396 calls)
     vloc_psi     :    549.07s CPU    554.94s WALL (     396 calls)
     add_vuspsi   :    693.56s CPU    705.30s WALL (     396 calls)

     General routines
     calbec       :   1257.35s CPU   1266.92s WALL (     456 calls)
     fft          :     10.86s CPU     11.00s WALL (    1596 calls)
     ffts         :      3.07s CPU      3.09s WALL (      39 calls)
     fftw         :    626.99s CPU    633.60s WALL (  360222 calls)
     interpolate  :      0.29s CPU      0.30s WALL (      20 calls)
     davcio       :      0.00s CPU      2.11s WALL (       6 calls)
 
     Parallel routines

     PAW routines
     PAW_pot      :     11.82s CPU     11.92s WALL (      21 calls)
     PAW_symme    :      0.39s CPU      0.40s WALL (      39 calls)
 
     PWSCF        :      9h11m CPU      9h17m WALL

 
   This run was terminated on:  17:10:35  29Mar2024            

=------------------------------------------------------------------------------=
   JOB DONE.
=------------------------------------------------------------------------------=
