
     Program PWSCF v.7.1 starts on 19Feb2024 at  9:59:54 

     This program is part of the open-source Quantum ESPRESSO suite
     for quantum simulation of materials; please cite
         "P. Giannozzi et al., J. Phys.:Condens. Matter 21 395502 (2009);
         "P. Giannozzi et al., J. Phys.:Condens. Matter 29 465901 (2017);
         "P. Giannozzi et al., J. Chem. Phys. 152 154105 (2020);
          URL http://www.quantum-espresso.org", 
     in publications or presentations arising from this work. More details at
     http://www.quantum-espresso.org/quote

     Parallel version (MPI & OpenMP), running on     256 processor cores
     Number of MPI processes:               256
     Threads/MPI process:                     1

     MPI processes distributed on     2 nodes
     1895089 MiB available memory on the printing compute node when the environment starts
 
     Reading input from espresso.pwi
Warning: card &CELL ignored
Warning: card    CELL_DYNAMICS    = 'BFGS' ignored
Warning: card / ignored

     Current dimensions of program PWSCF are:
     Max number of different atomic species (ntypx) = 10
     Max number of k-points (npk) =  40000
     Max angular momentum in pseudopotentials (lmaxx) =  4
     file Pb.pbe-dn-kjpaw_psl.1.0.0.UPF: wavefunction(s)  6S 6P 5D renormalized
     file I.pbe-dn-kjpaw_psl.1.0.0.UPF: wavefunction(s)  5S 5P renormalized

     **************************************************************************
     Initializing libbeef V0.1.2 with the BEEF-vdW functional.
     Citation: Wellendorff et al., PRB 85, 235149 (2012).
     **************************************************************************


     IMPORTANT: XC functional enforced from input :
     Exchange-correlation= BEEF-VDW
                           (   1   4  43  14   2   0   0)
     Any further DFT definition will be discarded
     Please, verify this is what you really want

 
     R & G space division:  proc/nbgrp/npool/nimage =     256
     WARNING: too many processors for an effective parallelization!
     wavefunctions fft division:  task group distribution
                                  #TG    x Z-proc =       8     32
     Subspace diagonalization in iterative solution of the eigenvalue problem:
     a serial algorithm will be used

 
     Parallelization info
     --------------------
     sticks:   dense  smooth     PW     G-vecs:    dense   smooth      PW
     Min         119      95     23                19837    14191    1763
     Max         120      96     24                19846    14206    1780
     Sum       30589   24439   6121              5079105  3634441  454335
 
     Using Pencil Decomposition
 


     bravais-lattice index     =            4
     lattice parameter (alat)  =      35.6120  a.u.
     unit-cell volume          =   45937.3577 (a.u.)^3
     number of atoms/cell      =          143
     number of atomic types    =            2
     number of electrons       =      2290.00
     number of Kohn-Sham states=         1374
     kinetic-energy cutoff     =      70.0000  Ry
     charge density cutoff     =     350.0000  Ry
     scf convergence threshold =      1.0E-07
     mixing beta               =       0.7000
     number of iterations used =            8  plain     mixing
     Exchange-correlation= BEEF-VDW
                           (   1   4  43  14   2   0   0)

     celldm(1)=  35.612033  celldm(2)=   0.000000  celldm(3)=   1.174479
     celldm(4)=   0.000000  celldm(5)=   0.000000  celldm(6)=   0.000000

     crystal axes: (cart. coord. in units of alat)
               a(1) = (   1.000000   0.000000   0.000000 )  
               a(2) = (  -0.500000   0.866025   0.000000 )  
               a(3) = (   0.000000   0.000000   1.174479 )  

     reciprocal axes: (cart. coord. in units 2 pi/alat)
               b(1) = (  1.000000  0.577350 -0.000000 )  
               b(2) = (  0.000000  1.154701  0.000000 )  
               b(3) = (  0.000000 -0.000000  0.851442 )  


     PseudoPot. # 1 for Pb read from file:
     /trace/group/acmegroup/atimmins/packages/espresso/pseudo/psl_1.0.0/pslibrary.1.0.0/pbe/PSEUDOPOTENTIALS/Pb.pbe-dn-kjpaw_psl.1.0.0.UPF
     MD5 check sum: 39ab5b8a6bbd56b7735ad9f188aac93a
     Pseudo is Projector augmented-wave + core cor, Zval = 14.0
     Generated using 'atomic' code by A. Dal Corso  v.7.1
     Shape of augmentation charge: PSQ
     Using radial grid of 1281 points,  6 beta functions with: 
                l(1) =   0
                l(2) =   0
                l(3) =   1
                l(4) =   1
                l(5) =   2
                l(6) =   2
     Q(r) pseudized with 0 coefficients 


     PseudoPot. # 2 for I  read from file:
     /trace/group/acmegroup/atimmins/packages/espresso/pseudo/psl_1.0.0/pslibrary.1.0.0/pbe/PSEUDOPOTENTIALS/I.pbe-dn-kjpaw_psl.1.0.0.UPF
     MD5 check sum: bfa8781bc1224d19af3f3980e3fab11e
     Pseudo is Projector augmented-wave + core cor, Zval = 17.0
     Generated using 'atomic' code by A. Dal Corso  v.7.1
     Shape of augmentation charge: PSQ
     Using radial grid of 1247 points,  6 beta functions with: 
                l(1) =   0
                l(2) =   0
                l(3) =   1
                l(4) =   1
                l(5) =   2
                l(6) =   2
     Q(r) pseudized with 0 coefficients 


     atomic species   valence    mass     pseudopotential
        Pb            14.00   207.20000     Pb( 1.00)
        I             17.00   126.90447     I ( 1.00)

     No symmetry found


                                    s                        frac. trans.

      isym =  1     identity                                     

 cryst.   s( 1) = (     1          0          0      )
                  (     0          1          0      )
                  (     0          0          1      )

 cart.    s( 1) = (  1.0000000  0.0000000  0.0000000 )
                  (  0.0000000  1.0000000  0.0000000 )
                  (  0.0000000  0.0000000  1.0000000 )


     point group C_1 (1)    
     there are  1 classes
     the character table:

       E    
A      1.00

     the symmetry operations in each class and the name of the first element:

     E        1
          identity                                               

   Cartesian axes

     site n.     atom                  positions (alat units)
         1           Pb  tau(   1) = (   0.1250034   0.2164918   0.3914896  )
         2           Pb  tau(   2) = (   0.1250085   0.2164873   0.7829825  )
         3           Pb  tau(   3) = (   0.0000128   0.4329881   1.1744712  )
         4           Pb  tau(   4) = (   0.0000026   0.4329971   0.3914855  )
         5           Pb  tau(   5) = (   0.0000077   0.4329926   0.7829784  )
         6           Pb  tau(   6) = (  -0.1249881   0.6494934   1.1744671  )
         7           Pb  tau(   7) = (  -0.1249983   0.6495025   0.3914814  )
         8           Pb  tau(   8) = (  -0.1249932   0.6494980   0.7829742  )
         9           Pb  tau(   9) = (  -0.2499889   0.8659988   1.1744630  )
        10           Pb  tau(  10) = (  -0.2499991   0.8660078   0.3914773  )
        11           Pb  tau(  11) = (  -0.2499940   0.8660033   0.7829701  )
        12           Pb  tau(  12) = (   0.3750136   0.2164818   1.1744786  )
        13           Pb  tau(  13) = (   0.3750034   0.2164908   0.3914929  )
        14           Pb  tau(  14) = (   0.3750085   0.2164863   0.7829857  )
        15           Pb  tau(  15) = (   0.2500128   0.4329871   1.1744745  )
        16           Pb  tau(  16) = (   0.2500026   0.4329962   0.3914888  )
        17           Pb  tau(  17) = (   0.2500077   0.4329916   0.7829816  )
        18           Pb  tau(  18) = (   0.1250119   0.6494925   1.1744703  )
        19           Pb  tau(  19) = (   0.1250017   0.6495015   0.3914847  )
        20           Pb  tau(  20) = (   0.1250068   0.6494970   0.7829775  )
        21           Pb  tau(  21) = (   0.0000111   0.8659978   1.1744662  )
        22           Pb  tau(  22) = (   0.0000009   0.8660069   0.3914805  )
        23           Pb  tau(  23) = (   0.0000060   0.8660024   0.7829734  )
        24           Pb  tau(  24) = (   0.6250136   0.2164808   1.1744818  )
        25           Pb  tau(  25) = (   0.6250034   0.2164898   0.3914962  )
        26           Pb  tau(  26) = (   0.6250085   0.2164853   0.7829890  )
        27           Pb  tau(  27) = (   0.5000128   0.4329862   1.1744777  )
        28           Pb  tau(  28) = (   0.5000026   0.4329952   0.3914920  )
        29           Pb  tau(  29) = (   0.5000077   0.4329907   0.7829849  )
        30           Pb  tau(  30) = (   0.3750119   0.6494915   1.1744736  )
        31           Pb  tau(  31) = (   0.3750017   0.6495006   0.3914879  )
        32           Pb  tau(  32) = (   0.3750068   0.6494960   0.7829808  )
        33           Pb  tau(  33) = (   0.2500111   0.8659969   1.1744695  )
        34           Pb  tau(  34) = (   0.2500009   0.8660059   0.3914838  )
        35           Pb  tau(  35) = (   0.2500060   0.8660014   0.7829766  )
        36           Pb  tau(  36) = (   0.8750136   0.2164798   1.1744851  )
        37           Pb  tau(  37) = (   0.8750034   0.2164889   0.3914994  )
        38           Pb  tau(  38) = (   0.8750085   0.2164844   0.7829923  )
        39           Pb  tau(  39) = (   0.7500128   0.4329852   1.1744810  )
        40           Pb  tau(  40) = (   0.7500026   0.4329942   0.3914953  )
        41           Pb  tau(  41) = (   0.7500077   0.4329897   0.7829881  )
        42           Pb  tau(  42) = (   0.6250119   0.6494906   1.1744769  )
        43           Pb  tau(  43) = (   0.6250017   0.6494996   0.3914912  )
        44           Pb  tau(  44) = (   0.6250068   0.6494951   0.7829840  )
        45           Pb  tau(  45) = (   0.5000111   0.8659959   1.1744727  )
        46           Pb  tau(  46) = (   0.5000009   0.8660050   0.3914870  )
        47           Pb  tau(  47) = (   0.5000060   0.8660004   0.7829799  )
        48           I   tau(  48) = (   0.1250054   0.0721550   0.2909325  )
        49           I   tau(  49) = (   0.1250105   0.0721505   0.6824253  )
        50           I   tau(  50) = (   0.1250156   0.0721459   1.0739182  )
        51           I   tau(  51) = (   0.0000045   0.2886603   0.2909283  )
        52           I   tau(  52) = (   0.0000096   0.2886558   0.6824212  )
        53           I   tau(  53) = (   0.0000147   0.2886513   1.0739140  )
        54           I   tau(  54) = (  -0.1249963   0.5051657   0.2909242  )
        55           I   tau(  55) = (  -0.1249912   0.5051612   0.6824171  )
        56           I   tau(  56) = (  -0.1249861   0.5051566   1.0739099  )
        57           I   tau(  57) = (  -0.2499971   0.7216710   0.2909201  )
        58           I   tau(  58) = (  -0.2499920   0.7216665   0.6824129  )
        59           I   tau(  59) = (  -0.2499869   0.7216620   1.0739058  )
        60           I   tau(  60) = (   0.3750054   0.0721540   0.2909357  )
        61           I   tau(  61) = (   0.3750105   0.0721495   0.6824286  )
        62           I   tau(  62) = (   0.3750156   0.0721450   1.0739214  )
        63           I   tau(  63) = (   0.2500045   0.2886594   0.2909316  )
        64           I   tau(  64) = (   0.2500096   0.2886548   0.6824244  )
        65           I   tau(  65) = (   0.2500147   0.2886503   1.0739173  )
        66           I   tau(  66) = (   0.1250037   0.5051647   0.2909275  )
        67           I   tau(  67) = (   0.1250088   0.5051602   0.6824203  )
        68           I   tau(  68) = (   0.1250139   0.5051557   1.0739132  )
        69           I   tau(  69) = (   0.0000029   0.7216701   0.2909233  )
        70           I   tau(  70) = (   0.0000080   0.7216656   0.6824162  )
        71           I   tau(  71) = (   0.0000131   0.7216610   1.0739090  )
        72           I   tau(  72) = (   0.6250054   0.0721530   0.2909390  )
        73           I   tau(  73) = (   0.6250105   0.0721485   0.6824318  )
        74           I   tau(  74) = (   0.6250156   0.0721440   1.0739247  )
        75           I   tau(  75) = (   0.5000045   0.2886584   0.2909348  )
        76           I   tau(  76) = (   0.5000096   0.2886539   0.6824277  )
        77           I   tau(  77) = (   0.5000147   0.2886494   1.0739205  )
        78           I   tau(  78) = (   0.3750037   0.5051638   0.2909307  )
        79           I   tau(  79) = (   0.3750088   0.5051592   0.6824236  )
        80           I   tau(  80) = (   0.3750139   0.5051547   1.0739164  )
        81           I   tau(  81) = (   0.2500029   0.7216691   0.2909266  )
        82           I   tau(  82) = (   0.2500080   0.7216646   0.6824194  )
        83           I   tau(  83) = (   0.2500131   0.7216601   1.0739123  )
        84           I   tau(  84) = (   0.8750054   0.0721521   0.2909422  )
        85           I   tau(  85) = (   0.8750105   0.0721476   0.6824351  )
        86           I   tau(  86) = (   0.8750156   0.0721430   1.0739279  )
        87           I   tau(  87) = (   0.7500045   0.2886574   0.2909381  )
        88           I   tau(  88) = (   0.7500096   0.2886529   0.6824310  )
        89           I   tau(  89) = (   0.7500147   0.2886484   1.0739238  )
        90           I   tau(  90) = (   0.6250037   0.5051628   0.2909340  )
        91           I   tau(  91) = (   0.6250088   0.5051583   0.6824268  )
        92           I   tau(  92) = (   0.6250139   0.5051538   1.0739197  )
        93           I   tau(  93) = (   0.5000029   0.7216681   0.2909299  )
        94           I   tau(  94) = (   0.5000080   0.7216636   0.6824227  )
        95           I   tau(  95) = (   0.5000131   0.7216591   1.0739156  )
        96           I   tau(  96) = (  -0.0000017   0.1443297   0.1005555  )
        97           I   tau(  97) = (   0.0000034   0.1443252   0.4920483  )
        98           I   tau(  98) = (   0.0000085   0.1443207   0.8835412  )
        99           I   tau(  99) = (  -0.1250025   0.3608351   0.1005514  )
       100           I   tau( 100) = (  -0.1249974   0.3608306   0.4920442  )
       101           I   tau( 101) = (  -0.1249923   0.3608260   0.8835371  )
       102           I   tau( 102) = (  -0.2500034   0.5773404   0.1005472  )
       103           I   tau( 103) = (  -0.2499983   0.5773359   0.4920401  )
       104           I   tau( 104) = (  -0.2499932   0.5773314   0.8835329  )
       105           I   tau( 105) = (  -0.3750042   0.7938458   0.1005431  )
       106           I   tau( 106) = (  -0.3749991   0.7938413   0.4920360  )
       107           I   tau( 107) = (  -0.3749940   0.7938368   0.8835288  )
       108           I   tau( 108) = (   0.2499983   0.1443288   0.1005587  )
       109           I   tau( 109) = (   0.2500034   0.1443242   0.4920516  )
       110           I   tau( 110) = (   0.2500085   0.1443197   0.8835444  )
       111           I   tau( 111) = (   0.1249975   0.3608341   0.1005546  )
       112           I   tau( 112) = (   0.1250026   0.3608296   0.4920475  )
       113           I   tau( 113) = (   0.1250077   0.3608251   0.8835403  )
       114           I   tau( 114) = (  -0.0000034   0.5773395   0.1005505  )
       115           I   tau( 115) = (   0.0000017   0.5773350   0.4920433  )
       116           I   tau( 116) = (   0.0000068   0.5773304   0.8835362  )
       117           I   tau( 117) = (  -0.1250042   0.7938448   0.1005464  )
       118           I   tau( 118) = (  -0.1249991   0.7938403   0.4920392  )
       119           I   tau( 119) = (  -0.1249940   0.7938358   0.8835321  )
       120           I   tau( 120) = (   0.4999983   0.1443278   0.1005620  )
       121           I   tau( 121) = (   0.5000034   0.1443233   0.4920548  )
       122           I   tau( 122) = (   0.5000085   0.1443188   0.8835477  )
       123           I   tau( 123) = (   0.3749975   0.3608332   0.1005579  )
       124           I   tau( 124) = (   0.3750026   0.3608286   0.4920507  )
       125           I   tau( 125) = (   0.3750077   0.3608241   0.8835436  )
       126           I   tau( 126) = (   0.2499966   0.5773385   0.1005537  )
       127           I   tau( 127) = (   0.2500017   0.5773340   0.4920466  )
       128           I   tau( 128) = (   0.2500068   0.5773295   0.8835394  )
       129           I   tau( 129) = (   0.1249958   0.7938439   0.1005496  )
       130           I   tau( 130) = (   0.1250009   0.7938394   0.4920425  )
       131           I   tau( 131) = (   0.1250060   0.7938348   0.8835353  )
       132           I   tau( 132) = (   0.7499983   0.1443268   0.1005653  )
       133           I   tau( 133) = (   0.7500034   0.1443223   0.4920581  )
       134           I   tau( 134) = (   0.7500085   0.1443178   0.8835509  )
       135           I   tau( 135) = (   0.6249975   0.3608322   0.1005611  )
       136           I   tau( 136) = (   0.6250026   0.3608277   0.4920540  )
       137           I   tau( 137) = (   0.6250077   0.3608232   0.8835468  )
       138           I   tau( 138) = (   0.4999966   0.5773376   0.1005570  )
       139           I   tau( 139) = (   0.5000017   0.5773330   0.4920499  )
       140           I   tau( 140) = (   0.5000068   0.5773285   0.8835427  )
       141           I   tau( 141) = (   0.3749958   0.7938429   0.1005529  )
       142           I   tau( 142) = (   0.3750009   0.7938384   0.4920457  )
       143           I   tau( 143) = (   0.3750060   0.7938339   0.8835386  )

   Crystallographic axes

     site n.     atom                  positions (cryst. coord.)
         1           Pb  tau(   1) = (  0.2499950  0.2499832  0.3333306  )
         2           Pb  tau(   2) = (  0.2499975  0.2499780  0.6666639  )
         3           Pb  tau(   3) = (  0.2499986  0.4999716  0.9999938  )
         4           Pb  tau(   4) = (  0.2499936  0.4999820  0.3333271  )
         5           Pb  tau(   5) = (  0.2499961  0.4999768  0.6666604  )
         6           Pb  tau(   6) = (  0.2499972  0.7499704  0.9999902  )
         7           Pb  tau(   7) = (  0.2499922  0.7499809  0.3333236  )
         8           Pb  tau(   8) = (  0.2499947  0.7499757  0.6666569  )
         9           Pb  tau(   9) = (  0.2499957  0.9999693  0.9999867  )
        10           Pb  tau(  10) = (  0.2499908  0.9999797  0.3333201  )
        11           Pb  tau(  11) = (  0.2499932  0.9999745  0.6666534  )
        12           Pb  tau(  12) = (  0.4999994  0.2499716  1.0000000  )
        13           Pb  tau(  13) = (  0.4999944  0.2499821  0.3333334  )
        14           Pb  tau(  14) = (  0.4999969  0.2499768  0.6666667  )
        15           Pb  tau(  15) = (  0.4999980  0.4999705  0.9999965  )
        16           Pb  tau(  16) = (  0.4999930  0.4999809  0.3333299  )
        17           Pb  tau(  17) = (  0.4999955  0.4999757  0.6666632  )
        18           Pb  tau(  18) = (  0.4999966  0.7499693  0.9999930  )
        19           Pb  tau(  19) = (  0.4999916  0.7499798  0.3333264  )
        20           Pb  tau(  20) = (  0.4999941  0.7499745  0.6666597  )
        21           Pb  tau(  21) = (  0.4999952  0.9999682  0.9999895  )
        22           Pb  tau(  22) = (  0.4999902  0.9999786  0.3333228  )
        23           Pb  tau(  23) = (  0.4999927  0.9999734  0.6666562  )
        24           Pb  tau(  24) = (  0.7499989  0.2499705  1.0000028  )
        25           Pb  tau(  25) = (  0.7499939  0.2499809  0.3333362  )
        26           Pb  tau(  26) = (  0.7499964  0.2499757  0.6666695  )
        27           Pb  tau(  27) = (  0.7499975  0.4999694  0.9999993  )
        28           Pb  tau(  28) = (  0.7499925  0.4999798  0.3333326  )
        29           Pb  tau(  29) = (  0.7499950  0.4999746  0.6666660  )
        30           Pb  tau(  30) = (  0.7499960  0.7499682  0.9999958  )
        31           Pb  tau(  31) = (  0.7499910  0.7499786  0.3333291  )
        32           Pb  tau(  32) = (  0.7499935  0.7499734  0.6666625  )
        33           Pb  tau(  33) = (  0.7499946  0.9999671  0.9999923  )
        34           Pb  tau(  34) = (  0.7499896  0.9999775  0.3333256  )
        35           Pb  tau(  35) = (  0.7499921  0.9999723  0.6666590  )
        36           Pb  tau(  36) = (  0.9999983  0.2499694  1.0000056  )
        37           Pb  tau(  37) = (  0.9999933  0.2499798  0.3333389  )
        38           Pb  tau(  38) = (  0.9999958  0.2499746  0.6666723  )
        39           Pb  tau(  39) = (  0.9999969  0.4999682  1.0000021  )
        40           Pb  tau(  40) = (  0.9999919  0.4999787  0.3333354  )
        41           Pb  tau(  41) = (  0.9999944  0.4999735  0.6666687  )
        42           Pb  tau(  42) = (  0.9999955  0.7499671  0.9999986  )
        43           Pb  tau(  43) = (  0.9999905  0.7499775  0.3333319  )
        44           Pb  tau(  44) = (  0.9999930  0.7499723  0.6666652  )
        45           Pb  tau(  45) = (  0.9999941  0.9999659  0.9999951  )
        46           Pb  tau(  46) = (  0.9999891  0.9999764  0.3333284  )
        47           Pb  tau(  47) = (  0.9999916  0.9999712  0.6666617  )
        48           I   tau(  48) = (  0.1666641  0.0833174  0.2477120  )
        49           I   tau(  49) = (  0.1666666  0.0833122  0.5810454  )
        50           I   tau(  50) = (  0.1666691  0.0833070  0.9143787  )
        51           I   tau(  51) = (  0.1666626  0.3333162  0.2477085  )
        52           I   tau(  52) = (  0.1666651  0.3333110  0.5810418  )
        53           I   tau(  53) = (  0.1666676  0.3333058  0.9143752  )
        54           I   tau(  54) = (  0.1666612  0.5833151  0.2477050  )
        55           I   tau(  55) = (  0.1666637  0.5833099  0.5810383  )
        56           I   tau(  56) = (  0.1666662  0.5833047  0.9143717  )
        57           I   tau(  57) = (  0.1666598  0.8333139  0.2477015  )
        58           I   tau(  58) = (  0.1666623  0.8333087  0.5810348  )
        59           I   tau(  59) = (  0.1666648  0.8333035  0.9143682  )
        60           I   tau(  60) = (  0.4166635  0.0833163  0.2477148  )
        61           I   tau(  61) = (  0.4166660  0.0833111  0.5810481  )
        62           I   tau(  62) = (  0.4166685  0.0833058  0.9143815  )
        63           I   tau(  63) = (  0.4166621  0.3333151  0.2477113  )
        64           I   tau(  64) = (  0.4166646  0.3333099  0.5810446  )
        65           I   tau(  65) = (  0.4166671  0.3333047  0.9143780  )
        66           I   tau(  66) = (  0.4166607  0.5833140  0.2477078  )
        67           I   tau(  67) = (  0.4166632  0.5833088  0.5810411  )
        68           I   tau(  68) = (  0.4166657  0.5833035  0.9143744  )
        69           I   tau(  69) = (  0.4166593  0.8333128  0.2477043  )
        70           I   tau(  70) = (  0.4166618  0.8333076  0.5810376  )
        71           I   tau(  71) = (  0.4166643  0.8333024  0.9143709  )
        72           I   tau(  72) = (  0.6666629  0.0833152  0.2477176  )
        73           I   tau(  73) = (  0.6666654  0.0833099  0.5810509  )
        74           I   tau(  74) = (  0.6666679  0.0833047  0.9143842  )
        75           I   tau(  75) = (  0.6666615  0.3333140  0.2477141  )
        76           I   tau(  76) = (  0.6666640  0.3333088  0.5810474  )
        77           I   tau(  77) = (  0.6666665  0.3333036  0.9143807  )
        78           I   tau(  78) = (  0.6666601  0.5833129  0.2477106  )
        79           I   tau(  79) = (  0.6666626  0.5833076  0.5810439  )
        80           I   tau(  80) = (  0.6666651  0.5833024  0.9143772  )
        81           I   tau(  81) = (  0.6666587  0.8333117  0.2477070  )
        82           I   tau(  82) = (  0.6666612  0.8333065  0.5810404  )
        83           I   tau(  83) = (  0.6666637  0.8333013  0.9143737  )
        84           I   tau(  84) = (  0.9166624  0.0833141  0.2477203  )
        85           I   tau(  85) = (  0.9166649  0.0833088  0.5810537  )
        86           I   tau(  86) = (  0.9166674  0.0833036  0.9143870  )
        87           I   tau(  87) = (  0.9166610  0.3333129  0.2477168  )
        88           I   tau(  88) = (  0.9166635  0.3333077  0.5810502  )
        89           I   tau(  89) = (  0.9166660  0.3333025  0.9143835  )
        90           I   tau(  90) = (  0.9166596  0.5833118  0.2477133  )
        91           I   tau(  91) = (  0.9166621  0.5833065  0.5810467  )
        92           I   tau(  92) = (  0.9166646  0.5833013  0.9143800  )
        93           I   tau(  93) = (  0.9166582  0.8333106  0.2477098  )
        94           I   tau(  94) = (  0.9166607  0.8333054  0.5810431  )
        95           I   tau(  95) = (  0.9166632  0.8333002  0.9143765  )
        96           I   tau(  96) = (  0.0833271  0.1666576  0.0856171  )
        97           I   tau(  97) = (  0.0833296  0.1666524  0.4189505  )
        98           I   tau(  98) = (  0.0833321  0.1666472  0.7522838  )
        99           I   tau(  99) = (  0.0833257  0.4166565  0.0856136  )
       100           I   tau( 100) = (  0.0833282  0.4166513  0.4189470  )
       101           I   tau( 101) = (  0.0833307  0.4166460  0.7522803  )
       102           I   tau( 102) = (  0.0833243  0.6666553  0.0856101  )
       103           I   tau( 103) = (  0.0833268  0.6666501  0.4189434  )
       104           I   tau( 104) = (  0.0833293  0.6666449  0.7522768  )
       105           I   tau( 105) = (  0.0833229  0.9166542  0.0856066  )
       106           I   tau( 106) = (  0.0833254  0.9166489  0.4189399  )
       107           I   tau( 107) = (  0.0833279  0.9166437  0.7522733  )
       108           I   tau( 108) = (  0.3333265  0.1666565  0.0856199  )
       109           I   tau( 109) = (  0.3333290  0.1666513  0.4189532  )
       110           I   tau( 110) = (  0.3333315  0.1666461  0.7522866  )
       111           I   tau( 111) = (  0.3333251  0.4166554  0.0856164  )
       112           I   tau( 112) = (  0.3333276  0.4166501  0.4189497  )
       113           I   tau( 113) = (  0.3333301  0.4166449  0.7522831  )
       114           I   tau( 114) = (  0.3333237  0.6666542  0.0856129  )
       115           I   tau( 115) = (  0.3333262  0.6666490  0.4189462  )
       116           I   tau( 116) = (  0.3333287  0.6666438  0.7522795  )
       117           I   tau( 117) = (  0.3333223  0.9166531  0.0856094  )
       118           I   tau( 118) = (  0.3333248  0.9166478  0.4189427  )
       119           I   tau( 119) = (  0.3333273  0.9166426  0.7522760  )
       120           I   tau( 120) = (  0.5833260  0.1666554  0.0856227  )
       121           I   tau( 121) = (  0.5833285  0.1666502  0.4189560  )
       122           I   tau( 122) = (  0.5833310  0.1666450  0.7522893  )
       123           I   tau( 123) = (  0.5833246  0.4166542  0.0856192  )
       124           I   tau( 124) = (  0.5833271  0.4166490  0.4189525  )
       125           I   tau( 125) = (  0.5833296  0.4166438  0.7522858  )
       126           I   tau( 126) = (  0.5833232  0.6666531  0.0856157  )
       127           I   tau( 127) = (  0.5833257  0.6666479  0.4189490  )
       128           I   tau( 128) = (  0.5833282  0.6666427  0.7522823  )
       129           I   tau( 129) = (  0.5833218  0.9166519  0.0856121  )
       130           I   tau( 130) = (  0.5833243  0.9166467  0.4189455  )
       131           I   tau( 131) = (  0.5833268  0.9166415  0.7522788  )
       132           I   tau( 132) = (  0.8333254  0.1666543  0.0856254  )
       133           I   tau( 133) = (  0.8333279  0.1666491  0.4189588  )
       134           I   tau( 134) = (  0.8333304  0.1666438  0.7522921  )
       135           I   tau( 135) = (  0.8333240  0.4166531  0.0856219  )
       136           I   tau( 136) = (  0.8333265  0.4166479  0.4189553  )
       137           I   tau( 137) = (  0.8333290  0.4166427  0.7522886  )
       138           I   tau( 138) = (  0.8333226  0.6666520  0.0856184  )
       139           I   tau( 139) = (  0.8333251  0.6666468  0.4189518  )
       140           I   tau( 140) = (  0.8333276  0.6666415  0.7522851  )
       141           I   tau( 141) = (  0.8333212  0.9166508  0.0856149  )
       142           I   tau( 142) = (  0.8333237  0.9166456  0.4189482  )
       143           I   tau( 143) = (  0.8333262  0.9166404  0.7522816  )

     number of k points=     1  Gaussian smearing, width (Ry)=  0.0100
                       cart. coord. in units 2pi/alat
        k(    1) = (   0.0000000   0.0000000   0.0000000), wk =   2.0000000

                       cryst. coord.
        k(    1) = (   0.0000000   0.0000000   0.0000000), wk =   2.0000000

     Dense  grid:  5079105 G-vectors     FFT dimensions: ( 216, 216, 250)

     Smooth grid:  3634441 G-vectors     FFT dimensions: ( 192, 192, 225)

     Dynamical RAM for                 wfc:      37.19 MB

     Dynamical RAM for     wfc (w. buffer):      37.19 MB

     Dynamical RAM for           str. fact:       0.61 MB

     Dynamical RAM for           local pot:       0.00 MB

     Dynamical RAM for          nlocal pot:      69.68 MB

     Dynamical RAM for                qrad:       3.00 MB

     Dynamical RAM for          rho,v,vnew:       1.98 MB

     Dynamical RAM for               rhoin:       0.66 MB

     Dynamical RAM for            rho*nmix:       4.84 MB

     Dynamical RAM for           G-vectors:       1.24 MB

     Dynamical RAM for          h,s,v(r/c):    1382.72 MB

     Dynamical RAM for          <psi|beta>:      53.97 MB

     Dynamical RAM for                 psi:     148.77 MB

     Dynamical RAM for                hpsi:     148.77 MB

     Dynamical RAM for                spsi:     148.77 MB

     Dynamical RAM for      wfcinit/wfcrot:     117.61 MB

     Dynamical RAM for           addusdens:      85.38 MB

     Dynamical RAM for          addusforce:     143.42 MB

     Dynamical RAM for         addusstress:      60.85 MB

     Estimated static dynamical RAM per process >     117.04 MB

     Estimated max dynamical RAM per process >       1.96 GB

     Estimated total dynamical RAM >     501.22 GB

     Atomic positions and unit cell read from directory:
     ./PbI2.save/
     Atomic positions from file used, from input discarded
 

     Check: negative core charge=   -0.000001

     The initial density is read from file :
     ./PbI2.save/charge-density



     %%%%%%%%%%%%%%%%%%%%%%%%%%%%%%%%%%%%%%%%%%%%%%%%%%%%%%%%%%%%%%%%%%%%%%%%
     %                                                                      %
     % You are using vdW-DF, which was implemented by the Thonhauser group. %
     % Please cite the following two papers that made this development      %
     % possible and the two reviews that describe the various versions:     %
     %                                                                      %
     %   T. Thonhauser et al., PRL 115, 136402 (2015).                      %
     %   T. Thonhauser et al., PRB 76, 125112 (2007).                       %
     %   K. Berland et al., Rep. Prog. Phys. 78, 066501 (2015).             %
     %   D.C. Langreth et al., J. Phys.: Condens. Matter 21, 084203 (2009). %
     %                                                                      %
     % If you are calculating stress with vdW-DF, please also cite:         %
     %                                                                      %
     %   R. Sabatini et al., J. Phys.: Condens. Matter 24, 424209 (2012).   %
     %                                                                      %
     %%%%%%%%%%%%%%%%%%%%%%%%%%%%%%%%%%%%%%%%%%%%%%%%%%%%%%%%%%%%%%%%%%%%%%%%

     %%%%%%%%%%%%%%%%%%%%%%%%%%%%%%%%%%%%%%%%%%%%%%%%%%%%%%%%%%%%%%%%%%%%%%%%
     %                                                                      %
     %  vdW-DF NEWS:                                                        %
     %                                                                      %
     %  * vdW-DF3 is now available. DOI: 10.1021/acs.jctc.0c00471           %
     %    use with input_dft = 'vdW-DF3-opt1' or 'vdW-DF3-opt2'             %
     %                                                                      %
     %  * Unscreened and range-separated vdW-DF hybrid functionals          %
     %    DOI: 10.1063/1.4986522 and 10.1088/1361-648X/ac2ad2               %
     %    use with input_dft = 'vdW-DF-cx0' (etc) and 'vdW-DF-ahcx'         %
     %                                                                      %
     %%%%%%%%%%%%%%%%%%%%%%%%%%%%%%%%%%%%%%%%%%%%%%%%%%%%%%%%%%%%%%%%%%%%%%%%


     Carrying out vdW-DF run using the following parameters:
     Nqs    =  20  Npoints =  1024  r_max =  100.000
     q_mesh =  0.00001000  0.04494208  0.09755937  0.15916263
               0.23128650  0.31572767  0.41458969  0.53033537
               0.66584808  0.82450364  1.01025438  1.22772762
               1.48234092  1.78043706  2.12944203  2.53805004
               3.01644009  3.57652955  4.23227104  5.00000000


     -----------------------------------------------
     Non-local corr. energy    =      68.79607111 Ry
     -----------------------------------------------

     Wavefunctions not found or not readable, recomputing them from scratch
     Starting wfcs are 1287 randomized atomic wfcs +   87 random wfcs
     Checking if some PAW data can be deallocated... 
       PAW data deallocated on  162 nodes for type:  1
       PAW data deallocated on   94 nodes for type:  2

     total cpu time spent up to now is       35.4 secs

     Self-consistent Calculation

     iteration #  1     ecut=    70.00 Ry     beta= 0.70
     Davidson diagonalization with overlap

---- Real-time Memory Report at c_bands before calling an iterative solver
           596 MiB given to the printing process from OS
             0 MiB allocation reported by mallinfo(arena+hblkhd)
       1875541 MiB available memory on the node where the printing process lives
------------------
     ethr =  1.00E-05,  avg # of iterations = 23.0

     Threshold (ethr) on eigenvalues was too large:
     Diagonalizing with lowered threshold

     Davidson diagonalization with overlap

---- Real-time Memory Report at c_bands before calling an iterative solver
          1902 MiB given to the printing process from OS
             0 MiB allocation reported by mallinfo(arena+hblkhd)
       1854623 MiB available memory on the node where the printing process lives
------------------
     c_bands:  1 eigenvalues not converged
     ethr =  1.22E-08,  avg # of iterations = 20.0


     -----------------------------------------------
     Non-local corr. energy    =      68.79619906 Ry
     -----------------------------------------------


     total cpu time spent up to now is     1633.9 secs

     total energy              =  -96237.81871692 Ry
     estimated scf accuracy    <       0.00000530 Ry

     iteration #  2     ecut=    70.00 Ry     beta= 0.70
     Davidson diagonalization with overlap

---- Real-time Memory Report at c_bands before calling an iterative solver
          1975 MiB given to the printing process from OS
             0 MiB allocation reported by mallinfo(arena+hblkhd)
       1854230 MiB available memory on the node where the printing process lives
------------------
     c_bands:  1 eigenvalues not converged
     ethr =  2.32E-10,  avg # of iterations = 20.0


     -----------------------------------------------
     Non-local corr. energy    =      68.79618895 Ry
     -----------------------------------------------


     total cpu time spent up to now is     2978.3 secs

     total energy              =  -96237.81869877 Ry
     estimated scf accuracy    <       0.00033404 Ry

     iteration #  3     ecut=    70.00 Ry     beta= 0.70
     Davidson diagonalization with overlap

---- Real-time Memory Report at c_bands before calling an iterative solver
          1975 MiB given to the printing process from OS
             0 MiB allocation reported by mallinfo(arena+hblkhd)
       1854025 MiB available memory on the node where the printing process lives
------------------
     c_bands:  1 eigenvalues not converged
     ethr =  2.32E-10,  avg # of iterations = 20.0


     -----------------------------------------------
     Non-local corr. energy    =      68.79616851 Ry
     -----------------------------------------------


     total cpu time spent up to now is     3988.2 secs

     total energy              =  -96237.81872166 Ry
     estimated scf accuracy    <       0.00000080 Ry

     iteration #  4     ecut=    70.00 Ry     beta= 0.70
     Davidson diagonalization with overlap

---- Real-time Memory Report at c_bands before calling an iterative solver
          1975 MiB given to the printing process from OS
             0 MiB allocation reported by mallinfo(arena+hblkhd)
       1853694 MiB available memory on the node where the printing process lives
------------------
     ethr =  3.51E-11,  avg # of iterations = 20.0


     -----------------------------------------------
     Non-local corr. energy    =      68.79614359 Ry
     -----------------------------------------------


     total cpu time spent up to now is     4620.4 secs

     total energy              =  -96237.81872173 Ry
     estimated scf accuracy    <       0.00000021 Ry

     iteration #  5     ecut=    70.00 Ry     beta= 0.70
     Davidson diagonalization with overlap

---- Real-time Memory Report at c_bands before calling an iterative solver
          1975 MiB given to the printing process from OS
             0 MiB allocation reported by mallinfo(arena+hblkhd)
       1853697 MiB available memory on the node where the printing process lives
------------------
     c_bands:  1 eigenvalues not converged
     ethr =  9.07E-12,  avg # of iterations = 20.0


     -----------------------------------------------
     Non-local corr. energy    =      68.79604301 Ry
     -----------------------------------------------


     total cpu time spent up to now is     5247.8 secs

     End of self-consistent calculation

          k = 0.0000 0.0000 0.0000 (454335 PWs)   bands (ev):

   -40.9078 -40.9078 -40.9078 -40.9077 -40.9077 -40.9077 -40.9074 -40.9074
   -40.9074 -40.9074 -40.9074 -40.9073 -40.9070 -40.9070 -40.9069 -40.9069
   -40.9069 -40.9069 -40.9069 -40.9069 -40.9069 -40.9069 -40.9069 -40.9069
   -40.9063 -40.9063 -40.9063 -40.9062 -40.9062 -40.9062 -40.9037 -40.9037
   -40.9037 -40.9036 -40.9036 -40.9036 -40.9036 -40.9036 -40.9036 -40.9036
   -40.9036 -40.9036 -40.9035 -40.9035 -40.9035 -40.9035 -40.9035 -40.9035
   -40.9035 -40.9035 -40.9035 -40.9035 -40.9035 -40.9034 -40.9034 -40.9034
   -40.9034 -40.9034 -40.9034 -40.9034 -40.9034 -40.9034 -40.9034 -40.9034
   -40.9033 -40.9033 -40.9029 -40.9028 -40.9028 -40.9028 -40.9028 -40.9028
   -40.9028 -40.9028 -40.9028 -40.9028 -40.9027 -40.9027 -40.9027 -40.9027
   -40.9027 -40.9026 -40.9026 -40.9026 -40.9026 -40.9026 -40.9026 -40.9026
   -40.9026 -40.9026 -40.9020 -40.9020 -40.9020 -40.9019 -40.9019 -40.9018
   -40.9013 -40.9013 -40.9012 -40.9012 -40.8994 -40.8994 -40.8994 -40.8994
   -40.8993 -40.8993 -40.8993 -40.8993 -40.8992 -40.8992 -40.8992 -40.8992
   -40.8992 -40.8992 -40.8992 -40.8992 -40.8991 -40.8991 -40.8990 -40.8990
   -40.8990 -40.8990 -40.8990 -40.8990 -40.8990 -40.8990 -40.8990 -40.8990
   -40.8990 -40.8990 -40.8989 -40.8989 -40.8989 -40.8989 -40.8989 -40.8989
   -40.8987 -40.8987 -40.8987 -40.8987 -40.8987 -40.8987 -40.8986 -40.8986
   -40.8986 -40.8986 -40.8986 -40.8986 -40.8986 -40.8985 -40.8985 -40.8985
   -40.8985 -40.8985 -40.8985 -40.8985 -40.8985 -40.8985 -40.8985 -40.8985
   -40.8984 -40.8984 -40.8984 -40.8984 -40.8983 -40.8983 -40.8983 -40.8983
   -40.8983 -40.8983 -40.8983 -40.8982 -40.8982 -40.8982 -40.8982 -40.8982
   -40.8982 -40.8982 -40.8981 -40.8981 -40.8980 -40.8980 -40.8980 -40.8980
   -40.8980 -40.8980 -40.8980 -40.8980 -40.8980 -40.8979 -40.8979 -40.8979
   -40.8979 -40.8979 -40.8979 -40.8979 -40.8979 -40.8979 -40.8979 -40.8979
   -40.8979 -40.8979 -40.8976 -40.8976 -40.8976 -40.8976 -40.8976 -40.8976
   -40.8976 -40.8976 -40.8976 -40.8976 -40.8976 -40.8975 -40.8973 -40.8972
   -40.8972 -40.8972 -40.8972 -40.8971 -40.8958 -40.8958 -40.8957 -40.8957
   -40.8952 -40.8952 -40.8952 -40.8952 -40.8952 -40.8952 -40.8952 -40.8951
   -40.8951 -40.8951 -40.8951 -40.8951 -40.8951 -40.8951 -40.8951 -40.8951
   -40.8950 -40.8950 -40.8950 -40.8949 -40.8949 -40.8949 -40.8949 -40.8949
   -40.8949 -40.8949 -40.8949 -40.8949 -40.8948 -40.8948 -40.8948 -40.8948
   -40.8948 -40.8948 -40.8947 -40.8947 -40.8947 -40.8947 -40.8947 -40.8947
   -40.8946 -40.8945 -40.8945 -40.8945 -40.8945 -40.8945 -40.8945 -40.8944
   -40.8944 -40.8944 -40.8944 -40.8944 -40.8944 -40.8944 -40.8944 -40.8944
   -40.8943 -40.8943 -40.8943 -40.8943 -40.8943 -40.8943 -40.8943 -40.8943
   -40.8943 -40.8943 -40.8871 -40.8871 -40.8870 -40.8869 -40.8869 -40.8869
   -40.8864 -40.8863 -40.8863 -40.8863 -40.8862 -40.8862 -40.8862 -40.8862
   -40.8862 -40.8861 -40.8861 -40.8861 -40.8857 -40.8857 -40.8857 -40.8856
   -40.8856 -40.8856 -40.8856 -40.8855 -40.8855 -40.8855 -40.8854 -40.8854
   -40.8592 -40.8592 -40.8592 -40.8592 -40.8556 -40.8556 -40.8556 -40.8556
   -40.8540 -40.8540 -40.8483 -40.8483 -40.8483 -40.8482 -40.8482 -40.8482
   -40.8479 -40.8479 -40.8479 -40.8478 -40.8478 -40.8478 -40.8458 -40.8458
   -40.8458 -40.8457 -40.8457 -40.8457 -40.8417 -40.8417 -40.8417 -40.8416
   -40.8416 -40.8416 -40.8416 -40.8416 -40.8416 -40.8414 -40.8414 -40.8414
   -40.8006 -40.8005 -40.8005 -40.8004 -40.8004 -40.8004 -40.7996 -40.7996
   -40.7995 -40.7994 -40.7994 -40.7994 -40.7985 -40.7985 -40.7985 -40.7983
   -40.7983 -40.7983 -40.7969 -40.7969 -40.7969 -40.7968 -40.7967 -40.7967
   -40.7963 -40.7962 -40.7962 -40.7961 -40.7961 -40.7961 -40.7874 -40.7874
   -40.7874 -40.7873 -40.7873 -40.7873 -40.7873 -40.7873 -40.7873 -40.7873
   -40.7873 -40.7873 -40.7867 -40.7867 -40.7867 -40.7867 -40.7867 -40.7867
   -40.7867 -40.7867 -40.7867 -40.7867 -40.7866 -40.7866 -40.7773 -40.7773
   -40.7773 -40.7773 -40.7773 -40.7772 -40.7772 -40.7772 -40.7772 -40.7772
   -40.7772 -40.7772 -40.7747 -40.7747 -40.7747 -40.7746 -40.7746 -40.7746
   -40.7746 -40.7746 -40.7746 -40.7746 -40.7746 -40.7745 -40.7727 -40.7727
   -40.7727 -40.7727 -40.7727 -40.7726 -40.7726 -40.7726 -40.7726 -40.7726
   -40.7726 -40.7726 -40.6627 -40.6627 -40.6626 -40.6626 -40.6625 -40.6625
   -40.6619 -40.6619 -40.6619 -40.6619 -40.6618 -40.6618 -40.5902 -40.5902
   -40.5902 -40.5902 -40.5901 -40.5901 -40.5850 -40.5850 -40.5850 -40.5850
   -40.5849 -40.5849 -40.5637 -40.5637 -40.5636 -40.5636 -40.5636 -40.5636
   -13.0689 -13.0689 -13.0688 -13.0688 -13.0674 -13.0674 -13.0630 -13.0630
   -13.0617 -13.0617 -13.0616 -13.0616 -13.0610 -13.0610 -13.0604 -13.0604
   -13.0604 -13.0604 -13.0589 -13.0589 -13.0569 -13.0569 -13.0569 -13.0569
   -13.0556 -13.0555 -13.0555 -13.0555 -13.0555 -13.0555 -13.0501 -13.0500
   -13.0500 -13.0500 -13.0494 -13.0494 -13.0494 -13.0494 -13.0483 -13.0483
   -13.0482 -13.0482 -13.0474 -13.0474 -13.0474 -13.0474 -13.0457 -13.0457
   -13.0454 -13.0454 -13.0449 -13.0449 -13.0448 -13.0448 -13.0443 -13.0443
   -13.0443 -13.0443 -13.0436 -13.0436 -13.0432 -13.0432 -13.0432 -13.0432
   -13.0431 -13.0431 -13.0431 -13.0431 -13.0428 -13.0428 -13.0424 -13.0424
   -13.0423 -13.0423 -13.0415 -13.0415 -13.0415 -13.0415 -13.0414 -13.0414
   -13.0413 -13.0413 -13.0412 -13.0412 -13.0410 -13.0410 -13.0397 -13.0397
   -13.0396 -13.0396 -13.0394 -13.0394 -13.0390 -13.0390 -13.0390 -13.0390
   -13.0385 -13.0385 -13.0384 -13.0384 -13.0382 -13.0381 -13.0381 -13.0381
   -13.0376 -13.0375 -13.0373 -13.0373 -13.0373 -13.0373 -13.0372 -13.0372
   -13.0369 -13.0369 -13.0368 -13.0368 -13.0368 -13.0368 -13.0366 -13.0366
   -13.0361 -13.0361 -13.0360 -13.0360 -13.0358 -13.0358 -13.0348 -13.0348
   -13.0348 -13.0348 -13.0343 -13.0342 -13.0340 -13.0340 -13.0339 -13.0339
   -13.0339 -13.0339 -13.0338 -13.0338 -13.0338 -13.0338 -13.0316 -13.0316
   -13.0315 -13.0315 -13.0313 -13.0313 -13.0308 -13.0308 -13.0308 -13.0308
   -13.0289 -13.0289 -13.0284 -13.0283 -13.0262 -13.0262 -13.0261 -13.0261
   -12.9740 -12.9729 -12.9677 -12.9677 -12.9647 -12.9647 -12.9619 -12.9619
   -12.9613 -12.9613 -12.9584 -12.9565 -12.9527 -12.9526 -12.9506 -12.9506
   -12.9504 -12.9504 -12.9475 -12.9475 -12.9474 -12.9474 -12.9471 -12.9459
   -12.9459 -12.9459 -12.9451 -12.9448 -12.9443 -12.9443 -12.9367 -12.9346
   -12.9346 -12.9316 -12.9315 -12.9314 -12.9208 -12.9208 -12.9200 -12.9197
   -12.9188 -12.9187 -12.9165 -12.9160 -12.9160 -12.9114 -12.9082 -12.9082
   -12.9001 -12.9001 -12.8967 -12.8949 -12.8910 -12.8910 -12.8866 -12.8866
   -12.8866 -12.8859 -12.8851 -12.8851 -12.8841 -12.8841 -12.8827 -12.8795
   -12.8795 -12.8790 -12.8777 -12.8777 -12.8748 -12.8669 -12.8664 -12.8663
   -12.8647 -12.8647 -12.8641  -8.2158  -8.1682  -8.0614  -8.0205  -8.0194
    -8.0194  -8.0146  -8.0145  -8.0091  -7.9806  -7.9802  -7.9801  -7.9751
    -7.9751  -7.9711  -7.9071  -7.8766  -7.8766  -7.8683  -7.8683  -7.7967
    -7.7809  -7.7600  -7.7570  -7.7570  -7.7564  -7.7564  -7.7558  -7.7467
    -7.7398  -7.7382  -7.7381  -7.7381  -7.7371  -7.7371  -7.7362  -7.7357
    -7.7357  -7.7189  -7.7185  -7.7185  -7.6934  -7.6923  -7.6923  -7.6882
    -7.6882  -7.6848  -7.6725  -7.6700  -7.6700  -7.6638  -7.6619  -7.6619
    -7.6532  -7.6513  -7.6513  -7.6453  -7.6453  -7.6340  -7.6303  -7.6268
    -7.6261  -7.6261  -7.6220  -7.6220  -7.6188  -7.6147  -7.6147  -7.6116
    -7.6116  -7.6068  -7.6059  -7.6035  -7.6018  -7.6018  -7.6014  -7.5998
    -7.5998  -7.5953  -7.5687  -7.5687  -7.5622  -7.5428  -7.5414  -7.5414
    -7.5333  -7.5333  -7.5010  -7.5010  -7.4831  -7.4409  -7.4151  -7.4151
    -7.3448  -7.3447  -7.3199  -3.7636  -3.7624  -3.7624  -3.7584  -3.7570
    -3.7570  -3.7504  -3.7503  -3.7503  -3.7503  -3.7484  -3.7484  -3.7482
    -3.7482  -3.7456  -3.7448  -3.7435  -3.7431  -3.6592  -3.6592  -3.6570
    -3.6327  -3.6327  -3.6173  -3.6042  -3.6042  -3.4960  -3.4960  -3.4954
    -3.4934  -3.4934  -3.4934  -3.4837  -3.4836  -3.4829  -3.4813  -3.4813
    -3.4809  -3.4155  -3.3984  -3.3717  -3.3717  -3.3224  -3.3223  -3.2965
    -3.2520  -3.1519   0.7933   0.7933   0.7936   0.8654   0.8654   0.8689
     1.0665   1.0665   1.0714   1.0839   1.0843   1.0845   1.0845   1.0930
     1.0930   1.1246   1.1246   1.1285   1.1419   1.1419   1.1506   1.2899
     1.2899   1.2935   1.3020   1.3020   1.3077   1.3471   1.3477   1.3502
     1.3502   1.3512   1.3512   1.3532   1.3532   1.3594   1.3702   1.3702
     1.3761   1.3788   1.3788   1.3792   1.3792   1.3811   1.4007   1.4276
     1.4337   1.4413   1.4413   1.4484   1.4484   1.4512   1.4512   1.4622
     1.4853   1.5737   1.5737   1.6474   1.6604   1.6604   1.6751   1.6896
     1.6896   1.7121   1.7283   1.7283   1.7321   1.7321   1.7334   1.7347
     1.7377   1.7377   1.7932   1.7961   1.7961   1.7974   1.7974   1.8052
     1.8157   1.8157   1.8279   1.8735   1.8735   1.8739   1.8848   1.8889
     1.8889   1.9407   1.9413   1.9425   1.9425   1.9433   1.9456   1.9456
     1.9489   1.9489   1.9632   1.9809   1.9809   1.9831   1.9831   1.9843
     2.0279   2.0416   2.0545   2.0545   2.0637   2.0637   2.0712   2.0712
     2.1129   2.1149   2.1166   2.1167   2.1174   2.1179   2.1183   2.1183
     2.1377   2.1377   2.1532   2.1532   2.1602   2.1681   2.1681   2.1684
     2.1696   2.1872   2.1872   2.2259   2.2288   2.2301   2.2422   2.2422
     2.2444   2.2445   2.2552   2.2620   2.2621   2.2976   2.3624   2.3689
     2.3878   2.3879   2.4530   2.4530   2.4634   2.4741   2.4741   2.4873
     2.4873   2.4886   2.4977   2.4982   2.5014   2.5014   2.5303   2.5337
     2.5337   2.5535   2.5535   2.5580   2.5744   2.5744   2.5815   2.5816
     2.6275   2.6275   2.6402   2.6491   2.6549   2.6581   2.6613   2.6613
     2.6714   2.6714   2.6736   2.6736   2.6879   2.6888   2.6888   2.7407
     2.7407   2.7423   2.7475   2.7555   2.7555   2.7625   2.7625   2.7660
     2.7666   2.7666   2.7672   2.7683   2.7683   2.7724   2.7724   2.7747
     2.7798   2.7834   2.7834   2.7858   2.7858   2.7897   2.8050   2.8390
     2.8390   2.8479   2.8479   2.8482   2.8509   2.8513   2.8513   2.8540
     2.8540   2.8613   2.8637   2.8674   2.8674   2.8700   2.8700   2.8834
     2.8931   2.8931   2.8935   2.8994   2.8994   2.9088   2.9088   2.9097
     2.9193   2.9193   2.9282   2.9331   2.9347   2.9347   2.9487   2.9498
     2.9498   2.9572   2.9626   2.9626   2.9801   3.0420   3.0534   3.0534
     3.0640   3.0640   3.0706   3.0973   3.0973   3.0985   3.0985   3.1084
     3.1108   3.1471   3.1471   3.1645   3.1645   3.1688   3.1770   3.2311
     3.2311   3.2418   3.2418   3.2427   3.2429   3.2429   3.2440   3.2461
     3.2497   3.2497   3.2536   3.3002   3.3002   3.3173   3.3214   3.3215
     3.3215   3.3613   3.3709   3.3709   3.3776   3.3886   3.3886   3.4091
     3.4091   3.4138   5.8544   5.9286   6.1176   6.3766   6.3766   6.3766
     6.3785   6.3786   6.3786   6.4453   6.4453   6.4673   6.4736   6.4767
     6.4767   6.5118   6.5118   6.5333   6.6914   6.6914   6.6930   6.6991
     6.6991   6.7129   6.7129   6.7215   6.7261   6.7261   6.7350   6.7468
     6.7468   6.8428   6.8429   6.9170   6.9178   6.9178   6.9179   6.9203
     6.9203   6.9368   6.9457   6.9457   6.9626   6.9804   6.9804   6.9951
     7.0156   7.0156   7.0575   7.0591   7.0591   7.0598   7.0601   7.0601
     7.1075   7.1107   7.1108   7.1166   7.1289   7.1289   7.1476   7.1492
     7.1492   7.1503   7.1503   7.1541   7.2142   7.2176   7.2176   7.2180
     7.2180   7.2204   7.2205   7.2205   7.2215   7.2271   7.2271   7.2298
     7.2319   7.2319   7.2378   7.2378   7.2412   7.2466   7.2478   7.2478
     7.2496   7.2755   7.2777   7.2777   7.2924   7.3082   7.3082   7.3529
     7.3529   7.3681   7.3783   7.3789   7.3789   7.3797   7.3807   7.3807
     7.3858   7.3978   7.4160   7.4160   7.4273   7.4273   7.4334   7.4355
     7.4355   7.4822   7.4835   7.4835   7.4975   7.4975   7.5018   7.5294
     7.5294   7.5504   7.5664   7.5891   7.5891   7.5915   7.5915   7.5923
     7.5993   7.6065   7.6065   7.6073   7.6225   7.6225   7.6235   7.7073
     7.7073   7.7268   7.7268   7.7918   7.9671   7.9841   7.9841   9.1129
     9.1134   9.1135   9.4841   9.4843   9.4843   9.5936   9.6090   9.6090
     9.6918   9.7210   9.7211   9.7256   9.7277   9.7287   9.7287   9.8052
     9.8053   9.8129   9.8333   9.8725   9.8725   9.9699   9.9699   9.9744
     9.9744   9.9896  10.0071  10.1216  10.1407  10.1407  10.1500  10.1749
    10.1763  10.1763  10.2008  10.2008  10.2008  10.2008  10.2131  10.2131
    10.2196  10.2215  10.2267  10.2478  10.2478  10.2549  10.2595  10.3274
    10.3489  10.3489  10.3676  10.4061  10.4061  10.4869  10.5519  10.5519
    10.5596  10.5871  10.5871  10.6996  10.6996  10.7030  10.7031  10.7102
    10.7261  10.7282  10.7369  10.7370  10.7387  10.8227  10.8257  10.8257
    10.8501  10.8521  10.8521  10.8643  10.8644  10.9105  10.9105  10.9201
    10.9484  10.9507  10.9513  10.9513  10.9727  10.9849

     occupation numbers 
     1.0000   1.0000   1.0000   1.0000   1.0000   1.0000   1.0000   1.0000
     1.0000   1.0000   1.0000   1.0000   1.0000   1.0000   1.0000   1.0000
     1.0000   1.0000   1.0000   1.0000   1.0000   1.0000   1.0000   1.0000
     1.0000   1.0000   1.0000   1.0000   1.0000   1.0000   1.0000   1.0000
     1.0000   1.0000   1.0000   1.0000   1.0000   1.0000   1.0000   1.0000
     1.0000   1.0000   1.0000   1.0000   1.0000   1.0000   1.0000   1.0000
     1.0000   1.0000   1.0000   1.0000   1.0000   1.0000   1.0000   1.0000
     1.0000   1.0000   1.0000   1.0000   1.0000   1.0000   1.0000   1.0000
     1.0000   1.0000   1.0000   1.0000   1.0000   1.0000   1.0000   1.0000
     1.0000   1.0000   1.0000   1.0000   1.0000   1.0000   1.0000   1.0000
     1.0000   1.0000   1.0000   1.0000   1.0000   1.0000   1.0000   1.0000
     1.0000   1.0000   1.0000   1.0000   1.0000   1.0000   1.0000   1.0000
     1.0000   1.0000   1.0000   1.0000   1.0000   1.0000   1.0000   1.0000
     1.0000   1.0000   1.0000   1.0000   1.0000   1.0000   1.0000   1.0000
     1.0000   1.0000   1.0000   1.0000   1.0000   1.0000   1.0000   1.0000
     1.0000   1.0000   1.0000   1.0000   1.0000   1.0000   1.0000   1.0000
     1.0000   1.0000   1.0000   1.0000   1.0000   1.0000   1.0000   1.0000
     1.0000   1.0000   1.0000   1.0000   1.0000   1.0000   1.0000   1.0000
     1.0000   1.0000   1.0000   1.0000   1.0000   1.0000   1.0000   1.0000
     1.0000   1.0000   1.0000   1.0000   1.0000   1.0000   1.0000   1.0000
     1.0000   1.0000   1.0000   1.0000   1.0000   1.0000   1.0000   1.0000
     1.0000   1.0000   1.0000   1.0000   1.0000   1.0000   1.0000   1.0000
     1.0000   1.0000   1.0000   1.0000   1.0000   1.0000   1.0000   1.0000
     1.0000   1.0000   1.0000   1.0000   1.0000   1.0000   1.0000   1.0000
     1.0000   1.0000   1.0000   1.0000   1.0000   1.0000   1.0000   1.0000
     1.0000   1.0000   1.0000   1.0000   1.0000   1.0000   1.0000   1.0000
     1.0000   1.0000   1.0000   1.0000   1.0000   1.0000   1.0000   1.0000
     1.0000   1.0000   1.0000   1.0000   1.0000   1.0000   1.0000   1.0000
     1.0000   1.0000   1.0000   1.0000   1.0000   1.0000   1.0000   1.0000
     1.0000   1.0000   1.0000   1.0000   1.0000   1.0000   1.0000   1.0000
     1.0000   1.0000   1.0000   1.0000   1.0000   1.0000   1.0000   1.0000
     1.0000   1.0000   1.0000   1.0000   1.0000   1.0000   1.0000   1.0000
     1.0000   1.0000   1.0000   1.0000   1.0000   1.0000   1.0000   1.0000
     1.0000   1.0000   1.0000   1.0000   1.0000   1.0000   1.0000   1.0000
     1.0000   1.0000   1.0000   1.0000   1.0000   1.0000   1.0000   1.0000
     1.0000   1.0000   1.0000   1.0000   1.0000   1.0000   1.0000   1.0000
     1.0000   1.0000   1.0000   1.0000   1.0000   1.0000   1.0000   1.0000
     1.0000   1.0000   1.0000   1.0000   1.0000   1.0000   1.0000   1.0000
     1.0000   1.0000   1.0000   1.0000   1.0000   1.0000   1.0000   1.0000
     1.0000   1.0000   1.0000   1.0000   1.0000   1.0000   1.0000   1.0000
     1.0000   1.0000   1.0000   1.0000   1.0000   1.0000   1.0000   1.0000
     1.0000   1.0000   1.0000   1.0000   1.0000   1.0000   1.0000   1.0000
     1.0000   1.0000   1.0000   1.0000   1.0000   1.0000   1.0000   1.0000
     1.0000   1.0000   1.0000   1.0000   1.0000   1.0000   1.0000   1.0000
     1.0000   1.0000   1.0000   1.0000   1.0000   1.0000   1.0000   1.0000
     1.0000   1.0000   1.0000   1.0000   1.0000   1.0000   1.0000   1.0000
     1.0000   1.0000   1.0000   1.0000   1.0000   1.0000   1.0000   1.0000
     1.0000   1.0000   1.0000   1.0000   1.0000   1.0000   1.0000   1.0000
     1.0000   1.0000   1.0000   1.0000   1.0000   1.0000   1.0000   1.0000
     1.0000   1.0000   1.0000   1.0000   1.0000   1.0000   1.0000   1.0000
     1.0000   1.0000   1.0000   1.0000   1.0000   1.0000   1.0000   1.0000
     1.0000   1.0000   1.0000   1.0000   1.0000   1.0000   1.0000   1.0000
     1.0000   1.0000   1.0000   1.0000   1.0000   1.0000   1.0000   1.0000
     1.0000   1.0000   1.0000   1.0000   1.0000   1.0000   1.0000   1.0000
     1.0000   1.0000   1.0000   1.0000   1.0000   1.0000   1.0000   1.0000
     1.0000   1.0000   1.0000   1.0000   1.0000   1.0000   1.0000   1.0000
     1.0000   1.0000   1.0000   1.0000   1.0000   1.0000   1.0000   1.0000
     1.0000   1.0000   1.0000   1.0000   1.0000   1.0000   1.0000   1.0000
     1.0000   1.0000   1.0000   1.0000   1.0000   1.0000   1.0000   1.0000
     1.0000   1.0000   1.0000   1.0000   1.0000   1.0000   1.0000   1.0000
     1.0000   1.0000   1.0000   1.0000   1.0000   1.0000   1.0000   1.0000
     1.0000   1.0000   1.0000   1.0000   1.0000   1.0000   1.0000   1.0000
     1.0000   1.0000   1.0000   1.0000   1.0000   1.0000   1.0000   1.0000
     1.0000   1.0000   1.0000   1.0000   1.0000   1.0000   1.0000   1.0000
     1.0000   1.0000   1.0000   1.0000   1.0000   1.0000   1.0000   1.0000
     1.0000   1.0000   1.0000   1.0000   1.0000   1.0000   1.0000   1.0000
     1.0000   1.0000   1.0000   1.0000   1.0000   1.0000   1.0000   1.0000
     1.0000   1.0000   1.0000   1.0000   1.0000   1.0000   1.0000   1.0000
     1.0000   1.0000   1.0000   1.0000   1.0000   1.0000   1.0000   1.0000
     1.0000   1.0000   1.0000   1.0000   1.0000   1.0000   1.0000   1.0000
     1.0000   1.0000   1.0000   1.0000   1.0000   1.0000   1.0000   1.0000
     1.0000   1.0000   1.0000   1.0000   1.0000   1.0000   1.0000   1.0000
     1.0000   1.0000   1.0000   1.0000   1.0000   1.0000   1.0000   1.0000
     1.0000   1.0000   1.0000   1.0000   1.0000   1.0000   1.0000   1.0000
     1.0000   1.0000   1.0000   1.0000   1.0000   1.0000   1.0000   1.0000
     1.0000   1.0000   1.0000   1.0000   1.0000   1.0000   1.0000   1.0000
     1.0000   1.0000   1.0000   1.0000   1.0000   1.0000   1.0000   1.0000
     1.0000   1.0000   1.0000   1.0000   1.0000   1.0000   1.0000   1.0000
     1.0000   1.0000   1.0000   1.0000   1.0000   1.0000   1.0000   1.0000
     1.0000   1.0000   1.0000   1.0000   1.0000   1.0000   1.0000   1.0000
     1.0000   1.0000   1.0000   1.0000   1.0000   1.0000   1.0000   1.0000
     1.0000   1.0000   1.0000   1.0000   1.0000   1.0000   1.0000   1.0000
     1.0000   1.0000   1.0000   1.0000   1.0000   1.0000   1.0000   1.0000
     1.0000   1.0000   1.0000   1.0000   1.0000   1.0000   1.0000   1.0000
     1.0000   1.0000   1.0000   1.0000   1.0000   1.0000   1.0000   1.0000
     1.0000   1.0000   1.0000   1.0000   1.0000   1.0000   1.0000   1.0000
     1.0000   1.0000   1.0000   1.0000   1.0000   1.0000   1.0000   1.0000
     1.0000   1.0000   1.0000   1.0000   1.0000   1.0000   1.0000   1.0000
     1.0000   1.0000   1.0000   1.0000   1.0000   1.0000   1.0000   1.0000
     1.0000   1.0000   1.0000   1.0000   1.0000   1.0000   1.0000   1.0000
     1.0000   1.0000   1.0000   1.0000   1.0000   1.0000   1.0000   1.0000
     1.0000   1.0000   1.0000   1.0000   1.0000   1.0000   1.0000   1.0000
     1.0000   1.0000   1.0000   1.0000   1.0000   1.0000   1.0000   1.0000
     1.0000   1.0000   1.0000   1.0000   1.0000   1.0000   1.0000   1.0000
     1.0000   1.0000   1.0000   1.0000   1.0000   1.0000   1.0000   1.0000
     1.0000   1.0000   1.0000   1.0000   1.0000   1.0000   1.0000   1.0000
     1.0000   1.0000   1.0000   1.0000   1.0000   1.0000   1.0000   1.0000
     1.0000   1.0000   1.0000   1.0000   1.0000   1.0000   1.0000   1.0000
     1.0000   1.0000   1.0000   1.0000   1.0000   1.0000   1.0000   1.0000
     1.0000   1.0000   1.0000   1.0000   1.0000   1.0000   1.0000   1.0000
     1.0000   1.0000   1.0000   1.0000   1.0000   1.0000   1.0000   1.0000
     1.0000   1.0000   1.0000   1.0000   1.0000   1.0000   1.0000   1.0000
     1.0000   1.0000   1.0000   1.0000   1.0000   1.0000   1.0000   1.0000
     1.0000   1.0000   1.0000   1.0000   1.0000   1.0000   1.0000   1.0000
     1.0000   1.0000   1.0000   1.0000   1.0000   1.0000   1.0000   1.0000
     1.0000   1.0000   1.0000   1.0000   1.0000   1.0000   1.0000   1.0000
     1.0000   1.0000   1.0000   1.0000   1.0000   1.0000   1.0000   1.0000
     1.0000   1.0000   1.0000   1.0000   1.0000   1.0000   1.0000   1.0000
     1.0000   1.0000   1.0000   1.0000   1.0000   1.0000   1.0000   1.0000
     1.0000   1.0000   1.0000   1.0000   1.0000   1.0000   1.0000   1.0000
     1.0000   1.0000   1.0000   1.0000   1.0000   1.0000   1.0000   1.0000
     1.0000   1.0000   1.0000   1.0000   1.0000   1.0000   1.0000   1.0000
     1.0000   1.0000   1.0000   1.0000   1.0000   1.0000   1.0000   1.0000
     1.0000   1.0000   1.0000   1.0000   1.0000   1.0000   1.0000   1.0000
     1.0000   1.0000   1.0000   1.0000   1.0000   1.0000   1.0000   1.0000
     1.0000   1.0000   1.0000   1.0000   1.0000   1.0000   1.0000   1.0000
     1.0000   1.0000   1.0000   1.0000   1.0000   1.0000   1.0000   1.0000
     1.0000   1.0000   1.0000   1.0000   1.0000   1.0000   1.0000   1.0000
     1.0000   1.0000   1.0000   1.0000   1.0000   1.0000   1.0000   1.0000
     1.0000   1.0000   1.0000   1.0000   1.0000   1.0000   1.0000   1.0000
     1.0000   1.0000   1.0000   1.0000   1.0000   1.0000   1.0000   1.0000
     1.0000   1.0000   1.0000   1.0000   1.0000   1.0000   1.0000   1.0000
     1.0000   1.0000   1.0000   1.0000   1.0000   1.0000   1.0000   1.0000
     1.0000   1.0000   1.0000   1.0000   1.0000   1.0000   1.0000   1.0000
     1.0000   1.0000   1.0000   1.0000   1.0000   1.0000   1.0000   1.0000
     1.0000   1.0000   1.0000   1.0000   1.0000   1.0000   1.0000   1.0000
     1.0000   1.0000   1.0000   1.0000   1.0000   1.0000   1.0000   1.0000
     1.0000   1.0000   1.0000   1.0000   1.0000   1.0000   1.0000   1.0000
     1.0000   1.0000   1.0000   1.0000   1.0000   1.0000   1.0000   1.0000
     1.0000   1.0000   1.0000   1.0000   1.0000   1.0000   1.0000   1.0000
     1.0000   1.0000   1.0000   1.0000   1.0000   1.0000   1.0000   1.0000
     1.0000   1.0000   1.0000   1.0000   1.0000   1.0000   1.0000   1.0000
     1.0000   1.0000   1.0000   1.0000   1.0000   1.0000   1.0000   1.0000
     1.0000   1.0000   1.0000   1.0000   1.0000   1.0000   1.0000   1.0000
     1.0000   1.0000   1.0000   1.0000   1.0000   1.0000   1.0000   1.0000
     1.0000   1.0000   1.0000   1.0000   1.0000   1.0000   1.0000   1.0000
     1.0000   1.0000   1.0000   1.0000   1.0000   1.0000   1.0000   1.0000
     1.0000   1.0000   1.0000   1.0000   1.0000   1.0000   1.0000   1.0000
     1.0000   1.0000   1.0000   1.0000   1.0000   1.0000   1.0000   1.0000
     1.0000   0.9999   0.9999   0.9999   0.9999   0.9998   0.9998   0.9985
     0.9985   0.9978   0.9978   0.9977   0.9977   0.9977   0.9976   0.9975
     0.9972   0.9972   0.9968   0.9875   0.9875   0.9804   0.9783   0.9782
     0.9782   0.9458   0.9339   0.9338   0.9245   0.9068   0.9068   0.8661
     0.8660   0.8552   0.0000   0.0000   0.0000   0.0000   0.0000   0.0000
     0.0000   0.0000   0.0000   0.0000   0.0000   0.0000   0.0000   0.0000
     0.0000   0.0000   0.0000   0.0000   0.0000   0.0000   0.0000   0.0000
     0.0000   0.0000   0.0000   0.0000   0.0000   0.0000   0.0000   0.0000
     0.0000   0.0000   0.0000   0.0000   0.0000   0.0000   0.0000   0.0000
     0.0000   0.0000   0.0000   0.0000   0.0000   0.0000   0.0000   0.0000
     0.0000   0.0000   0.0000   0.0000   0.0000   0.0000   0.0000   0.0000
     0.0000   0.0000   0.0000   0.0000   0.0000   0.0000   0.0000   0.0000
     0.0000   0.0000   0.0000   0.0000   0.0000   0.0000   0.0000   0.0000
     0.0000   0.0000   0.0000   0.0000   0.0000   0.0000   0.0000   0.0000
     0.0000   0.0000   0.0000   0.0000   0.0000   0.0000   0.0000   0.0000
     0.0000   0.0000   0.0000   0.0000   0.0000   0.0000   0.0000   0.0000
     0.0000   0.0000   0.0000   0.0000   0.0000   0.0000   0.0000   0.0000
     0.0000   0.0000   0.0000   0.0000   0.0000   0.0000   0.0000   0.0000
     0.0000   0.0000   0.0000   0.0000   0.0000   0.0000   0.0000   0.0000
     0.0000   0.0000   0.0000   0.0000   0.0000   0.0000   0.0000   0.0000
     0.0000   0.0000   0.0000   0.0000   0.0000   0.0000   0.0000   0.0000
     0.0000   0.0000   0.0000   0.0000   0.0000   0.0000   0.0000   0.0000
     0.0000   0.0000   0.0000   0.0000   0.0000   0.0000   0.0000   0.0000
     0.0000   0.0000   0.0000   0.0000   0.0000   0.0000   0.0000   0.0000
     0.0000   0.0000   0.0000   0.0000   0.0000   0.0000   0.0000   0.0000
     0.0000   0.0000   0.0000   0.0000   0.0000   0.0000   0.0000   0.0000
     0.0000   0.0000   0.0000   0.0000   0.0000   0.0000   0.0000   0.0000
     0.0000   0.0000   0.0000   0.0000   0.0000   0.0000   0.0000   0.0000
     0.0000   0.0000   0.0000   0.0000   0.0000   0.0000   0.0000   0.0000
     0.0000   0.0000   0.0000   0.0000   0.0000   0.0000   0.0000   0.0000
     0.0000   0.0000   0.0000   0.0000   0.0000   0.0000   0.0000   0.0000
     0.0000   0.0000   0.0000   0.0000   0.0000   0.0000   0.0000   0.0000
     0.0000   0.0000   0.0000   0.0000   0.0000   0.0000

     the Fermi energy is     3.5157 ev

!    total energy              =  -96237.81872164 Ry
     total all-electron energy =  -3331665.431458 Ry
     estimated scf accuracy    <       0.00000004 Ry
     smearing contrib. (-TS)   =      -0.02632783 Ry
     internal energy E=F+TS    =  -96237.79239381 Ry

     The total energy is F=E-TS. E is the sum of the following terms:
     one-electron contribution =  -17948.68874304 Ry
     hartree contribution      =   10008.97703682 Ry
     xc contribution           =   -6770.93997781 Ry
     ewald contribution        =  -14686.57654370 Ry
     one-center paw contrib.   =  -66840.56416608 Ry
      -> PAW hartree energy AE =      95.90958509 Ry
      -> PAW hartree energy PS =     -96.14635384 Ry
      -> PAW xc energy AE      =    -798.43044250 Ry
      -> PAW xc energy PS      =      33.31037606 Ry
      -> total E_H with PAW    =   10008.74026807 Ry
      -> total E_XC with PAW   =   -7536.06004425 Ry

     convergence has been achieved in   5 iterations


     -----------------------------------------------
     Non-local corr. energy    =      68.79604301 Ry
     -----------------------------------------------


     Forces acting on atoms (cartesian axes, Ry/au):

     atom    1 type  1   force =    -0.00000172    0.00000159   -0.00086052
     atom    2 type  1   force =     0.00000074    0.00000291    0.00084861
     atom    3 type  1   force =     0.00039983   -0.00069776    0.00000871
     atom    4 type  1   force =     0.00004616   -0.00046341   -0.00053529
     atom    5 type  1   force =     0.00037417   -0.00026663    0.00052955
     atom    6 type  1   force =    -0.00000077   -0.00000028    0.00000812
     atom    7 type  1   force =    -0.00021540   -0.00012638   -0.00028756
     atom    8 type  1   force =     0.00021662    0.00012358    0.00028545
     atom    9 type  1   force =    -0.00040128    0.00068750    0.00000748
     atom   10 type  1   force =    -0.00037691    0.00026814   -0.00052901
     atom   11 type  1   force =    -0.00004222    0.00045752    0.00052529
     atom   12 type  1   force =    -0.00079738    0.00000471    0.00000384
     atom   13 type  1   force =    -0.00042036    0.00019303   -0.00053200
     atom   14 type  1   force =    -0.00041668   -0.00018806    0.00052624
     atom   15 type  1   force =    -0.00040015   -0.00069459    0.00000819
     atom   16 type  1   force =    -0.00004506   -0.00046058   -0.00053445
     atom   17 type  1   force =    -0.00037294   -0.00026605    0.00052729
     atom   18 type  1   force =     0.00000013   -0.00030191   -0.00089379
     atom   19 type  1   force =     0.00000209   -0.00027135   -0.00028987
     atom   20 type  1   force =     0.00000116   -0.00004771    0.00024012
     atom   21 type  1   force =    -0.00025812    0.00015123   -0.00089362
     atom   22 type  1   force =    -0.00023158    0.00013453   -0.00028704
     atom   23 type  1   force =    -0.00004006    0.00002525    0.00024212
     atom   24 type  1   force =    -0.00000097    0.00000167    0.00000423
     atom   25 type  1   force =     0.00000185    0.00025019   -0.00028882
     atom   26 type  1   force =    -0.00000008   -0.00024809    0.00028532
     atom   27 type  1   force =    -0.00026270   -0.00014865    0.00090339
     atom   28 type  1   force =    -0.00004182   -0.00002475   -0.00024421
     atom   29 type  1   force =    -0.00023151   -0.00013333    0.00028616
     atom   30 type  1   force =    -0.00000109    0.00000021    0.00000747
     atom   31 type  1   force =     0.00021675   -0.00012471   -0.00028844
     atom   32 type  1   force =    -0.00021576    0.00012344    0.00028277
     atom   33 type  1   force =     0.00026004    0.00015190   -0.00089176
     atom   34 type  1   force =     0.00023514    0.00013527   -0.00028823
     atom   35 type  1   force =     0.00004079    0.00002494    0.00024023
     atom   36 type  1   force =     0.00080275    0.00000363    0.00000722
     atom   37 type  1   force =     0.00042078    0.00019134   -0.00053665
     atom   38 type  1   force =     0.00041461   -0.00018917    0.00052617
     atom   39 type  1   force =     0.00025872   -0.00014838    0.00090432
     atom   40 type  1   force =     0.00004272   -0.00002612   -0.00024732
     atom   41 type  1   force =     0.00023037   -0.00013440    0.00028635
     atom   42 type  1   force =    -0.00000203    0.00030133    0.00090468
     atom   43 type  1   force =    -0.00000106    0.00004812   -0.00024630
     atom   44 type  1   force =    -0.00000146    0.00026503    0.00028343
     atom   45 type  1   force =     0.00039819    0.00068913    0.00001046
     atom   46 type  1   force =     0.00037504    0.00026886   -0.00053354
     atom   47 type  1   force =     0.00004148    0.00045654    0.00052279
     atom   48 type  2   force =     0.00000418   -0.00009890    0.00039831
     atom   49 type  2   force =    -0.00000175   -0.00012795   -0.00007941
     atom   50 type  2   force =    -0.00000035    0.00057823   -0.00078119
     atom   51 type  2   force =    -0.00008566    0.00005105    0.00039976
     atom   52 type  2   force =    -0.00011431    0.00006758   -0.00006559
     atom   53 type  2   force =     0.00049681   -0.00027872   -0.00078011
     atom   54 type  2   force =    -0.00001716    0.00011908   -0.00007334
     atom   55 type  2   force =    -0.00009809    0.00000396   -0.00016969
     atom   56 type  2   force =     0.00032872   -0.00021049   -0.00027776
     atom   57 type  2   force =     0.00009337   -0.00007630   -0.00007222
     atom   58 type  2   force =    -0.00004496   -0.00009157   -0.00018171
     atom   59 type  2   force =    -0.00000573    0.00037265   -0.00027679
     atom   60 type  2   force =     0.00022104   -0.00013267   -0.00004047
     atom   61 type  2   force =     0.00000210   -0.00000413   -0.00005147
     atom   62 type  2   force =    -0.00017875    0.00009507    0.00009697
     atom   63 type  2   force =     0.00008589    0.00004790    0.00039685
     atom   64 type  2   force =     0.00010914    0.00006922   -0.00007389
     atom   65 type  2   force =    -0.00050742   -0.00028219   -0.00078291
     atom   66 type  2   force =    -0.00000652    0.00025694   -0.00003455
     atom   67 type  2   force =    -0.00000519    0.00000568   -0.00003887
     atom   68 type  2   force =    -0.00001198   -0.00020958    0.00009520
     atom   69 type  2   force =     0.00004918    0.00002668   -0.00020283
     atom   70 type  2   force =    -0.00005965   -0.00003590   -0.00010293
     atom   71 type  2   force =     0.00001964    0.00000270    0.00038401
     atom   72 type  2   force =    -0.00000132   -0.00006301   -0.00020275
     atom   73 type  2   force =     0.00000170    0.00006326   -0.00010373
     atom   74 type  2   force =     0.00000414   -0.00002611    0.00037600
     atom   75 type  2   force =     0.00010948   -0.00004258   -0.00007210
     atom   76 type  2   force =     0.00005577    0.00008615   -0.00018178
     atom   77 type  2   force =    -0.00033124   -0.00017889   -0.00028414
     atom   78 type  2   force =     0.00002204    0.00011620   -0.00006974
     atom   79 type  2   force =     0.00009651    0.00000675   -0.00017660
     atom   80 type  2   force =    -0.00032456   -0.00020084   -0.00028387
     atom   81 type  2   force =    -0.00005795    0.00003190   -0.00020049
     atom   82 type  2   force =     0.00005608   -0.00003361   -0.00009945
     atom   83 type  2   force =    -0.00002698    0.00000991    0.00037435
     atom   84 type  2   force =    -0.00021994   -0.00012790   -0.00003092
     atom   85 type  2   force =    -0.00000093    0.00000171   -0.00004235
     atom   86 type  2   force =     0.00017718    0.00011337    0.00009126
     atom   87 type  2   force =    -0.00011098   -0.00003610   -0.00007190
     atom   88 type  2   force =    -0.00005086    0.00008918   -0.00016988
     atom   89 type  2   force =     0.00034924   -0.00017447   -0.00028380
     atom   90 type  2   force =     0.00000389   -0.00000151   -0.00003452
     atom   91 type  2   force =     0.00000185   -0.00000055   -0.00028757
     atom   92 type  2   force =     0.00001239   -0.00000336   -0.00052080
     atom   93 type  2   force =    -0.00008451   -0.00007633   -0.00006865
     atom   94 type  2   force =     0.00004399   -0.00008863   -0.00018005
     atom   95 type  2   force =     0.00001172    0.00037726   -0.00028286
     atom   96 type  2   force =     0.00051078    0.00030111    0.00077252
     atom   97 type  2   force =    -0.00010903   -0.00006006    0.00008095
     atom   98 type  2   force =    -0.00009527   -0.00003965   -0.00039499
     atom   99 type  2   force =     0.00017098   -0.00009167   -0.00012851
     atom  100 type  2   force =    -0.00000827    0.00000584    0.00005310
     atom  101 type  2   force =    -0.00023592    0.00014118    0.00004741
     atom  102 type  2   force =    -0.00003654   -0.00002559   -0.00041365
     atom  103 type  2   force =     0.00004978    0.00002805    0.00011400
     atom  104 type  2   force =    -0.00006415   -0.00004619    0.00021599
     atom  105 type  2   force =     0.00000787    0.00019560   -0.00011150
     atom  106 type  2   force =    -0.00000091   -0.00000922    0.00005257
     atom  107 type  2   force =    -0.00000094   -0.00027610    0.00004089
     atom  108 type  2   force =    -0.00050520    0.00028711    0.00079155
     atom  109 type  2   force =     0.00011111   -0.00006653    0.00008133
     atom  110 type  2   force =     0.00008542   -0.00004666   -0.00040135
     atom  111 type  2   force =    -0.00000676   -0.00058987    0.00077207
     atom  112 type  2   force =    -0.00000347    0.00012781    0.00007808
     atom  113 type  2   force =    -0.00001048    0.00010819   -0.00039146
     atom  114 type  2   force =    -0.00001158   -0.00041086    0.00026262
     atom  115 type  2   force =     0.00003810    0.00007956    0.00019227
     atom  116 type  2   force =    -0.00010757    0.00006113    0.00007745
     atom  117 type  2   force =    -0.00035583    0.00019295    0.00027462
     atom  118 type  2   force =     0.00008759   -0.00000439    0.00019221
     atom  119 type  2   force =     0.00000779   -0.00013103    0.00007362
     atom  120 type  2   force =    -0.00035006    0.00020590    0.00027595
     atom  121 type  2   force =     0.00004984   -0.00007183    0.00019271
     atom  122 type  2   force =     0.00011496    0.00006089    0.00007160
     atom  123 type  2   force =    -0.00017100   -0.00009833   -0.00011495
     atom  124 type  2   force =     0.00000810    0.00000287    0.00005233
     atom  125 type  2   force =     0.00023977    0.00014295    0.00003835
     atom  126 type  2   force =     0.00000016   -0.00040946    0.00026710
     atom  127 type  2   force =    -0.00003552    0.00007733    0.00019510
     atom  128 type  2   force =     0.00010353    0.00007027    0.00007267
     atom  129 type  2   force =    -0.00000610   -0.00000293    0.00051493
     atom  130 type  2   force =     0.00000016   -0.00000019    0.00031116
     atom  131 type  2   force =    -0.00000033   -0.00000524    0.00003183
     atom  132 type  2   force =     0.00034619    0.00021107    0.00026399
     atom  133 type  2   force =    -0.00005130   -0.00007179    0.00019115
     atom  134 type  2   force =    -0.00010805    0.00006388    0.00007000
     atom  135 type  2   force =     0.00000555    0.00005060   -0.00041453
     atom  136 type  2   force =     0.00000183   -0.00005736    0.00011157
     atom  137 type  2   force =     0.00000283    0.00008115    0.00020889
     atom  138 type  2   force =     0.00004048   -0.00002467   -0.00041171
     atom  139 type  2   force =    -0.00004700    0.00002856    0.00011389
     atom  140 type  2   force =     0.00006987   -0.00004047    0.00020814
     atom  141 type  2   force =     0.00035341    0.00019823    0.00026987
     atom  142 type  2   force =    -0.00008773   -0.00000764    0.00019292
     atom  143 type  2   force =    -0.00000733   -0.00012391    0.00006868
     The non-local contrib.  to forces
     atom    1 type  1   force =     0.00000183   -0.00002362   -0.00146297
     atom    2 type  1   force =     0.00000788   -0.00003304    0.00146823
     atom    3 type  1   force =     0.03367166   -0.05832876    0.00000738
     atom    4 type  1   force =     0.00039027    0.00055947   -0.00079978
     atom    5 type  1   force =    -0.00069197   -0.00008294    0.00078868
     atom    6 type  1   force =     0.00000398   -0.00002577   -0.00000698
     atom    7 type  1   force =     0.00033871    0.00016464   -0.00017758
     atom    8 type  1   force =    -0.00032482   -0.00022987    0.00018933
     atom    9 type  1   force =    -0.03366946    0.05829623   -0.00000919
     atom   10 type  1   force =     0.00069932    0.00001344   -0.00079081
     atom   11 type  1   force =    -0.00038044   -0.00061674    0.00079595
     atom   12 type  1   force =    -0.06733277   -0.00003555   -0.00002056
     atom   13 type  1   force =     0.00031839   -0.00065402   -0.00078491
     atom   14 type  1   force =     0.00032593    0.00059443    0.00079754
     atom   15 type  1   force =    -0.03364014   -0.05833322    0.00000921
     atom   16 type  1   force =    -0.00038684    0.00055597   -0.00079674
     atom   17 type  1   force =     0.00070833   -0.00008231    0.00079275
     atom   18 type  1   force =     0.00002305   -0.00689507    0.01273396
     atom   19 type  1   force =     0.00000115   -0.00082893   -0.00170549
     atom   20 type  1   force =     0.00000865   -0.00011048    0.00062920
     atom   21 type  1   force =    -0.00591762    0.00338062    0.01272449
     atom   22 type  1   force =    -0.00069159    0.00037051   -0.00170711
     atom   23 type  1   force =    -0.00005396    0.00000219    0.00062016
     atom   24 type  1   force =     0.00001058   -0.00004296   -0.00001022
     atom   25 type  1   force =     0.00000936   -0.00041459   -0.00018008
     atom   26 type  1   force =     0.00001821    0.00035446    0.00017878
     atom   27 type  1   force =    -0.00591343   -0.00346277   -0.01274766
     atom   28 type  1   force =    -0.00005839   -0.00006425   -0.00062330
     atom   29 type  1   force =    -0.00067805   -0.00043972    0.00170662
     atom   30 type  1   force =     0.00003202   -0.00003286   -0.00000162
     atom   31 type  1   force =    -0.00033333    0.00016595   -0.00018230
     atom   32 type  1   force =     0.00034821   -0.00022829    0.00018841
     atom   33 type  1   force =     0.00595639    0.00337717    0.01272926
     atom   34 type  1   force =     0.00069652    0.00037120   -0.00171398
     atom   35 type  1   force =     0.00007705    0.00000562    0.00061165
     atom   36 type  1   force =     0.06734886   -0.00003562   -0.00001544
     atom   37 type  1   force =    -0.00030686   -0.00065431   -0.00078667
     atom   38 type  1   force =    -0.00029672    0.00059579    0.00079320
     atom   39 type  1   force =     0.00594910   -0.00346434   -0.01274128
     atom   40 type  1   force =     0.00007301   -0.00006745   -0.00061966
     atom   41 type  1   force =     0.00070895   -0.00044077    0.00170820
     atom   42 type  1   force =     0.00001382    0.00681149   -0.01274332
     atom   43 type  1   force =     0.00000390    0.00004431   -0.00061122
     atom   44 type  1   force =     0.00001329    0.00076632    0.00172326
     atom   45 type  1   force =     0.03369338    0.05828016   -0.00000099
     atom   46 type  1   force =    -0.00069655    0.00001420   -0.00079077
     atom   47 type  1   force =     0.00040023   -0.00061662    0.00079882
     atom   48 type  2   force =     0.00002273   -0.00091665    0.25148262
     atom   49 type  2   force =     0.00000698   -0.00062423    0.24592743
     atom   50 type  2   force =    -0.00000110   -0.14064717    0.18890627
     atom   51 type  2   force =    -0.00078583    0.00047449    0.25149734
     atom   52 type  2   force =    -0.00054413    0.00033570    0.24593012
     atom   53 type  2   force =    -0.12182668    0.07035971    0.18887916
[...]
              0.132660922090792E+03
              0.444754231883479E+03
              0.975943573151194E+02
             -0.351002758596641E+03
             -0.511536676376210E+03
              0.537488916809116E+01
             -0.575357186510433E+03
              0.195200333723083E+03
             -0.116490311067268E+03
             -0.270185633837956E+03
              0.242976694352058E+03
              0.932113428225357E+02
              0.219198365401806E+03
              0.194224410080515E+02
              0.349090567189725E+03
             -0.570475899602783E+03
             -0.522624251388916E+02
             -0.497547267561337E+03
              0.897298183025250E+02
              0.269472294512866E+03
             -0.497119716567713E+02
             -0.187394875702332E+03
              0.400874161525457E+03
             -0.185865138102917E+03
              0.130597788538412E+03
             -0.116581160966905E+03
              0.286199042413373E+03
              0.345628368047245E+03
             -0.149053143654798E+03
              0.297366443113990E+03
              0.114107557604572E+03
             -0.306615504473622E+03
             -0.183405951757602E+03
              0.494450169652142E+03
              0.234348040056697E+03
             -0.226180775821056E+02
             -0.664894289519916E+02
              0.726798845753728E+03
              0.435848569364747E+03
              0.159744613856653E+03
             -0.465688131095815E+03
              0.729471443617012E+03
             -0.329866121446621E+03
             -0.409010730706161E+03
             -0.633535592954319E+03
              0.305359332714527E+03
             -0.579644585136823E+03
              0.251370695796682E+03
              0.412684351929344E+03
              0.305858870664287E+03
              0.648949302702266E+02
              0.182358150241464E+03
             -0.456861770155950E+03
             -0.162468779742689E+03
             -0.147326940760980E+03
              0.220701466794977E+03
              0.492676600259151E+03
              0.485701190705132E+03
              0.371744126450675E+03
             -0.917939331574935E+02
              0.132012540153117E+03
              0.185056584039366E+02
             -0.145992923483498E+03
              0.217810002141570E+03
              0.208554646634504E+03
             -0.297533285594720E+03
             -0.301293617236838E+03
             -0.138120844664176E+03
              0.320013301992286E+03
              0.162865126651019E+03
             -0.217938472174814E+03
             -0.379595372927497E+03
             -0.521523608348746E+03
              0.108749863332769E+02
              0.148487232690081E+03
             -0.201765515161858E+03
              0.740866783367612E+03
              0.697929484451606E+01
             -0.860604233108230E+03
              0.215817961062783E+03
              0.355175638743514E+03
             -0.129011104587809E+03
              0.136261939963225E+02
             -0.194610986102903E+03
              0.330468208105169E+03
              0.163123385288773E+03
             -0.434873173535657E+03
              0.516426928418112E+03
              0.351489705891279E+02
             -0.206231374212760E+03
             -0.254256895455266E+03
              0.103530177022996E+04
              0.462759989754347E+03
             -0.116121239879551E+03
              0.255329594188131E+03
             -0.504552801709014E+03
             -0.109468170540711E+03
             -0.448433991573749E+03
              0.173227293292066E+03
              0.321850834240890E+03
              0.353993441634971E+03
             -0.155151548607155E+03
              0.268671324420675E+02
              0.441100932313959E+03
              0.141086189959806E+03
              0.262954834616105E+03
              0.106960360898587E+03
             -0.592100451365422E+02
              0.112899120880661E+01
             -0.820156905528520E+02
              0.914079954442855E+02
              0.306929099691306E+02
             -0.400661767990998E+03
              0.613855314947820E+03
              0.236221197117179E+03
             -0.435020007583633E+03
             -0.319659106591713E+03
             -0.451243660224473E+03
             -0.195616502470049E+03
             -0.141869438079112E+03
             -0.356965049877511E+03
             -0.352374689648431E+03
              0.424213110961183E+03
              0.337683725605410E+03
             -0.466382075438255E+02
              0.506923930088818E+03
              0.731155034665044E+02
             -0.814608802549790E+03
              0.437406863996255E+03
              0.746485637880792E+02
              0.343483210778573E+03
              0.464342982936680E+02
              0.386772844222057E+02
              0.699661668902986E+02
              0.185585924728601E+03
             -0.339922102897988E+03
             -0.160382908793729E+03
             -0.321393595339346E+03
             -0.266017110789674E+03
              0.110826939462806E+03
             -0.295108766170921E+03
              0.142219209440776E+03
              0.195289838339774E+03
             -0.180915164384246E+03
             -0.115524429536194E+03
              0.759724750335977E+01
              0.506391449736941E+03
              0.766277065557392E+02
              0.486123016137617E+03
              0.174242413405867E+03
             -0.642676551429477E+03
             -0.213138496022244E+03
              0.219155412504709E+03
              0.505681998591210E+03
              0.834808007061604E+02
              0.207850220284308E+03
              0.465337115391179E+03
             -0.269463602803348E+03
             -0.413628623112430E+03
              0.573551294578624E+03
              0.333495609270103E+02
             -0.606223457966265E+03
              0.221452977452866E+03
              0.383707624442696E+03
             -0.981693458286336E+02
             -0.399628419076344E+03
              0.832901241381255E+02
              0.172152695886580E+02
             -0.194190331772209E+03
              0.742973465880750E+02
             -0.647089564323245E+02
              0.901944818692316E+03
              0.262569402621665E+03
             -0.382007709424593E+03
              0.112855391079977E+03
              0.549164163961133E+03
             -0.371223798386625E+03
             -0.966435483247649E+02
             -0.351079689934625E+03
              0.281310306116035E+03
              0.889844585706571E+02
              0.186022340266539E+03
              0.337008262941079E+02
              0.637954321787119E+03
             -0.362794256698875E+03
             -0.286541227142274E+03
             -0.276612460115723E+03
              0.243020383320598E+03
              0.633942753303507E+03
             -0.105978433681161E+03
              0.259399796902172E+03
             -0.368412101653593E+03
              0.707097583741358E+02
             -0.117950167815285E+03
              0.257925957387661E+02
             -0.142816830481688E+03
             -0.116452224753958E+03
             -0.114377500096056E+03
              0.942422036492621E+02
              0.184228002387467E+03
             -0.401703741243700E+03
              0.297484029808082E+03
             -0.478828051835669E+03
              0.361311614474941E+03
             -0.381830164475030E+03
              0.618938896836579E+03
              0.340031771068634E+03
              0.391403682449002E+03
              0.971829329348143E+02
              0.114259065982761E+03
             -0.855033000176491E+03
              0.138792126311976E+03
              0.313890626944876E+02
              0.815747470007573E+02
             -0.139580958025605E+03
              0.661035413863102E+03
             -0.153510341078560E+03
             -0.273276064246755E+03
             -0.639726788974378E+03
             -0.221993869471853E+03
             -0.306927170364198E+03
             -0.266816425376119E+03
             -0.602507992012274E+02
             -0.146129191657417E+03
             -0.185738707780155E+03
             -0.284663149147907E+03
              0.217861973502017E+03
              0.686857634418363E+03
              0.580306061708256E+03
             -0.102967080157788E+03
             -0.697620056449997E+03
             -0.297417221076433E+03
              0.142621181739501E+03
              0.142716263902540E+03
              0.228069895653646E+03
              0.160269617068036E+03
              0.283063283475976E+02
              0.681582552393953E+03
             -0.165685375992615E+03
              0.334857354170149E+03
              0.172213248749345E+03
             -0.232120256575560E+03
             -0.111259919808568E+03
              0.308798791038489E+03
             -0.164966479331074E+03
             -0.101322489952028E+03
             -0.751129357416223E+02
              0.397646519819596E+03
             -0.523010091404951E+03
             -0.419769188780865E+02
             -0.403623554099045E+03
             -0.857623838674708E+03
             -0.225246491156122E+01
             -0.126522246837870E+03
              0.333303919928423E+03
              0.370607816251105E+03
              0.506880751499805E+03
             -0.329635176862306E+03
              0.512426302617948E+03
              0.128124772837017E+03
             -0.190247137060559E+03
              0.684413387847892E+02
             -0.161838718620536E+03
             -0.957528525095022E+02
              0.295968753073133E+03
             -0.245109428588203E+03
              0.657489459736956E+03
             -0.175330410914993E+03
             -0.363403776727218E+03
              0.687583177274030E+03
             -0.372196549303439E+03
             -0.299785379719588E+02
              0.361893695452218E+02
              0.198475176140898E+03
             -0.290506387843237E+03
             -0.221367270100980E+03
              0.353138304386680E+03
             -0.531280573965903E+03
              0.438155424925181E+03
              0.647682973511202E+02
              0.313948388269783E+03
              0.454946833689474E+03
              0.116528530372169E+03
             -0.632189248521026E+03
             -0.273583675934942E+03
             -0.456328484556474E+03
             -0.271493314537633E+03
             -0.723425704991223E+02
              0.979356640747162E+02
             -0.212913739200688E+03
             -0.368720934459816E+01
             -0.634815991119775E+03
              0.354720303763258E+02
             -0.409371968427031E+03
              0.396826437436571E+03
             -0.232629919225814E+03
             -0.560249692605883E+02
              0.299516901797053E+03
              0.592081473476720E+02
              0.278385821422532E+03
             -0.530677818455707E+03
              0.882328544233505E+02
              0.362573831826314E+02
              0.228443272124036E+03
              0.366197249566408E+03
             -0.676672346825881E+02
             -0.416912782791728E+03
             -0.240986334417024E+03
             -0.170115877416429E+03
             -0.501415112819741E+02
              0.388773387643203E+03
              0.252390534982439E+03
             -0.255690366428407E+03
             -0.239868745773495E+03
              0.176100625505185E+03
              0.191828908077098E+03
             -0.518248382675660E+03
              0.120856952247299E+03
              0.371698514882928E+03
             -0.165402021032247E+02
              0.468114035048212E+03
              0.216242202419354E+03
              0.368391704831135E+03
              0.560016029676774E+03
              0.844646022640443E+02
             -0.763189573857369E+03
              0.105296489286579E+03
              0.825069153335088E+03
              0.599739686371423E+03
             -0.413530788691712E+03
              0.373129157000279E+02
              0.536750549513597E+03
              0.465216073845704E+03
              0.204508167131044E+03
             -0.123724695302590E+03
              0.205354702473539E+03
              0.425219364567466E+03
             -0.196548125649208E+03
             -0.126523960063253E+03
              0.287996632139421E+03
             -0.173229365092732E+02
              0.258490118971772E+03
             -0.800110964280800E+02
              0.539166470437166E+03
             -0.205741212136545E+03
              0.123753128972107E+03
             -0.228519189566686E+03
              0.266882745384322E+03
             -0.362230134658057E+02
              0.397633119959068E+03
              0.284293568153676E+02
              0.177978882311936E+03
             -0.252826251084526E+03
             -0.176841515472640E+03
             -0.901805033612939E+02
             -0.821222819975330E+02
              0.432859253191532E+03
              0.213019169272530E+03
              0.525348124489091E+03
              0.484843084864752E+03
              0.136003826116970E+03
              0.244490030146071E+02
              0.516735029180921E+03
              0.290414934404460E+03
              0.436062566215696E+00
              0.503261904992577E+03
             -0.413054230928999E+03
              0.144806076043063E+03
             -0.269101737405074E+03
             -0.730126166593614E+02
              0.695898015015218E+03
             -0.974482167161141E+02
             -0.290001398032637E+02
             -0.757471583888955E+02
              0.571685867696459E+03
             -0.122762799747043E+03
             -0.104899331921006E+02
              0.115338011274618E+04
             -0.341403094191377E+03
             -0.426094225266755E+03
             -0.426484722870794E+03
             -0.272441545181626E+03
              0.248356414299869E+03
             -0.111508021015229E+03
              0.631819931066138E+02
             -0.289322038732971E+02
              0.146126938176578E+03
              0.234737957450344E+03
              0.273591967881417E+03
              0.393714785336175E+03
              0.252246159217644E+03
              0.257127498862656E+03
             -0.475862860244467E+03
             -0.491459821084063E+03
             -0.110782650481965E+03
             -0.439284789570097E+03
              0.697449527996402E+03
              0.587547049461004E+03
              0.277110539694433E+03
              0.763883260240020E+03
             -0.381776875045806E+03
             -0.164396835839327E+03
             -0.236968885208632E+03
              0.660852498128151E+03
 
 BEEF-vdW xc energy contributions
            1 :    -5973.391511294911     
            2 :     5473.460351908059     
            3 :    -4621.182940624431     
            4 :     3643.811410997110     
            5 :    -2755.090938757588     
            6 :     2086.504840034017     
            7 :    -1666.048759347237     
            8 :     1438.004996724934     
            9 :    -1305.105101407335     
           10 :     1175.152224940914     
           11 :    -996.2490227035105     
           12 :     768.3121667648447     
           13 :    -528.7691012642808     
           14 :     323.7383609566732     
           15 :    -182.1669844437893     
           16 :     104.9115987612331     
           17 :    -69.83559051345037     
           18 :     46.31553204268766     
           19 :    -10.77673901947855     
           20 :    -43.47660389312477     
           21 :     105.8959062760923     
           22 :    -157.3116285492524     
           23 :     182.4453586254895     
           24 :    -179.0722948233979     
           25 :     158.9427734462633     
           26 :    -140.7936729906160     
           27 :     140.0887530140080     
           28 :    -161.1466243064860     
           29 :     195.4128942679945     
           30 :    -226.3930365049400     
           31 :    -513.8224016014765     
           32 :    -369.5977087088750     

     Writing all to output data dir ./PbI2.save/
 
     init_run     :     32.24s CPU     33.34s WALL (       1 calls)
     electrons    :   5142.02s CPU   5221.93s WALL (       1 calls)
     forces       :     11.04s CPU     11.51s WALL (       1 calls)
     stress       :    178.63s CPU    180.21s WALL (       1 calls)

     Called by init_run:
     wfcinit      :     26.14s CPU     26.76s WALL (       1 calls)
     wfcinit:atom :      0.03s CPU      0.07s WALL (       1 calls)
     wfcinit:wfcr :     25.85s CPU     26.28s WALL (       1 calls)
     potinit      :      1.42s CPU      1.64s WALL (       1 calls)
     hinit0       :      0.71s CPU      0.76s WALL (       1 calls)

     Called by electrons:
     c_bands      :   5066.14s CPU   5143.82s WALL (       6 calls)
     sum_band     :     59.54s CPU     60.93s WALL (       6 calls)
     v_of_rho     :      4.90s CPU      5.00s WALL (       6 calls)
     v_h          :      0.09s CPU      0.09s WALL (       6 calls)
     v_xc         :     32.25s CPU     32.65s WALL (      42 calls)
     newd         :      1.48s CPU      1.99s WALL (       6 calls)
     PAW_pot      :      1.69s CPU      1.71s WALL (       6 calls)
     mix_rho      :      0.14s CPU      0.15s WALL (       6 calls)
     vdW_kernel   :      0.14s CPU      0.15s WALL (       1 calls)

     Called by c_bands:
     init_us_2    :      0.61s CPU      0.69s WALL (      13 calls)
     init_us_2:cp :      0.61s CPU      0.69s WALL (      13 calls)
     cegterg      :   5063.70s CPU   5137.37s WALL (       7 calls)

     Called by sum_band:
     sum_band:wei :      0.01s CPU      0.01s WALL (       6 calls)
     sum_band:loo :     57.77s CPU     58.27s WALL (       6 calls)
     sum_band:buf :      0.00s CPU      0.00s WALL (       6 calls)
     sum_band:ini :      0.49s CPU      0.49s WALL (       6 calls)
     sum_band:cal :     12.47s CPU     12.57s WALL (       6 calls)
     sum_band:bec :      0.21s CPU      0.21s WALL (       6 calls)
     addusdens    :      1.55s CPU      2.15s WALL (       6 calls)
     addusd:skk   :      0.20s CPU      0.24s WALL (      12 calls)
     addusd:dgemm :      0.83s CPU      1.38s WALL (      12 calls)
     addusd:qvan2 :      0.48s CPU      0.49s WALL (      12 calls)

     Called by *egterg:
     cdiaghg      :   4265.94s CPU   4310.56s WALL (     128 calls)
     cegterg:over :    111.98s CPU    116.54s WALL (     123 calls)
     cegterg:upda :     64.81s CPU     65.77s WALL (     123 calls)
     cegterg:last :     40.15s CPU     40.52s WALL (       9 calls)
     h_psi        :    525.10s CPU    531.23s WALL (     131 calls)
     s_psi        :     49.64s CPU     50.97s WALL (     131 calls)
     g_psi        :      0.23s CPU      0.23s WALL (     123 calls)

     Called by h_psi:
     h_psi:calbec :     56.53s CPU     57.03s WALL (     131 calls)
     vloc_psi     :    417.87s CPU    421.51s WALL (     131 calls)
     vloc_psi:tg_ :      0.04s CPU      0.05s WALL (     131 calls)
     add_vuspsi   :     49.86s CPU     51.25s WALL (     131 calls)

     General routines
     calbec       :     79.37s CPU     80.09s WALL (     142 calls)
     fft          :     27.27s CPU     27.56s WALL (    2484 calls)
     ffts         :      0.14s CPU      0.14s WALL (      12 calls)
     fftw         :    455.52s CPU    459.44s WALL (   77678 calls)
     interpolate  :      0.16s CPU      0.17s WALL (       6 calls)
 
     Parallel routines
     fft_scatt_xy :      8.44s CPU      8.53s WALL (   80174 calls)
     fft_scatt_yz :    427.38s CPU    430.80s WALL (   80174 calls)
     fft_scatt_tg :      0.50s CPU      0.51s WALL (   77678 calls)

     PAW routines
     PAW_pot      :      1.69s CPU      1.71s WALL (       6 calls)
 
     PWSCF        :      1h30m CPU      1h31m WALL

 
   This run was terminated on:  11:31:40  19Feb2024            

=------------------------------------------------------------------------------=
   JOB DONE.
=------------------------------------------------------------------------------=
