
     Program PWSCF v.7.1 starts on 16Feb2024 at  8:46:32 

     This program is part of the open-source Quantum ESPRESSO suite
     for quantum simulation of materials; please cite
         "P. Giannozzi et al., J. Phys.:Condens. Matter 21 395502 (2009);
         "P. Giannozzi et al., J. Phys.:Condens. Matter 29 465901 (2017);
         "P. Giannozzi et al., J. Chem. Phys. 152 154105 (2020);
          URL http://www.quantum-espresso.org", 
     in publications or presentations arising from this work. More details at
     http://www.quantum-espresso.org/quote

     Parallel version (MPI & OpenMP), running on     256 processor cores
     Number of MPI processes:               256
     Threads/MPI process:                     1

     MPI processes distributed on     2 nodes
     1937454 MiB available memory on the printing compute node when the environment starts
 
     Reading input from espresso.pwi
Warning: card &CELL ignored
Warning: card    CELL_DYNAMICS    = 'BFGS' ignored
Warning: card / ignored

     Current dimensions of program PWSCF are:
     Max number of different atomic species (ntypx) = 10
     Max number of k-points (npk) =  40000
     Max angular momentum in pseudopotentials (lmaxx) =  4
     file Pb.pbe-dn-kjpaw_psl.1.0.0.UPF: wavefunction(s)  6S 6P 5D renormalized
     file I.pbe-dn-kjpaw_psl.1.0.0.UPF: wavefunction(s)  5S 5P renormalized

     **************************************************************************
     Initializing libbeef V0.1.2 with the BEEF-vdW functional.
     Citation: Wellendorff et al., PRB 85, 235149 (2012).
     **************************************************************************


     IMPORTANT: XC functional enforced from input :
     Exchange-correlation= BEEF-VDW
                           (   1   4  43  14   2   0   0)
     Any further DFT definition will be discarded
     Please, verify this is what you really want

 
     R & G space division:  proc/nbgrp/npool/nimage =     256
     WARNING: too many processors for an effective parallelization!
     wavefunctions fft division:  task group distribution
                                  #TG    x Z-proc =       8     32
     Subspace diagonalization in iterative solution of the eigenvalue problem:
     a serial algorithm will be used

 
     Parallelization info
     --------------------
     sticks:   dense  smooth     PW     G-vecs:    dense   smooth      PW
     Min         119      95     23                19837    14191    1763
     Max         120      96     24                19846    14206    1780
     Sum       30589   24439   6121              5079105  3634441  454335
 
     Using Pencil Decomposition
 


     bravais-lattice index     =            4
     lattice parameter (alat)  =      35.6120  a.u.
     unit-cell volume          =   45937.3577 (a.u.)^3
     number of atoms/cell      =          143
     number of atomic types    =            2
     number of electrons       =      2290.00
     number of Kohn-Sham states=         1374
     kinetic-energy cutoff     =      70.0000  Ry
     charge density cutoff     =     350.0000  Ry
     scf convergence threshold =      1.0E-07
     mixing beta               =       0.7000
     number of iterations used =            8  plain     mixing
     energy convergence thresh.=      1.0E-04
     force convergence thresh. =      1.0E-03
     Exchange-correlation= BEEF-VDW
                           (   1   4  43  14   2   0   0)
     nstep                     =           50


     celldm(1)=  35.612033  celldm(2)=   0.000000  celldm(3)=   1.174479
     celldm(4)=   0.000000  celldm(5)=   0.000000  celldm(6)=   0.000000

     crystal axes: (cart. coord. in units of alat)
               a(1) = (   1.000000   0.000000   0.000000 )  
               a(2) = (  -0.500000   0.866025   0.000000 )  
               a(3) = (   0.000000   0.000000   1.174479 )  

     reciprocal axes: (cart. coord. in units 2 pi/alat)
               b(1) = (  1.000000  0.577350 -0.000000 )  
               b(2) = (  0.000000  1.154701  0.000000 )  
               b(3) = (  0.000000 -0.000000  0.851442 )  


     PseudoPot. # 1 for Pb read from file:
     //group///packages/espresso/pseudo/psl_1.0.0/pslibrary.1.0.0/pbe/PSEUDOPOTENTIALS/Pb.pbe-dn-kjpaw_psl.1.0.0.UPF
     MD5 check sum: 39ab5b8a6bbd56b7735ad9f188aac93a
     Pseudo is Projector augmented-wave + core cor, Zval = 14.0
     Generated using 'atomic' code by A. Dal Corso  v.7.1
     Shape of augmentation charge: PSQ
     Using radial grid of 1281 points,  6 beta functions with: 
                l(1) =   0
                l(2) =   0
                l(3) =   1
                l(4) =   1
                l(5) =   2
                l(6) =   2
     Q(r) pseudized with 0 coefficients 


     PseudoPot. # 2 for I  read from file:
     //group///packages/espresso/pseudo/psl_1.0.0/pslibrary.1.0.0/pbe/PSEUDOPOTENTIALS/I.pbe-dn-kjpaw_psl.1.0.0.UPF
     MD5 check sum: bfa8781bc1224d19af3f3980e3fab11e
     Pseudo is Projector augmented-wave + core cor, Zval = 17.0
     Generated using 'atomic' code by A. Dal Corso  v.7.1
     Shape of augmentation charge: PSQ
     Using radial grid of 1247 points,  6 beta functions with: 
                l(1) =   0
                l(2) =   0
                l(3) =   1
                l(4) =   1
                l(5) =   2
                l(6) =   2
     Q(r) pseudized with 0 coefficients 


     atomic species   valence    mass     pseudopotential
        Pb            14.00   207.20000     Pb( 1.00)
        I             17.00   126.90447     I ( 1.00)

     No symmetry found


                                    s                        frac. trans.

      isym =  1     identity                                     

 cryst.   s( 1) = (     1          0          0      )
                  (     0          1          0      )
                  (     0          0          1      )

 cart.    s( 1) = (  1.0000000  0.0000000  0.0000000 )
                  (  0.0000000  1.0000000  0.0000000 )
                  (  0.0000000  0.0000000  1.0000000 )


     point group C_1 (1)    
     there are  1 classes
     the character table:

       E    
A      1.00

     the symmetry operations in each class and the name of the first element:

     E        1
          identity                                               

   Cartesian axes

     site n.     atom                  positions (alat units)
         1           Pb  tau(   1) = (   0.1250034   0.2164918   0.3914896  )
         2           Pb  tau(   2) = (   0.1250085   0.2164873   0.7829825  )
         3           Pb  tau(   3) = (   0.0000128   0.4329881   1.1744712  )
         4           Pb  tau(   4) = (   0.0000026   0.4329971   0.3914855  )
         5           Pb  tau(   5) = (   0.0000077   0.4329926   0.7829784  )
         6           Pb  tau(   6) = (  -0.1249881   0.6494934   1.1744671  )
         7           Pb  tau(   7) = (  -0.1249983   0.6495025   0.3914814  )
         8           Pb  tau(   8) = (  -0.1249932   0.6494980   0.7829742  )
         9           Pb  tau(   9) = (  -0.2499889   0.8659988   1.1744630  )
        10           Pb  tau(  10) = (  -0.2499991   0.8660078   0.3914773  )
        11           Pb  tau(  11) = (  -0.2499940   0.8660033   0.7829701  )
        12           Pb  tau(  12) = (   0.3750136   0.2164818   1.1744786  )
        13           Pb  tau(  13) = (   0.3750034   0.2164908   0.3914929  )
        14           Pb  tau(  14) = (   0.3750085   0.2164863   0.7829857  )
        15           Pb  tau(  15) = (   0.2500128   0.4329871   1.1744745  )
        16           Pb  tau(  16) = (   0.2500026   0.4329962   0.3914888  )
        17           Pb  tau(  17) = (   0.2500077   0.4329916   0.7829816  )
        18           Pb  tau(  18) = (   0.1250119   0.6494925   1.1744703  )
        19           Pb  tau(  19) = (   0.1250017   0.6495015   0.3914847  )
        20           Pb  tau(  20) = (   0.1250068   0.6494970   0.7829775  )
        21           Pb  tau(  21) = (   0.0000111   0.8659978   1.1744662  )
        22           Pb  tau(  22) = (   0.0000009   0.8660069   0.3914805  )
        23           Pb  tau(  23) = (   0.0000060   0.8660024   0.7829734  )
        24           Pb  tau(  24) = (   0.6250136   0.2164808   1.1744818  )
        25           Pb  tau(  25) = (   0.6250034   0.2164898   0.3914962  )
        26           Pb  tau(  26) = (   0.6250085   0.2164853   0.7829890  )
        27           Pb  tau(  27) = (   0.5000128   0.4329862   1.1744777  )
        28           Pb  tau(  28) = (   0.5000026   0.4329952   0.3914920  )
        29           Pb  tau(  29) = (   0.5000077   0.4329907   0.7829849  )
        30           Pb  tau(  30) = (   0.3750119   0.6494915   1.1744736  )
        31           Pb  tau(  31) = (   0.3750017   0.6495006   0.3914879  )
        32           Pb  tau(  32) = (   0.3750068   0.6494960   0.7829808  )
        33           Pb  tau(  33) = (   0.2500111   0.8659969   1.1744695  )
        34           Pb  tau(  34) = (   0.2500009   0.8660059   0.3914838  )
        35           Pb  tau(  35) = (   0.2500060   0.8660014   0.7829766  )
        36           Pb  tau(  36) = (   0.8750136   0.2164798   1.1744851  )
        37           Pb  tau(  37) = (   0.8750034   0.2164889   0.3914994  )
        38           Pb  tau(  38) = (   0.8750085   0.2164844   0.7829923  )
        39           Pb  tau(  39) = (   0.7500128   0.4329852   1.1744810  )
        40           Pb  tau(  40) = (   0.7500026   0.4329942   0.3914953  )
        41           Pb  tau(  41) = (   0.7500077   0.4329897   0.7829881  )
        42           Pb  tau(  42) = (   0.6250119   0.6494906   1.1744769  )
        43           Pb  tau(  43) = (   0.6250017   0.6494996   0.3914912  )
        44           Pb  tau(  44) = (   0.6250068   0.6494951   0.7829840  )
        45           Pb  tau(  45) = (   0.5000111   0.8659959   1.1744727  )
        46           Pb  tau(  46) = (   0.5000009   0.8660050   0.3914870  )
        47           Pb  tau(  47) = (   0.5000060   0.8660004   0.7829799  )
        48           I   tau(  48) = (   0.1250054   0.0721550   0.2909325  )
        49           I   tau(  49) = (   0.1250105   0.0721505   0.6824253  )
        50           I   tau(  50) = (   0.1250156   0.0721459   1.0739182  )
        51           I   tau(  51) = (   0.0000045   0.2886603   0.2909283  )
        52           I   tau(  52) = (   0.0000096   0.2886558   0.6824212  )
        53           I   tau(  53) = (   0.0000147   0.2886513   1.0739140  )
        54           I   tau(  54) = (  -0.1249963   0.5051657   0.2909242  )
        55           I   tau(  55) = (  -0.1249912   0.5051612   0.6824171  )
        56           I   tau(  56) = (  -0.1249861   0.5051566   1.0739099  )
        57           I   tau(  57) = (  -0.2499971   0.7216710   0.2909201  )
        58           I   tau(  58) = (  -0.2499920   0.7216665   0.6824129  )
        59           I   tau(  59) = (  -0.2499869   0.7216620   1.0739058  )
        60           I   tau(  60) = (   0.3750054   0.0721540   0.2909357  )
        61           I   tau(  61) = (   0.3750105   0.0721495   0.6824286  )
        62           I   tau(  62) = (   0.3750156   0.0721450   1.0739214  )
        63           I   tau(  63) = (   0.2500045   0.2886594   0.2909316  )
        64           I   tau(  64) = (   0.2500096   0.2886548   0.6824244  )
        65           I   tau(  65) = (   0.2500147   0.2886503   1.0739173  )
        66           I   tau(  66) = (   0.1250037   0.5051647   0.2909275  )
        67           I   tau(  67) = (   0.1250088   0.5051602   0.6824203  )
        68           I   tau(  68) = (   0.1250139   0.5051557   1.0739132  )
        69           I   tau(  69) = (   0.0000029   0.7216701   0.2909233  )
        70           I   tau(  70) = (   0.0000080   0.7216656   0.6824162  )
        71           I   tau(  71) = (   0.0000131   0.7216610   1.0739090  )
        72           I   tau(  72) = (   0.6250054   0.0721530   0.2909390  )
        73           I   tau(  73) = (   0.6250105   0.0721485   0.6824318  )
        74           I   tau(  74) = (   0.6250156   0.0721440   1.0739247  )
        75           I   tau(  75) = (   0.5000045   0.2886584   0.2909348  )
        76           I   tau(  76) = (   0.5000096   0.2886539   0.6824277  )
        77           I   tau(  77) = (   0.5000147   0.2886494   1.0739205  )
        78           I   tau(  78) = (   0.3750037   0.5051638   0.2909307  )
        79           I   tau(  79) = (   0.3750088   0.5051592   0.6824236  )
        80           I   tau(  80) = (   0.3750139   0.5051547   1.0739164  )
        81           I   tau(  81) = (   0.2500029   0.7216691   0.2909266  )
        82           I   tau(  82) = (   0.2500080   0.7216646   0.6824194  )
        83           I   tau(  83) = (   0.2500131   0.7216601   1.0739123  )
        84           I   tau(  84) = (   0.8750054   0.0721521   0.2909422  )
        85           I   tau(  85) = (   0.8750105   0.0721476   0.6824351  )
        86           I   tau(  86) = (   0.8750156   0.0721430   1.0739279  )
        87           I   tau(  87) = (   0.7500045   0.2886574   0.2909381  )
        88           I   tau(  88) = (   0.7500096   0.2886529   0.6824310  )
        89           I   tau(  89) = (   0.7500147   0.2886484   1.0739238  )
        90           I   tau(  90) = (   0.6250037   0.5051628   0.2909340  )
        91           I   tau(  91) = (   0.6250088   0.5051583   0.6824268  )
        92           I   tau(  92) = (   0.6250139   0.5051538   1.0739197  )
        93           I   tau(  93) = (   0.5000029   0.7216681   0.2909299  )
        94           I   tau(  94) = (   0.5000080   0.7216636   0.6824227  )
        95           I   tau(  95) = (   0.5000131   0.7216591   1.0739156  )
        96           I   tau(  96) = (  -0.0000017   0.1443297   0.1005555  )
        97           I   tau(  97) = (   0.0000034   0.1443252   0.4920483  )
        98           I   tau(  98) = (   0.0000085   0.1443207   0.8835412  )
        99           I   tau(  99) = (  -0.1250025   0.3608351   0.1005514  )
       100           I   tau( 100) = (  -0.1249974   0.3608306   0.4920442  )
       101           I   tau( 101) = (  -0.1249923   0.3608260   0.8835371  )
       102           I   tau( 102) = (  -0.2500034   0.5773404   0.1005472  )
       103           I   tau( 103) = (  -0.2499983   0.5773359   0.4920401  )
       104           I   tau( 104) = (  -0.2499932   0.5773314   0.8835329  )
       105           I   tau( 105) = (  -0.3750042   0.7938458   0.1005431  )
       106           I   tau( 106) = (  -0.3749991   0.7938413   0.4920360  )
       107           I   tau( 107) = (  -0.3749940   0.7938368   0.8835288  )
       108           I   tau( 108) = (   0.2499983   0.1443288   0.1005587  )
       109           I   tau( 109) = (   0.2500034   0.1443242   0.4920516  )
       110           I   tau( 110) = (   0.2500085   0.1443197   0.8835444  )
       111           I   tau( 111) = (   0.1249975   0.3608341   0.1005546  )
       112           I   tau( 112) = (   0.1250026   0.3608296   0.4920475  )
       113           I   tau( 113) = (   0.1250077   0.3608251   0.8835403  )
       114           I   tau( 114) = (  -0.0000034   0.5773395   0.1005505  )
       115           I   tau( 115) = (   0.0000017   0.5773350   0.4920433  )
       116           I   tau( 116) = (   0.0000068   0.5773304   0.8835362  )
       117           I   tau( 117) = (  -0.1250042   0.7938448   0.1005464  )
       118           I   tau( 118) = (  -0.1249991   0.7938403   0.4920392  )
       119           I   tau( 119) = (  -0.1249940   0.7938358   0.8835321  )
       120           I   tau( 120) = (   0.4999983   0.1443278   0.1005620  )
       121           I   tau( 121) = (   0.5000034   0.1443233   0.4920548  )
       122           I   tau( 122) = (   0.5000085   0.1443188   0.8835477  )
       123           I   tau( 123) = (   0.3749975   0.3608332   0.1005579  )
       124           I   tau( 124) = (   0.3750026   0.3608286   0.4920507  )
       125           I   tau( 125) = (   0.3750077   0.3608241   0.8835436  )
       126           I   tau( 126) = (   0.2499966   0.5773385   0.1005537  )
       127           I   tau( 127) = (   0.2500017   0.5773340   0.4920466  )
       128           I   tau( 128) = (   0.2500068   0.5773295   0.8835394  )
       129           I   tau( 129) = (   0.1249958   0.7938439   0.1005496  )
       130           I   tau( 130) = (   0.1250009   0.7938394   0.4920425  )
       131           I   tau( 131) = (   0.1250060   0.7938348   0.8835353  )
       132           I   tau( 132) = (   0.7499983   0.1443268   0.1005653  )
       133           I   tau( 133) = (   0.7500034   0.1443223   0.4920581  )
       134           I   tau( 134) = (   0.7500085   0.1443178   0.8835509  )
       135           I   tau( 135) = (   0.6249975   0.3608322   0.1005611  )
       136           I   tau( 136) = (   0.6250026   0.3608277   0.4920540  )
       137           I   tau( 137) = (   0.6250077   0.3608232   0.8835468  )
       138           I   tau( 138) = (   0.4999966   0.5773376   0.1005570  )
       139           I   tau( 139) = (   0.5000017   0.5773330   0.4920499  )
       140           I   tau( 140) = (   0.5000068   0.5773285   0.8835427  )
       141           I   tau( 141) = (   0.3749958   0.7938429   0.1005529  )
       142           I   tau( 142) = (   0.3750009   0.7938384   0.4920457  )
       143           I   tau( 143) = (   0.3750060   0.7938339   0.8835386  )

   Crystallographic axes

     site n.     atom                  positions (cryst. coord.)
         1           Pb  tau(   1) = (  0.2499950  0.2499832  0.3333306  )
         2           Pb  tau(   2) = (  0.2499975  0.2499780  0.6666639  )
         3           Pb  tau(   3) = (  0.2499986  0.4999716  0.9999938  )
         4           Pb  tau(   4) = (  0.2499936  0.4999820  0.3333271  )
         5           Pb  tau(   5) = (  0.2499961  0.4999768  0.6666604  )
         6           Pb  tau(   6) = (  0.2499972  0.7499704  0.9999902  )
         7           Pb  tau(   7) = (  0.2499922  0.7499809  0.3333236  )
         8           Pb  tau(   8) = (  0.2499947  0.7499757  0.6666569  )
         9           Pb  tau(   9) = (  0.2499957  0.9999693  0.9999867  )
        10           Pb  tau(  10) = (  0.2499908  0.9999797  0.3333201  )
        11           Pb  tau(  11) = (  0.2499932  0.9999745  0.6666534  )
        12           Pb  tau(  12) = (  0.4999994  0.2499716  1.0000000  )
        13           Pb  tau(  13) = (  0.4999944  0.2499821  0.3333334  )
        14           Pb  tau(  14) = (  0.4999969  0.2499768  0.6666667  )
        15           Pb  tau(  15) = (  0.4999980  0.4999705  0.9999965  )
        16           Pb  tau(  16) = (  0.4999930  0.4999809  0.3333299  )
        17           Pb  tau(  17) = (  0.4999955  0.4999757  0.6666632  )
        18           Pb  tau(  18) = (  0.4999966  0.7499693  0.9999930  )
        19           Pb  tau(  19) = (  0.4999916  0.7499798  0.3333264  )
        20           Pb  tau(  20) = (  0.4999941  0.7499745  0.6666597  )
        21           Pb  tau(  21) = (  0.4999952  0.9999682  0.9999895  )
        22           Pb  tau(  22) = (  0.4999902  0.9999786  0.3333228  )
        23           Pb  tau(  23) = (  0.4999927  0.9999734  0.6666562  )
        24           Pb  tau(  24) = (  0.7499989  0.2499705  1.0000028  )
        25           Pb  tau(  25) = (  0.7499939  0.2499809  0.3333362  )
        26           Pb  tau(  26) = (  0.7499964  0.2499757  0.6666695  )
        27           Pb  tau(  27) = (  0.7499975  0.4999694  0.9999993  )
        28           Pb  tau(  28) = (  0.7499925  0.4999798  0.3333326  )
        29           Pb  tau(  29) = (  0.7499950  0.4999746  0.6666660  )
        30           Pb  tau(  30) = (  0.7499960  0.7499682  0.9999958  )
        31           Pb  tau(  31) = (  0.7499910  0.7499786  0.3333291  )
        32           Pb  tau(  32) = (  0.7499935  0.7499734  0.6666625  )
        33           Pb  tau(  33) = (  0.7499946  0.9999671  0.9999923  )
        34           Pb  tau(  34) = (  0.7499896  0.9999775  0.3333256  )
        35           Pb  tau(  35) = (  0.7499921  0.9999723  0.6666590  )
        36           Pb  tau(  36) = (  0.9999983  0.2499694  1.0000056  )
        37           Pb  tau(  37) = (  0.9999933  0.2499798  0.3333389  )
        38           Pb  tau(  38) = (  0.9999958  0.2499746  0.6666723  )
        39           Pb  tau(  39) = (  0.9999969  0.4999682  1.0000021  )
        40           Pb  tau(  40) = (  0.9999919  0.4999787  0.3333354  )
        41           Pb  tau(  41) = (  0.9999944  0.4999735  0.6666687  )
        42           Pb  tau(  42) = (  0.9999955  0.7499671  0.9999986  )
        43           Pb  tau(  43) = (  0.9999905  0.7499775  0.3333319  )
        44           Pb  tau(  44) = (  0.9999930  0.7499723  0.6666652  )
        45           Pb  tau(  45) = (  0.9999941  0.9999659  0.9999951  )
        46           Pb  tau(  46) = (  0.9999891  0.9999764  0.3333284  )
        47           Pb  tau(  47) = (  0.9999916  0.9999712  0.6666617  )
        48           I   tau(  48) = (  0.1666641  0.0833174  0.2477120  )
        49           I   tau(  49) = (  0.1666666  0.0833122  0.5810454  )
        50           I   tau(  50) = (  0.1666691  0.0833070  0.9143787  )
        51           I   tau(  51) = (  0.1666626  0.3333162  0.2477085  )
        52           I   tau(  52) = (  0.1666651  0.3333110  0.5810418  )
        53           I   tau(  53) = (  0.1666676  0.3333058  0.9143752  )
        54           I   tau(  54) = (  0.1666612  0.5833151  0.2477050  )
        55           I   tau(  55) = (  0.1666637  0.5833099  0.5810383  )
        56           I   tau(  56) = (  0.1666662  0.5833047  0.9143717  )
        57           I   tau(  57) = (  0.1666598  0.8333139  0.2477015  )
        58           I   tau(  58) = (  0.1666623  0.8333087  0.5810348  )
        59           I   tau(  59) = (  0.1666648  0.8333035  0.9143682  )
        60           I   tau(  60) = (  0.4166635  0.0833163  0.2477148  )
        61           I   tau(  61) = (  0.4166660  0.0833111  0.5810481  )
        62           I   tau(  62) = (  0.4166685  0.0833058  0.9143815  )
        63           I   tau(  63) = (  0.4166621  0.3333151  0.2477113  )
        64           I   tau(  64) = (  0.4166646  0.3333099  0.5810446  )
        65           I   tau(  65) = (  0.4166671  0.3333047  0.9143780  )
        66           I   tau(  66) = (  0.4166607  0.5833140  0.2477078  )
        67           I   tau(  67) = (  0.4166632  0.5833088  0.5810411  )
        68           I   tau(  68) = (  0.4166657  0.5833035  0.9143744  )
        69           I   tau(  69) = (  0.4166593  0.8333128  0.2477043  )
        70           I   tau(  70) = (  0.4166618  0.8333076  0.5810376  )
        71           I   tau(  71) = (  0.4166643  0.8333024  0.9143709  )
        72           I   tau(  72) = (  0.6666629  0.0833152  0.2477176  )
        73           I   tau(  73) = (  0.6666654  0.0833099  0.5810509  )
        74           I   tau(  74) = (  0.6666679  0.0833047  0.9143842  )
        75           I   tau(  75) = (  0.6666615  0.3333140  0.2477141  )
        76           I   tau(  76) = (  0.6666640  0.3333088  0.5810474  )
        77           I   tau(  77) = (  0.6666665  0.3333036  0.9143807  )
        78           I   tau(  78) = (  0.6666601  0.5833129  0.2477106  )
        79           I   tau(  79) = (  0.6666626  0.5833076  0.5810439  )
        80           I   tau(  80) = (  0.6666651  0.5833024  0.9143772  )
        81           I   tau(  81) = (  0.6666587  0.8333117  0.2477070  )
        82           I   tau(  82) = (  0.6666612  0.8333065  0.5810404  )
        83           I   tau(  83) = (  0.6666637  0.8333013  0.9143737  )
        84           I   tau(  84) = (  0.9166624  0.0833141  0.2477203  )
        85           I   tau(  85) = (  0.9166649  0.0833088  0.5810537  )
        86           I   tau(  86) = (  0.9166674  0.0833036  0.9143870  )
        87           I   tau(  87) = (  0.9166610  0.3333129  0.2477168  )
        88           I   tau(  88) = (  0.9166635  0.3333077  0.5810502  )
        89           I   tau(  89) = (  0.9166660  0.3333025  0.9143835  )
        90           I   tau(  90) = (  0.9166596  0.5833118  0.2477133  )
        91           I   tau(  91) = (  0.9166621  0.5833065  0.5810467  )
        92           I   tau(  92) = (  0.9166646  0.5833013  0.9143800  )
        93           I   tau(  93) = (  0.9166582  0.8333106  0.2477098  )
        94           I   tau(  94) = (  0.9166607  0.8333054  0.5810431  )
        95           I   tau(  95) = (  0.9166632  0.8333002  0.9143765  )
        96           I   tau(  96) = (  0.0833271  0.1666576  0.0856171  )
        97           I   tau(  97) = (  0.0833296  0.1666524  0.4189505  )
        98           I   tau(  98) = (  0.0833321  0.1666472  0.7522838  )
        99           I   tau(  99) = (  0.0833257  0.4166565  0.0856136  )
       100           I   tau( 100) = (  0.0833282  0.4166513  0.4189470  )
       101           I   tau( 101) = (  0.0833307  0.4166460  0.7522803  )
       102           I   tau( 102) = (  0.0833243  0.6666553  0.0856101  )
       103           I   tau( 103) = (  0.0833268  0.6666501  0.4189434  )
       104           I   tau( 104) = (  0.0833293  0.6666449  0.7522768  )
       105           I   tau( 105) = (  0.0833229  0.9166542  0.0856066  )
       106           I   tau( 106) = (  0.0833254  0.9166489  0.4189399  )
       107           I   tau( 107) = (  0.0833279  0.9166437  0.7522733  )
       108           I   tau( 108) = (  0.3333265  0.1666565  0.0856199  )
       109           I   tau( 109) = (  0.3333290  0.1666513  0.4189532  )
       110           I   tau( 110) = (  0.3333315  0.1666461  0.7522866  )
       111           I   tau( 111) = (  0.3333251  0.4166554  0.0856164  )
       112           I   tau( 112) = (  0.3333276  0.4166501  0.4189497  )
       113           I   tau( 113) = (  0.3333301  0.4166449  0.7522831  )
       114           I   tau( 114) = (  0.3333237  0.6666542  0.0856129  )
       115           I   tau( 115) = (  0.3333262  0.6666490  0.4189462  )
       116           I   tau( 116) = (  0.3333287  0.6666438  0.7522795  )
       117           I   tau( 117) = (  0.3333223  0.9166531  0.0856094  )
       118           I   tau( 118) = (  0.3333248  0.9166478  0.4189427  )
       119           I   tau( 119) = (  0.3333273  0.9166426  0.7522760  )
       120           I   tau( 120) = (  0.5833260  0.1666554  0.0856227  )
       121           I   tau( 121) = (  0.5833285  0.1666502  0.4189560  )
       122           I   tau( 122) = (  0.5833310  0.1666450  0.7522893  )
       123           I   tau( 123) = (  0.5833246  0.4166542  0.0856192  )
       124           I   tau( 124) = (  0.5833271  0.4166490  0.4189525  )
       125           I   tau( 125) = (  0.5833296  0.4166438  0.7522858  )
       126           I   tau( 126) = (  0.5833232  0.6666531  0.0856157  )
       127           I   tau( 127) = (  0.5833257  0.6666479  0.4189490  )
       128           I   tau( 128) = (  0.5833282  0.6666427  0.7522823  )
       129           I   tau( 129) = (  0.5833218  0.9166519  0.0856121  )
       130           I   tau( 130) = (  0.5833243  0.9166467  0.4189455  )
       131           I   tau( 131) = (  0.5833268  0.9166415  0.7522788  )
       132           I   tau( 132) = (  0.8333254  0.1666543  0.0856254  )
       133           I   tau( 133) = (  0.8333279  0.1666491  0.4189588  )
       134           I   tau( 134) = (  0.8333304  0.1666438  0.7522921  )
       135           I   tau( 135) = (  0.8333240  0.4166531  0.0856219  )
       136           I   tau( 136) = (  0.8333265  0.4166479  0.4189553  )
       137           I   tau( 137) = (  0.8333290  0.4166427  0.7522886  )
       138           I   tau( 138) = (  0.8333226  0.6666520  0.0856184  )
       139           I   tau( 139) = (  0.8333251  0.6666468  0.4189518  )
       140           I   tau( 140) = (  0.8333276  0.6666415  0.7522851  )
       141           I   tau( 141) = (  0.8333212  0.9166508  0.0856149  )
       142           I   tau( 142) = (  0.8333237  0.9166456  0.4189482  )
       143           I   tau( 143) = (  0.8333262  0.9166404  0.7522816  )

     number of k points=     1  Gaussian smearing, width (Ry)=  0.0100
                       cart. coord. in units 2pi/alat
        k(    1) = (   0.0000000   0.0000000   0.0000000), wk =   2.0000000

                       cryst. coord.
        k(    1) = (   0.0000000   0.0000000   0.0000000), wk =   2.0000000

     Dense  grid:  5079105 G-vectors     FFT dimensions: ( 216, 216, 250)

     Smooth grid:  3634441 G-vectors     FFT dimensions: ( 192, 192, 225)

     Dynamical RAM for                 wfc:      37.19 MB

     Dynamical RAM for     wfc (w. buffer):      37.19 MB

     Dynamical RAM for           str. fact:       0.61 MB

     Dynamical RAM for           local pot:       0.00 MB

     Dynamical RAM for          nlocal pot:      69.68 MB

     Dynamical RAM for                qrad:       3.00 MB

     Dynamical RAM for          rho,v,vnew:       1.98 MB

     Dynamical RAM for               rhoin:       0.66 MB

     Dynamical RAM for            rho*nmix:       4.84 MB

     Dynamical RAM for           G-vectors:       1.24 MB

     Dynamical RAM for          h,s,v(r/c):    1382.72 MB

     Dynamical RAM for          <psi|beta>:      53.97 MB

     Dynamical RAM for                 psi:     148.77 MB

     Dynamical RAM for                hpsi:     148.77 MB

     Dynamical RAM for                spsi:     148.77 MB

     Dynamical RAM for      wfcinit/wfcrot:     117.61 MB

     Dynamical RAM for           addusdens:      85.38 MB

     Dynamical RAM for          addusforce:     143.42 MB

     Dynamical RAM for         addusstress:      60.85 MB

     Estimated static dynamical RAM per process >     117.04 MB

     Estimated max dynamical RAM per process >       1.96 GB

     Estimated total dynamical RAM >     501.22 GB

     Atomic positions and unit cell read from directory:
     ./PbI2.save/
     Atomic positions from file used, from input discarded
 

     Check: negative core charge=   -0.000001

     The initial density is read from file :
     ./PbI2.save/charge-density



     %%%%%%%%%%%%%%%%%%%%%%%%%%%%%%%%%%%%%%%%%%%%%%%%%%%%%%%%%%%%%%%%%%%%%%%%
     %                                                                      %
     % You are using vdW-DF, which was implemented by the Thonhauser group. %
     % Please cite the following two papers that made this development      %
     % possible and the two reviews that describe the various versions:     %
     %                                                                      %
     %   T. Thonhauser et al., PRL 115, 136402 (2015).                      %
     %   T. Thonhauser et al., PRB 76, 125112 (2007).                       %
     %   K. Berland et al., Rep. Prog. Phys. 78, 066501 (2015).             %
     %   D.C. Langreth et al., J. Phys.: Condens. Matter 21, 084203 (2009). %
     %                                                                      %
     % If you are calculating stress with vdW-DF, please also cite:         %
     %                                                                      %
     %   R. Sabatini et al., J. Phys.: Condens. Matter 24, 424209 (2012).   %
     %                                                                      %
     %%%%%%%%%%%%%%%%%%%%%%%%%%%%%%%%%%%%%%%%%%%%%%%%%%%%%%%%%%%%%%%%%%%%%%%%

     %%%%%%%%%%%%%%%%%%%%%%%%%%%%%%%%%%%%%%%%%%%%%%%%%%%%%%%%%%%%%%%%%%%%%%%%
     %                                                                      %
     %  vdW-DF NEWS:                                                        %
     %                                                                      %
     %  * vdW-DF3 is now available. DOI: 10.1021/acs.jctc.0c00471           %
     %    use with input_dft = 'vdW-DF3-opt1' or 'vdW-DF3-opt2'             %
     %                                                                      %
     %  * Unscreened and range-separated vdW-DF hybrid functionals          %
     %    DOI: 10.1063/1.4986522 and 10.1088/1361-648X/ac2ad2               %
     %    use with input_dft = 'vdW-DF-cx0' (etc) and 'vdW-DF-ahcx'         %
     %                                                                      %
     %%%%%%%%%%%%%%%%%%%%%%%%%%%%%%%%%%%%%%%%%%%%%%%%%%%%%%%%%%%%%%%%%%%%%%%%


     Carrying out vdW-DF run using the following parameters:
     Nqs    =  20  Npoints =  1024  r_max =  100.000
     q_mesh =  0.00001000  0.04494208  0.09755937  0.15916263
               0.23128650  0.31572767  0.41458969  0.53033537
               0.66584808  0.82450364  1.01025438  1.22772762
               1.48234092  1.78043706  2.12944203  2.53805004
               3.01644009  3.57652955  4.23227104  5.00000000


     -----------------------------------------------
     Non-local corr. energy    =      68.79598321 Ry
     -----------------------------------------------

     Cannot read wfcs: file not found
     Starting wfcs are 1287 randomized atomic wfcs +   87 random wfcs
     Checking if some PAW data can be deallocated... 
       PAW data deallocated on  162 nodes for type:  1
       PAW data deallocated on   94 nodes for type:  2

     total cpu time spent up to now is       33.8 secs

     Self-consistent Calculation

     iteration #  1     ecut=    70.00 Ry     beta= 0.70
     Davidson diagonalization with overlap

---- Real-time Memory Report at c_bands before calling an iterative solver
           601 MiB given to the printing process from OS
             0 MiB allocation reported by mallinfo(arena+hblkhd)
       1918055 MiB available memory on the node where the printing process lives
------------------
     ethr =  1.00E-05,  avg # of iterations = 22.0


     -----------------------------------------------
     Non-local corr. energy    =      68.80729272 Ry
     -----------------------------------------------


     total cpu time spent up to now is     1029.1 secs

     total energy              =  -96237.65498293 Ry
     estimated scf accuracy    <       0.27874035 Ry

     iteration #  2     ecut=    70.00 Ry     beta= 0.70
     Davidson diagonalization with overlap

---- Real-time Memory Report at c_bands before calling an iterative solver
          1928 MiB given to the printing process from OS
             0 MiB allocation reported by mallinfo(arena+hblkhd)
       1896626 MiB available memory on the node where the printing process lives
------------------
     c_bands:  2 eigenvalues not converged
     ethr =  1.22E-05,  avg # of iterations = 20.0


     -----------------------------------------------
     Non-local corr. energy    =      68.80218020 Ry
     -----------------------------------------------


     total cpu time spent up to now is     2170.5 secs

     total energy              =  -96237.54783413 Ry
     estimated scf accuracy    <       2.08177279 Ry

     iteration #  3     ecut=    70.00 Ry     beta= 0.70
     Davidson diagonalization with overlap

---- Real-time Memory Report at c_bands before calling an iterative solver
          1928 MiB given to the printing process from OS
             0 MiB allocation reported by mallinfo(arena+hblkhd)
       1896433 MiB available memory on the node where the printing process lives
------------------
     ethr =  1.22E-05,  avg # of iterations = 13.0


     -----------------------------------------------
     Non-local corr. energy    =      68.80137488 Ry
     -----------------------------------------------


     total cpu time spent up to now is     2782.1 secs

     total energy              =  -96237.79485286 Ry
     estimated scf accuracy    <       0.10435907 Ry

     iteration #  4     ecut=    70.00 Ry     beta= 0.70
     Davidson diagonalization with overlap

---- Real-time Memory Report at c_bands before calling an iterative solver
          1928 MiB given to the printing process from OS
             0 MiB allocation reported by mallinfo(arena+hblkhd)
       1896245 MiB available memory on the node where the printing process lives
------------------
     c_bands:  1 eigenvalues not converged
     ethr =  4.56E-06,  avg # of iterations = 20.0


     -----------------------------------------------
     Non-local corr. energy    =      68.80059082 Ry
     -----------------------------------------------


     total cpu time spent up to now is     3504.1 secs

     total energy              =  -96237.81207075 Ry
     estimated scf accuracy    <       0.03509045 Ry

     iteration #  5     ecut=    70.00 Ry     beta= 0.70
     Davidson diagonalization with overlap

---- Real-time Memory Report at c_bands before calling an iterative solver
          1928 MiB given to the printing process from OS
             0 MiB allocation reported by mallinfo(arena+hblkhd)
       1896188 MiB available memory on the node where the printing process lives
------------------
     ethr =  1.53E-06,  avg # of iterations = 19.0


     -----------------------------------------------
     Non-local corr. energy    =      68.79978331 Ry
     -----------------------------------------------


     total cpu time spent up to now is     4155.3 secs

     total energy              =  -96237.81398074 Ry
     estimated scf accuracy    <       0.03399859 Ry

     iteration #  6     ecut=    70.00 Ry     beta= 0.70
     Davidson diagonalization with overlap

---- Real-time Memory Report at c_bands before calling an iterative solver
          1928 MiB given to the printing process from OS
             0 MiB allocation reported by mallinfo(arena+hblkhd)
       1896063 MiB available memory on the node where the printing process lives
------------------
     c_bands:  1 eigenvalues not converged
     ethr =  1.48E-06,  avg # of iterations = 20.0


     -----------------------------------------------
     Non-local corr. energy    =      68.79858260 Ry
     -----------------------------------------------


     total cpu time spent up to now is     4700.4 secs

     total energy              =  -96237.81665922 Ry
     estimated scf accuracy    <       0.01195027 Ry

     iteration #  7     ecut=    70.00 Ry     beta= 0.70
     Davidson diagonalization with overlap

---- Real-time Memory Report at c_bands before calling an iterative solver
          1928 MiB given to the printing process from OS
             0 MiB allocation reported by mallinfo(arena+hblkhd)
       1895936 MiB available memory on the node where the printing process lives
------------------
     ethr =  5.22E-07,  avg # of iterations = 20.0


     -----------------------------------------------
     Non-local corr. energy    =      68.79754649 Ry
     -----------------------------------------------


     total cpu time spent up to now is     5308.6 secs

     total energy              =  -96237.81765412 Ry
     estimated scf accuracy    <       0.00594090 Ry

     iteration #  8     ecut=    70.00 Ry     beta= 0.70
     Davidson diagonalization with overlap

---- Real-time Memory Report at c_bands before calling an iterative solver
          1928 MiB given to the printing process from OS
             0 MiB allocation reported by mallinfo(arena+hblkhd)
       1895804 MiB available memory on the node where the printing process lives
------------------
     c_bands:  1 eigenvalues not converged
     ethr =  2.59E-07,  avg # of iterations = 20.0


     -----------------------------------------------
     Non-local corr. energy    =      68.79679542 Ry
     -----------------------------------------------


     total cpu time spent up to now is     5898.1 secs

     total energy              =  -96237.81823901 Ry
     estimated scf accuracy    <       0.00045549 Ry

     iteration #  9     ecut=    70.00 Ry     beta= 0.70
     Davidson diagonalization with overlap

---- Real-time Memory Report at c_bands before calling an iterative solver
          1928 MiB given to the printing process from OS
             0 MiB allocation reported by mallinfo(arena+hblkhd)
       1895682 MiB available memory on the node where the printing process lives
------------------
     c_bands:  1 eigenvalues not converged
     ethr =  1.99E-08,  avg # of iterations = 20.0


     -----------------------------------------------
     Non-local corr. energy    =      68.79652174 Ry
     -----------------------------------------------


     total cpu time spent up to now is     7038.8 secs

     total energy              =  -96237.81836568 Ry
     estimated scf accuracy    <       0.00020162 Ry

     iteration # 10     ecut=    70.00 Ry     beta= 0.70
     Davidson diagonalization with overlap

---- Real-time Memory Report at c_bands before calling an iterative solver
          1928 MiB given to the printing process from OS
             0 MiB allocation reported by mallinfo(arena+hblkhd)
       1895557 MiB available memory on the node where the printing process lives
------------------
     c_bands:  1 eigenvalues not converged
     ethr =  8.80E-09,  avg # of iterations = 20.0


     -----------------------------------------------
     Non-local corr. energy    =      68.79639576 Ry
     -----------------------------------------------


     total cpu time spent up to now is     7662.2 secs

     total energy              =  -96237.81838055 Ry
     estimated scf accuracy    <       0.00014977 Ry

     iteration # 11     ecut=    70.00 Ry     beta= 0.70
     Davidson diagonalization with overlap

---- Real-time Memory Report at c_bands before calling an iterative solver
          1928 MiB given to the printing process from OS
             0 MiB allocation reported by mallinfo(arena+hblkhd)
       1895552 MiB available memory on the node where the printing process lives
------------------
     c_bands:  1 eigenvalues not converged
     ethr =  6.54E-09,  avg # of iterations = 20.0


     -----------------------------------------------
     Non-local corr. energy    =      68.79631120 Ry
     -----------------------------------------------


     total cpu time spent up to now is     8241.1 secs

     total energy              =  -96237.81839089 Ry
     estimated scf accuracy    <       0.00004857 Ry

     iteration # 12     ecut=    70.00 Ry     beta= 0.70
     Davidson diagonalization with overlap

---- Real-time Memory Report at c_bands before calling an iterative solver
          1928 MiB given to the printing process from OS
             0 MiB allocation reported by mallinfo(arena+hblkhd)
       1895551 MiB available memory on the node where the printing process lives
------------------
     c_bands:  2 eigenvalues not converged
     ethr =  2.12E-09,  avg # of iterations = 20.0


     -----------------------------------------------
     Non-local corr. energy    =      68.79613486 Ry
     -----------------------------------------------


     total cpu time spent up to now is     8901.3 secs

     total energy              =  -96237.81838775 Ry
     estimated scf accuracy    <       0.00014867 Ry

     iteration # 13     ecut=    70.00 Ry     beta= 0.70
     Davidson diagonalization with overlap

---- Real-time Memory Report at c_bands before calling an iterative solver
          1928 MiB given to the printing process from OS
             0 MiB allocation reported by mallinfo(arena+hblkhd)
       1895519 MiB available memory on the node where the printing process lives
------------------
     c_bands:  2 eigenvalues not converged
     ethr =  2.12E-09,  avg # of iterations = 20.0


     -----------------------------------------------
     Non-local corr. energy    =      68.79611449 Ry
     -----------------------------------------------


     total cpu time spent up to now is     9515.5 secs

     total energy              =  -96237.81839984 Ry
     estimated scf accuracy    <       0.00000594 Ry

     iteration # 14     ecut=    70.00 Ry     beta= 0.70
     Davidson diagonalization with overlap

---- Real-time Memory Report at c_bands before calling an iterative solver
          1928 MiB given to the printing process from OS
             0 MiB allocation reported by mallinfo(arena+hblkhd)
       1895516 MiB available memory on the node where the printing process lives
------------------
     ethr =  2.60E-10,  avg # of iterations = 18.0


     -----------------------------------------------
     Non-local corr. energy    =      68.79612459 Ry
     -----------------------------------------------


     total cpu time spent up to now is    10130.3 secs

     total energy              =  -96237.81840050 Ry
     estimated scf accuracy    <       0.00000180 Ry

     iteration # 15     ecut=    70.00 Ry     beta= 0.70
     Davidson diagonalization with overlap

---- Real-time Memory Report at c_bands before calling an iterative solver
          1928 MiB given to the printing process from OS
             0 MiB allocation reported by mallinfo(arena+hblkhd)
       1895512 MiB available memory on the node where the printing process lives
------------------
     ethr =  7.85E-11,  avg # of iterations = 17.0


     -----------------------------------------------
     Non-local corr. energy    =      68.79611643 Ry
     -----------------------------------------------


     total cpu time spent up to now is    10812.5 secs

     total energy              =  -96237.81840067 Ry
     estimated scf accuracy    <       0.00000201 Ry

     iteration # 16     ecut=    70.00 Ry     beta= 0.70
     Davidson diagonalization with overlap

---- Real-time Memory Report at c_bands before calling an iterative solver
          1928 MiB given to the printing process from OS
             0 MiB allocation reported by mallinfo(arena+hblkhd)
       1895440 MiB available memory on the node where the printing process lives
------------------
     ethr =  7.85E-11,  avg # of iterations = 20.0


     -----------------------------------------------
     Non-local corr. energy    =      68.79612029 Ry
     -----------------------------------------------


     total cpu time spent up to now is    11407.7 secs

     total energy              =  -96237.81840079 Ry
     estimated scf accuracy    <       0.00000072 Ry

     iteration # 17     ecut=    70.00 Ry     beta= 0.70
     Davidson diagonalization with overlap

---- Real-time Memory Report at c_bands before calling an iterative solver
          1928 MiB given to the printing process from OS
             0 MiB allocation reported by mallinfo(arena+hblkhd)
       1895437 MiB available memory on the node where the printing process lives
------------------
     c_bands:  1 eigenvalues not converged
     ethr =  3.14E-11,  avg # of iterations = 20.0


     -----------------------------------------------
     Non-local corr. energy    =      68.79612285 Ry
     -----------------------------------------------


     total cpu time spent up to now is    11955.2 secs

     total energy              =  -96237.81840085 Ry
     estimated scf accuracy    <       0.00000020 Ry

     iteration # 18     ecut=    70.00 Ry     beta= 0.70
     Davidson diagonalization with overlap

---- Real-time Memory Report at c_bands before calling an iterative solver
          1928 MiB given to the printing process from OS
             0 MiB allocation reported by mallinfo(arena+hblkhd)
       1895433 MiB available memory on the node where the printing process lives
------------------
     c_bands:  1 eigenvalues not converged
     ethr =  8.79E-12,  avg # of iterations = 20.0


     -----------------------------------------------
     Non-local corr. energy    =      68.79612642 Ry
     -----------------------------------------------


     total cpu time spent up to now is    12574.2 secs

     End of self-consistent calculation

          k = 0.0000 0.0000 0.0000 (454335 PWs)   bands (ev):

   -40.9033 -40.9033 -40.9032 -40.9032 -40.9032 -40.9032 -40.9026 -40.9025
   -40.9025 -40.9025 -40.9025 -40.9025 -40.9022 -40.9022 -40.9022 -40.9022
   -40.9022 -40.9022 -40.9019 -40.9019 -40.9019 -40.9019 -40.9019 -40.9018
   -40.9015 -40.9015 -40.9015 -40.9015 -40.9015 -40.9014 -40.9007 -40.9006
   -40.9006 -40.9006 -40.9006 -40.9005 -40.9002 -40.9002 -40.9002 -40.9002
   -40.9002 -40.9001 -40.9001 -40.9001 -40.9001 -40.9001 -40.9000 -40.9000
   -40.9000 -40.9000 -40.9000 -40.9000 -40.9000 -40.8999 -40.8999 -40.8999
   -40.8999 -40.8999 -40.8999 -40.8998 -40.8997 -40.8997 -40.8997 -40.8997
   -40.8997 -40.8996 -40.8996 -40.8996 -40.8996 -40.8996 -40.8996 -40.8996
   -40.8995 -40.8995 -40.8995 -40.8995 -40.8995 -40.8995 -40.8994 -40.8994
   -40.8994 -40.8994 -40.8994 -40.8994 -40.8994 -40.8994 -40.8994 -40.8993
   -40.8993 -40.8993 -40.8993 -40.8993 -40.8993 -40.8993 -40.8993 -40.8993
   -40.8993 -40.8993 -40.8993 -40.8993 -40.8993 -40.8993 -40.8993 -40.8993
   -40.8993 -40.8992 -40.8992 -40.8992 -40.8992 -40.8992 -40.8992 -40.8992
   -40.8991 -40.8991 -40.8991 -40.8991 -40.8991 -40.8991 -40.8991 -40.8991
   -40.8991 -40.8991 -40.8991 -40.8991 -40.8991 -40.8990 -40.8987 -40.8986
   -40.8986 -40.8986 -40.8986 -40.8986 -40.8986 -40.8986 -40.8986 -40.8986
   -40.8986 -40.8986 -40.8986 -40.8986 -40.8986 -40.8986 -40.8985 -40.8985
   -40.8983 -40.8983 -40.8983 -40.8983 -40.8983 -40.8982 -40.8976 -40.8975
   -40.8975 -40.8975 -40.8972 -40.8972 -40.8972 -40.8971 -40.8971 -40.8971
   -40.8969 -40.8969 -40.8969 -40.8969 -40.8969 -40.8969 -40.8969 -40.8969
   -40.8969 -40.8969 -40.8968 -40.8967 -40.8967 -40.8967 -40.8967 -40.8967
   -40.8964 -40.8964 -40.8964 -40.8964 -40.8964 -40.8964 -40.8964 -40.8963
   -40.8963 -40.8963 -40.8963 -40.8963 -40.8963 -40.8963 -40.8962 -40.8962
   -40.8962 -40.8962 -40.8962 -40.8962 -40.8961 -40.8961 -40.8961 -40.8961
   -40.8961 -40.8961 -40.8961 -40.8961 -40.8961 -40.8961 -40.8961 -40.8961
   -40.8961 -40.8961 -40.8960 -40.8960 -40.8960 -40.8960 -40.8959 -40.8959
   -40.8959 -40.8959 -40.8959 -40.8959 -40.8958 -40.8958 -40.8958 -40.8958
   -40.8958 -40.8958 -40.8958 -40.8958 -40.8958 -40.8958 -40.8958 -40.8958
   -40.8957 -40.8957 -40.8957 -40.8956 -40.8956 -40.8956 -40.8956 -40.8956
   -40.8956 -40.8955 -40.8955 -40.8955 -40.8953 -40.8953 -40.8952 -40.8952
   -40.8952 -40.8952 -40.8952 -40.8952 -40.8952 -40.8952 -40.8952 -40.8952
   -40.8952 -40.8952 -40.8952 -40.8951 -40.8951 -40.8951 -40.8950 -40.8950
   -40.8950 -40.8950 -40.8950 -40.8950 -40.8950 -40.8950 -40.8950 -40.8950
   -40.8950 -40.8950 -40.8950 -40.8950 -40.8950 -40.8950 -40.8950 -40.8950
   -40.8949 -40.8948 -40.8948 -40.8948 -40.8948 -40.8948 -40.8948 -40.8948
   -40.8947 -40.8947 -40.8947 -40.8947 -40.8946 -40.8946 -40.8946 -40.8946
   -40.8946 -40.8946 -40.8941 -40.8941 -40.8941 -40.8941 -40.8941 -40.8940
   -40.8940 -40.8940 -40.8940 -40.8940 -40.8940 -40.8940 -40.8888 -40.8888
   -40.8888 -40.8888 -40.8888 -40.8888 -40.8879 -40.8879 -40.8879 -40.8879
   -40.8550 -40.8550 -40.8550 -40.8549 -40.8549 -40.8548 -40.8546 -40.8545
   -40.8545 -40.8545 -40.8545 -40.8543 -40.8529 -40.8529 -40.8529 -40.8528
   -40.8528 -40.8526 -40.8489 -40.8489 -40.8489 -40.8488 -40.8488 -40.8488
   -40.8488 -40.8488 -40.8487 -40.8487 -40.8487 -40.8486 -40.8406 -40.8406
   -40.8406 -40.8406 -40.8384 -40.8384 -40.8384 -40.8383 -40.8373 -40.8373
   -40.8194 -40.8194 -40.8194 -40.8194 -40.8194 -40.8193 -40.8188 -40.8188
   -40.8187 -40.8187 -40.8187 -40.8187 -40.8175 -40.8175 -40.8175 -40.8174
   -40.8174 -40.8174 -40.8170 -40.8170 -40.8170 -40.8170 -40.8170 -40.8169
   -40.8163 -40.8163 -40.8162 -40.8162 -40.8162 -40.8161 -40.7807 -40.7807
   -40.7807 -40.7807 -40.7807 -40.7807 -40.7806 -40.7806 -40.7806 -40.7806
   -40.7805 -40.7805 -40.7802 -40.7801 -40.7801 -40.7801 -40.7801 -40.7801
   -40.7801 -40.7800 -40.7800 -40.7800 -40.7800 -40.7799 -40.7716 -40.7716
   -40.7716 -40.7716 -40.7716 -40.7715 -40.7715 -40.7715 -40.7715 -40.7715
   -40.7714 -40.7714 -40.7702 -40.7702 -40.7702 -40.7702 -40.7702 -40.7702
   -40.7702 -40.7702 -40.7701 -40.7701 -40.7701 -40.7700 -40.7682 -40.7682
   -40.7681 -40.7681 -40.7681 -40.7681 -40.7681 -40.7681 -40.7681 -40.7681
   -40.7680 -40.7680 -40.6588 -40.6587 -40.6587 -40.6587 -40.6586 -40.6586
   -40.6582 -40.6581 -40.6581 -40.6581 -40.6580 -40.6580 -40.5881 -40.5881
   -40.5880 -40.5880 -40.5880 -40.5879 -40.5823 -40.5823 -40.5822 -40.5822
   -40.5822 -40.5821 -40.5616 -40.5615 -40.5615 -40.5615 -40.5614 -40.5614
   -13.0674 -13.0674 -13.0674 -13.0674 -13.0667 -13.0666 -13.0607 -13.0607
   -13.0607 -13.0607 -13.0606 -13.0606 -13.0601 -13.0601 -13.0601 -13.0601
   -13.0595 -13.0595 -13.0566 -13.0566 -13.0566 -13.0566 -13.0566 -13.0565
   -13.0555 -13.0555 -13.0555 -13.0555 -13.0554 -13.0554 -13.0488 -13.0488
   -13.0488 -13.0488 -13.0483 -13.0482 -13.0482 -13.0482 -13.0482 -13.0481
   -13.0477 -13.0477 -13.0461 -13.0461 -13.0461 -13.0461 -13.0439 -13.0438
   -13.0437 -13.0437 -13.0434 -13.0434 -13.0434 -13.0434 -13.0432 -13.0431
   -13.0429 -13.0429 -13.0428 -13.0428 -13.0427 -13.0426 -13.0426 -13.0426
   -13.0424 -13.0424 -13.0417 -13.0417 -13.0417 -13.0417 -13.0416 -13.0416
   -13.0413 -13.0413 -13.0411 -13.0411 -13.0410 -13.0410 -13.0410 -13.0410
   -13.0410 -13.0410 -13.0405 -13.0405 -13.0384 -13.0384 -13.0384 -13.0384
   -13.0384 -13.0384 -13.0383 -13.0383 -13.0383 -13.0382 -13.0382 -13.0382
   -13.0381 -13.0381 -13.0381 -13.0381 -13.0379 -13.0379 -13.0376 -13.0376
   -13.0376 -13.0376 -13.0376 -13.0376 -13.0369 -13.0369 -13.0369 -13.0368
   -13.0367 -13.0367 -13.0367 -13.0366 -13.0361 -13.0361 -13.0361 -13.0361
   -13.0360 -13.0360 -13.0356 -13.0355 -13.0349 -13.0349 -13.0345 -13.0345
   -13.0343 -13.0343 -13.0343 -13.0343 -13.0340 -13.0340 -13.0332 -13.0332
   -13.0331 -13.0331 -13.0330 -13.0330 -13.0330 -13.0330 -13.0316 -13.0316
   -13.0315 -13.0315 -13.0312 -13.0311 -13.0305 -13.0305 -13.0304 -13.0304
   -13.0304 -13.0304 -13.0285 -13.0285 -13.0285 -13.0285 -13.0278 -13.0277
   -12.9771 -12.9759 -12.9722 -12.9722 -12.9689 -12.9689 -12.9652 -12.9652
   -12.9648 -12.9648 -12.9626 -12.9608 -12.9560 -12.9560 -12.9542 -12.9542
   -12.9540 -12.9540 -12.9521 -12.9512 -12.9512 -12.9510 -12.9510 -12.9508
   -12.9504 -12.9504 -12.9491 -12.9490 -12.9487 -12.9484 -12.9433 -12.9409
   -12.9409 -12.9365 -12.9365 -12.9364 -12.9270 -12.9270 -12.9264 -12.9261
   -12.9253 -12.9253 -12.9216 -12.9214 -12.9214 -12.9129 -12.9094 -12.9094
   -12.9014 -12.9014 -12.8967 -12.8964 -12.8913 -12.8913 -12.8878 -12.8875
   -12.8875 -12.8869 -12.8862 -12.8862 -12.8850 -12.8850 -12.8836 -12.8808
   -12.8808 -12.8804 -12.8786 -12.8786 -12.8755 -12.8672 -12.8667 -12.8667
   -12.8651 -12.8651 -12.8645  -8.2144  -8.1673  -8.0625  -8.0158  -8.0158
    -8.0157  -8.0151  -8.0151  -8.0125  -7.9770  -7.9769  -7.9766  -7.9765
    -7.9762  -7.9757  -7.9087  -7.8785  -7.8785  -7.8697  -7.8696  -7.7958
    -7.7799  -7.7561  -7.7561  -7.7560  -7.7560  -7.7554  -7.7517  -7.7451
    -7.7378  -7.7378  -7.7370  -7.7369  -7.7366  -7.7365  -7.7361  -7.7361
    -7.7336  -7.7197  -7.7197  -7.7179  -7.6898  -7.6898  -7.6897  -7.6896
    -7.6896  -7.6893  -7.6753  -7.6753  -7.6736  -7.6598  -7.6592  -7.6592
    -7.6574  -7.6513  -7.6513  -7.6478  -7.6478  -7.6335  -7.6335  -7.6333
    -7.6267  -7.6213  -7.6200  -7.6200  -7.6191  -7.6157  -7.6156  -7.6150
    -7.6150  -7.6113  -7.6021  -7.6021  -7.6019  -7.6015  -7.6015  -7.6000
    -7.5926  -7.5894  -7.5680  -7.5653  -7.5652  -7.5375  -7.5374  -7.5371
    -7.5320  -7.5320  -7.5088  -7.5087  -7.4765  -7.4417  -7.4133  -7.4133
    -7.3396  -7.3395  -7.3143  -3.7619  -3.7612  -3.7612  -3.7563  -3.7557
    -3.7557  -3.7481  -3.7480  -3.7478  -3.7478  -3.7474  -3.7474  -3.7473
    -3.7472  -3.7463  -3.7463  -3.7458  -3.7458  -3.6615  -3.6615  -3.6578
    -3.6359  -3.6359  -3.6183  -3.6058  -3.6058  -3.4945  -3.4945  -3.4942
    -3.4935  -3.4935  -3.4933  -3.4822  -3.4822  -3.4819  -3.4814  -3.4814
    -3.4809  -3.4184  -3.4021  -3.3760  -3.3760  -3.3226  -3.3226  -3.2961
    -3.2514  -3.1553   0.7944   0.7944   0.7946   0.8652   0.8652   0.8691
     1.0654   1.0654   1.0694   1.0843   1.0843   1.0861   1.0871   1.0931
     1.0931   1.1256   1.1256   1.1280   1.1442   1.1442   1.1524   1.2895
     1.2895   1.2953   1.3017   1.3017   1.3108   1.3478   1.3483   1.3494
     1.3494   1.3520   1.3520   1.3549   1.3549   1.3587   1.3728   1.3728
     1.3785   1.3799   1.3799   1.3804   1.3811   1.3811   1.3989   1.4239
     1.4332   1.4419   1.4419   1.4475   1.4475   1.4516   1.4517   1.4581
     1.4855   1.5744   1.5744   1.6490   1.6599   1.6599   1.6730   1.6897
     1.6897   1.7153   1.7307   1.7307   1.7323   1.7327   1.7345   1.7345
     1.7389   1.7389   1.7920   1.7975   1.7975   1.7983   1.7983   1.8060
     1.8183   1.8183   1.8288   1.8743   1.8746   1.8746   1.8852   1.8886
     1.8886   1.9405   1.9405   1.9416   1.9416   1.9422   1.9464   1.9464
     1.9527   1.9527   1.9623   1.9821   1.9821   1.9830   1.9830   1.9877
     2.0275   2.0419   2.0517   2.0517   2.0643   2.0643   2.0672   2.0672
     2.1109   2.1154   2.1173   2.1174   2.1176   2.1198   2.1199   2.1199
     2.1396   2.1396   2.1554   2.1554   2.1611   2.1688   2.1688   2.1690
     2.1709   2.1878   2.1878   2.2245   2.2263   2.2304   2.2424   2.2424
     2.2460   2.2460   2.2618   2.2619   2.2649   2.2927   2.3662   2.3685
     2.3864   2.3864   2.4520   2.4520   2.4599   2.4764   2.4764   2.4879
     2.4879   2.4893   2.4972   2.4976   2.5020   2.5020   2.5302   2.5338
     2.5338   2.5515   2.5515   2.5586   2.5717   2.5717   2.5833   2.5833
     2.6277   2.6277   2.6391   2.6536   2.6548   2.6598   2.6608   2.6608
     2.6691   2.6691   2.6735   2.6735   2.6880   2.6891   2.6891   2.7412
     2.7419   2.7419   2.7487   2.7555   2.7555   2.7632   2.7632   2.7652
     2.7666   2.7666   2.7681   2.7681   2.7687   2.7757   2.7757   2.7769
     2.7811   2.7846   2.7846   2.7864   2.7864   2.7901   2.8057   2.8403
     2.8404   2.8487   2.8487   2.8495   2.8508   2.8509   2.8516   2.8535
     2.8535   2.8602   2.8631   2.8665   2.8666   2.8684   2.8684   2.8820
     2.8906   2.8934   2.8934   2.8951   2.8951   2.9083   2.9089   2.9089
     2.9187   2.9187   2.9278   2.9278   2.9320   2.9344   2.9474   2.9516
     2.9517   2.9521   2.9676   2.9676   2.9853   3.0391   3.0525   3.0526
     3.0646   3.0646   3.0691   3.0985   3.0985   3.1003   3.1003   3.1070
     3.1131   3.1472   3.1472   3.1662   3.1662   3.1753   3.1770   3.2337
     3.2337   3.2410   3.2411   3.2419   3.2419   3.2431   3.2453   3.2453
     3.2514   3.2515   3.2545   3.2983   3.2983   3.3156   3.3170   3.3170
     3.3172   3.3679   3.3710   3.3710   3.3778   3.3897   3.3897   3.4096
     3.4096   3.4159   5.8550   5.9293   6.1149   6.3774   6.3774   6.3776
     6.3788   6.3792   6.3792   6.4424   6.4424   6.4699   6.4728   6.4750
     6.4750   6.5125   6.5125   6.5337   6.6922   6.6922   6.6934   6.6998
     6.6998   6.7099   6.7099   6.7251   6.7251   6.7261   6.7335   6.7463
     6.7463   6.8381   6.8382   6.9164   6.9164   6.9180   6.9192   6.9196
     6.9196   6.9348   6.9435   6.9435   6.9577   6.9812   6.9812   6.9969
     7.0131   7.0131   7.0590   7.0590   7.0590   7.0598   7.0612   7.0612
     7.1078   7.1103   7.1103   7.1146   7.1303   7.1303   7.1492   7.1500
     7.1500   7.1501   7.1502   7.1527   7.2159   7.2163   7.2163   7.2167
     7.2167   7.2193   7.2203   7.2205   7.2206   7.2233   7.2233   7.2248
     7.2295   7.2295   7.2380   7.2380   7.2383   7.2444   7.2461   7.2480
     7.2480   7.2767   7.2796   7.2796   7.2860   7.3042   7.3042   7.3481
     7.3482   7.3637   7.3754   7.3770   7.3770   7.3805   7.3810   7.3810
     7.3872   7.3900   7.4114   7.4114   7.4289   7.4289   7.4337   7.4363
     7.4363   7.4774   7.4774   7.4810   7.4969   7.4969   7.4976   7.5276
     7.5276   7.5479   7.5596   7.5905   7.5905   7.5918   7.5926   7.5926
     7.5961   7.6055   7.6056   7.6060   7.6211   7.6244   7.6244   7.7088
     7.7088   7.7192   7.7192   7.7874   7.9630   7.9812   7.9813   9.1126
     9.1127   9.1127   9.4854   9.4854   9.4854   9.5899   9.6031   9.6031
     9.6923   9.7225   9.7225   9.7273   9.7275   9.7285   9.7285   9.8065
     9.8065   9.8163   9.8304   9.8715   9.8715   9.9726   9.9726   9.9769
     9.9769   9.9874  10.0054  10.1234  10.1413  10.1413  10.1507  10.1749
    10.1775  10.1775  10.2010  10.2010  10.2010  10.2010  10.2138  10.2138
    10.2195  10.2218  10.2250  10.2453  10.2453  10.2536  10.2601  10.3277
    10.3507  10.3507  10.3632  10.4084  10.4084  10.4861  10.5531  10.5531
    10.5593  10.5883  10.5883  10.6996  10.6996  10.7023  10.7023  10.7106
    10.7253  10.7270  10.7356  10.7393  10.7393  10.8263  10.8276  10.8277
    10.8522  10.8538  10.8538  10.8648  10.8648  10.9099  10.9099  10.9247
    10.9499  10.9499  10.9505  10.9509  10.9697  10.9833

     occupation numbers 
     1.0000   1.0000   1.0000   1.0000   1.0000   1.0000   1.0000   1.0000
     1.0000   1.0000   1.0000   1.0000   1.0000   1.0000   1.0000   1.0000
     1.0000   1.0000   1.0000   1.0000   1.0000   1.0000   1.0000   1.0000
     1.0000   1.0000   1.0000   1.0000   1.0000   1.0000   1.0000   1.0000
     1.0000   1.0000   1.0000   1.0000   1.0000   1.0000   1.0000   1.0000
     1.0000   1.0000   1.0000   1.0000   1.0000   1.0000   1.0000   1.0000
     1.0000   1.0000   1.0000   1.0000   1.0000   1.0000   1.0000   1.0000
     1.0000   1.0000   1.0000   1.0000   1.0000   1.0000   1.0000   1.0000
     1.0000   1.0000   1.0000   1.0000   1.0000   1.0000   1.0000   1.0000
     1.0000   1.0000   1.0000   1.0000   1.0000   1.0000   1.0000   1.0000
     1.0000   1.0000   1.0000   1.0000   1.0000   1.0000   1.0000   1.0000
     1.0000   1.0000   1.0000   1.0000   1.0000   1.0000   1.0000   1.0000
     1.0000   1.0000   1.0000   1.0000   1.0000   1.0000   1.0000   1.0000
     1.0000   1.0000   1.0000   1.0000   1.0000   1.0000   1.0000   1.0000
     1.0000   1.0000   1.0000   1.0000   1.0000   1.0000   1.0000   1.0000
     1.0000   1.0000   1.0000   1.0000   1.0000   1.0000   1.0000   1.0000
     1.0000   1.0000   1.0000   1.0000   1.0000   1.0000   1.0000   1.0000
     1.0000   1.0000   1.0000   1.0000   1.0000   1.0000   1.0000   1.0000
     1.0000   1.0000   1.0000   1.0000   1.0000   1.0000   1.0000   1.0000
     1.0000   1.0000   1.0000   1.0000   1.0000   1.0000   1.0000   1.0000
     1.0000   1.0000   1.0000   1.0000   1.0000   1.0000   1.0000   1.0000
     1.0000   1.0000   1.0000   1.0000   1.0000   1.0000   1.0000   1.0000
     1.0000   1.0000   1.0000   1.0000   1.0000   1.0000   1.0000   1.0000
     1.0000   1.0000   1.0000   1.0000   1.0000   1.0000   1.0000   1.0000
     1.0000   1.0000   1.0000   1.0000   1.0000   1.0000   1.0000   1.0000
     1.0000   1.0000   1.0000   1.0000   1.0000   1.0000   1.0000   1.0000
     1.0000   1.0000   1.0000   1.0000   1.0000   1.0000   1.0000   1.0000
     1.0000   1.0000   1.0000   1.0000   1.0000   1.0000   1.0000   1.0000
     1.0000   1.0000   1.0000   1.0000   1.0000   1.0000   1.0000   1.0000
     1.0000   1.0000   1.0000   1.0000   1.0000   1.0000   1.0000   1.0000
     1.0000   1.0000   1.0000   1.0000   1.0000   1.0000   1.0000   1.0000
     1.0000   1.0000   1.0000   1.0000   1.0000   1.0000   1.0000   1.0000
     1.0000   1.0000   1.0000   1.0000   1.0000   1.0000   1.0000   1.0000
     1.0000   1.0000   1.0000   1.0000   1.0000   1.0000   1.0000   1.0000
     1.0000   1.0000   1.0000   1.0000   1.0000   1.0000   1.0000   1.0000
     1.0000   1.0000   1.0000   1.0000   1.0000   1.0000   1.0000   1.0000
     1.0000   1.0000   1.0000   1.0000   1.0000   1.0000   1.0000   1.0000
     1.0000   1.0000   1.0000   1.0000   1.0000   1.0000   1.0000   1.0000
     1.0000   1.0000   1.0000   1.0000   1.0000   1.0000   1.0000   1.0000
     1.0000   1.0000   1.0000   1.0000   1.0000   1.0000   1.0000   1.0000
     1.0000   1.0000   1.0000   1.0000   1.0000   1.0000   1.0000   1.0000
     1.0000   1.0000   1.0000   1.0000   1.0000   1.0000   1.0000   1.0000
     1.0000   1.0000   1.0000   1.0000   1.0000   1.0000   1.0000   1.0000
     1.0000   1.0000   1.0000   1.0000   1.0000   1.0000   1.0000   1.0000
     1.0000   1.0000   1.0000   1.0000   1.0000   1.0000   1.0000   1.0000
     1.0000   1.0000   1.0000   1.0000   1.0000   1.0000   1.0000   1.0000
     1.0000   1.0000   1.0000   1.0000   1.0000   1.0000   1.0000   1.0000
     1.0000   1.0000   1.0000   1.0000   1.0000   1.0000   1.0000   1.0000
     1.0000   1.0000   1.0000   1.0000   1.0000   1.0000   1.0000   1.0000
     1.0000   1.0000   1.0000   1.0000   1.0000   1.0000   1.0000   1.0000
     1.0000   1.0000   1.0000   1.0000   1.0000   1.0000   1.0000   1.0000
     1.0000   1.0000   1.0000   1.0000   1.0000   1.0000   1.0000   1.0000
     1.0000   1.0000   1.0000   1.0000   1.0000   1.0000   1.0000   1.0000
     1.0000   1.0000   1.0000   1.0000   1.0000   1.0000   1.0000   1.0000
     1.0000   1.0000   1.0000   1.0000   1.0000   1.0000   1.0000   1.0000
     1.0000   1.0000   1.0000   1.0000   1.0000   1.0000   1.0000   1.0000
     1.0000   1.0000   1.0000   1.0000   1.0000   1.0000   1.0000   1.0000
     1.0000   1.0000   1.0000   1.0000   1.0000   1.0000   1.0000   1.0000
     1.0000   1.0000   1.0000   1.0000   1.0000   1.0000   1.0000   1.0000
     1.0000   1.0000   1.0000   1.0000   1.0000   1.0000   1.0000   1.0000
     1.0000   1.0000   1.0000   1.0000   1.0000   1.0000   1.0000   1.0000
     1.0000   1.0000   1.0000   1.0000   1.0000   1.0000   1.0000   1.0000
     1.0000   1.0000   1.0000   1.0000   1.0000   1.0000   1.0000   1.0000
     1.0000   1.0000   1.0000   1.0000   1.0000   1.0000   1.0000   1.0000
     1.0000   1.0000   1.0000   1.0000   1.0000   1.0000   1.0000   1.0000
     1.0000   1.0000   1.0000   1.0000   1.0000   1.0000   1.0000   1.0000
     1.0000   1.0000   1.0000   1.0000   1.0000   1.0000   1.0000   1.0000
     1.0000   1.0000   1.0000   1.0000   1.0000   1.0000   1.0000   1.0000
     1.0000   1.0000   1.0000   1.0000   1.0000   1.0000   1.0000   1.0000
     1.0000   1.0000   1.0000   1.0000   1.0000   1.0000   1.0000   1.0000
     1.0000   1.0000   1.0000   1.0000   1.0000   1.0000   1.0000   1.0000
     1.0000   1.0000   1.0000   1.0000   1.0000   1.0000   1.0000   1.0000
     1.0000   1.0000   1.0000   1.0000   1.0000   1.0000   1.0000   1.0000
     1.0000   1.0000   1.0000   1.0000   1.0000   1.0000   1.0000   1.0000
     1.0000   1.0000   1.0000   1.0000   1.0000   1.0000   1.0000   1.0000
     1.0000   1.0000   1.0000   1.0000   1.0000   1.0000   1.0000   1.0000
     1.0000   1.0000   1.0000   1.0000   1.0000   1.0000   1.0000   1.0000
     1.0000   1.0000   1.0000   1.0000   1.0000   1.0000   1.0000   1.0000
     1.0000   1.0000   1.0000   1.0000   1.0000   1.0000   1.0000   1.0000
     1.0000   1.0000   1.0000   1.0000   1.0000   1.0000   1.0000   1.0000
     1.0000   1.0000   1.0000   1.0000   1.0000   1.0000   1.0000   1.0000
     1.0000   1.0000   1.0000   1.0000   1.0000   1.0000   1.0000   1.0000
     1.0000   1.0000   1.0000   1.0000   1.0000   1.0000   1.0000   1.0000
     1.0000   1.0000   1.0000   1.0000   1.0000   1.0000   1.0000   1.0000
     1.0000   1.0000   1.0000   1.0000   1.0000   1.0000   1.0000   1.0000
     1.0000   1.0000   1.0000   1.0000   1.0000   1.0000   1.0000   1.0000
     1.0000   1.0000   1.0000   1.0000   1.0000   1.0000   1.0000   1.0000
     1.0000   1.0000   1.0000   1.0000   1.0000   1.0000   1.0000   1.0000
     1.0000   1.0000   1.0000   1.0000   1.0000   1.0000   1.0000   1.0000
     1.0000   1.0000   1.0000   1.0000   1.0000   1.0000   1.0000   1.0000
     1.0000   1.0000   1.0000   1.0000   1.0000   1.0000   1.0000   1.0000
     1.0000   1.0000   1.0000   1.0000   1.0000   1.0000   1.0000   1.0000
     1.0000   1.0000   1.0000   1.0000   1.0000   1.0000   1.0000   1.0000
     1.0000   1.0000   1.0000   1.0000   1.0000   1.0000   1.0000   1.0000
     1.0000   1.0000   1.0000   1.0000   1.0000   1.0000   1.0000   1.0000
     1.0000   1.0000   1.0000   1.0000   1.0000   1.0000   1.0000   1.0000
     1.0000   1.0000   1.0000   1.0000   1.0000   1.0000   1.0000   1.0000
     1.0000   1.0000   1.0000   1.0000   1.0000   1.0000   1.0000   1.0000
     1.0000   1.0000   1.0000   1.0000   1.0000   1.0000   1.0000   1.0000
     1.0000   1.0000   1.0000   1.0000   1.0000   1.0000   1.0000   1.0000
     1.0000   1.0000   1.0000   1.0000   1.0000   1.0000   1.0000   1.0000
     1.0000   1.0000   1.0000   1.0000   1.0000   1.0000   1.0000   1.0000
     1.0000   1.0000   1.0000   1.0000   1.0000   1.0000   1.0000   1.0000
     1.0000   1.0000   1.0000   1.0000   1.0000   1.0000   1.0000   1.0000
     1.0000   1.0000   1.0000   1.0000   1.0000   1.0000   1.0000   1.0000
     1.0000   1.0000   1.0000   1.0000   1.0000   1.0000   1.0000   1.0000
     1.0000   1.0000   1.0000   1.0000   1.0000   1.0000   1.0000   1.0000
     1.0000   1.0000   1.0000   1.0000   1.0000   1.0000   1.0000   1.0000
     1.0000   1.0000   1.0000   1.0000   1.0000   1.0000   1.0000   1.0000
     1.0000   1.0000   1.0000   1.0000   1.0000   1.0000   1.0000   1.0000
     1.0000   1.0000   1.0000   1.0000   1.0000   1.0000   1.0000   1.0000
     1.0000   1.0000   1.0000   1.0000   1.0000   1.0000   1.0000   1.0000
     1.0000   1.0000   1.0000   1.0000   1.0000   1.0000   1.0000   1.0000
     1.0000   1.0000   1.0000   1.0000   1.0000   1.0000   1.0000   1.0000
     1.0000   1.0000   1.0000   1.0000   1.0000   1.0000   1.0000   1.0000
     1.0000   1.0000   1.0000   1.0000   1.0000   1.0000   1.0000   1.0000
     1.0000   1.0000   1.0000   1.0000   1.0000   1.0000   1.0000   1.0000
     1.0000   1.0000   1.0000   1.0000   1.0000   1.0000   1.0000   1.0000
     1.0000   1.0000   1.0000   1.0000   1.0000   1.0000   1.0000   1.0000
     1.0000   1.0000   1.0000   1.0000   1.0000   1.0000   1.0000   1.0000
     1.0000   1.0000   1.0000   1.0000   1.0000   1.0000   1.0000   1.0000
     1.0000   1.0000   1.0000   1.0000   1.0000   1.0000   1.0000   1.0000
     1.0000   1.0000   1.0000   1.0000   1.0000   1.0000   1.0000   1.0000
     1.0000   1.0000   1.0000   1.0000   1.0000   1.0000   1.0000   1.0000
     1.0000   1.0000   1.0000   1.0000   1.0000   1.0000   1.0000   1.0000
     1.0000   1.0000   1.0000   1.0000   1.0000   1.0000   1.0000   1.0000
     1.0000   1.0000   1.0000   1.0000   1.0000   1.0000   1.0000   1.0000
     1.0000   1.0000   1.0000   1.0000   1.0000   1.0000   1.0000   1.0000
     1.0000   1.0000   1.0000   1.0000   1.0000   1.0000   1.0000   1.0000
     1.0000   1.0000   1.0000   1.0000   1.0000   1.0000   1.0000   1.0000
     1.0000   1.0000   1.0000   1.0000   1.0000   1.0000   1.0000   1.0000
     1.0000   1.0000   1.0000   1.0000   1.0000   1.0000   1.0000   1.0000
     1.0000   1.0000   1.0000   1.0000   1.0000   1.0000   1.0000   1.0000
     1.0000   1.0000   1.0000   1.0000   1.0000   1.0000   1.0000   1.0000
     1.0000   1.0000   1.0000   1.0000   1.0000   1.0000   1.0000   1.0000
     1.0000   1.0000   1.0000   1.0000   1.0000   1.0000   1.0000   1.0000
     1.0000   1.0000   1.0000   1.0000   1.0000   1.0000   1.0000   1.0000
     1.0000   1.0000   1.0000   1.0000   1.0000   1.0000   1.0000   1.0000
     1.0000   1.0000   1.0000   1.0000   1.0000   1.0000   1.0000   1.0000
     1.0000   0.9999   0.9999   0.9999   0.9999   0.9998   0.9998   0.9983
     0.9983   0.9979   0.9979   0.9978   0.9978   0.9977   0.9976   0.9976
     0.9970   0.9970   0.9967   0.9883   0.9883   0.9815   0.9808   0.9808
     0.9807   0.9385   0.9345   0.9345   0.9250   0.9059   0.9058   0.8664
     0.8663   0.8517   0.0000   0.0000   0.0000   0.0000   0.0000   0.0000
     0.0000   0.0000   0.0000   0.0000   0.0000   0.0000   0.0000   0.0000
     0.0000   0.0000   0.0000   0.0000   0.0000   0.0000   0.0000   0.0000
     0.0000   0.0000   0.0000   0.0000   0.0000   0.0000   0.0000   0.0000
     0.0000   0.0000   0.0000   0.0000   0.0000   0.0000   0.0000   0.0000
     0.0000   0.0000   0.0000   0.0000   0.0000   0.0000   0.0000   0.0000
     0.0000   0.0000   0.0000   0.0000   0.0000   0.0000   0.0000   0.0000
     0.0000   0.0000   0.0000   0.0000   0.0000   0.0000   0.0000   0.0000
     0.0000   0.0000   0.0000   0.0000   0.0000   0.0000   0.0000   0.0000
     0.0000   0.0000   0.0000   0.0000   0.0000   0.0000   0.0000   0.0000
     0.0000   0.0000   0.0000   0.0000   0.0000   0.0000   0.0000   0.0000
     0.0000   0.0000   0.0000   0.0000   0.0000   0.0000   0.0000   0.0000
     0.0000   0.0000   0.0000   0.0000   0.0000   0.0000   0.0000   0.0000
     0.0000   0.0000   0.0000   0.0000   0.0000   0.0000   0.0000   0.0000
     0.0000   0.0000   0.0000   0.0000   0.0000   0.0000   0.0000   0.0000
     0.0000   0.0000   0.0000   0.0000   0.0000   0.0000   0.0000   0.0000
     0.0000   0.0000   0.0000   0.0000   0.0000   0.0000   0.0000   0.0000
     0.0000   0.0000   0.0000   0.0000   0.0000   0.0000   0.0000   0.0000
     0.0000   0.0000   0.0000   0.0000   0.0000   0.0000   0.0000   0.0000
     0.0000   0.0000   0.0000   0.0000   0.0000   0.0000   0.0000   0.0000
     0.0000   0.0000   0.0000   0.0000   0.0000   0.0000   0.0000   0.0000
     0.0000   0.0000   0.0000   0.0000   0.0000   0.0000   0.0000   0.0000
     0.0000   0.0000   0.0000   0.0000   0.0000   0.0000   0.0000   0.0000
     0.0000   0.0000   0.0000   0.0000   0.0000   0.0000   0.0000   0.0000
     0.0000   0.0000   0.0000   0.0000   0.0000   0.0000   0.0000   0.0000
     0.0000   0.0000   0.0000   0.0000   0.0000   0.0000   0.0000   0.0000
     0.0000   0.0000   0.0000   0.0000   0.0000   0.0000   0.0000   0.0000
     0.0000   0.0000   0.0000   0.0000   0.0000   0.0000   0.0000   0.0000
     0.0000   0.0000   0.0000   0.0000   0.0000   0.0000

     the Fermi energy is     3.5163 ev

!    total energy              =  -96237.81840087 Ry
     total all-electron energy =  -3331665.431137 Ry
     estimated scf accuracy    <       0.00000006 Ry
     smearing contrib. (-TS)   =      -0.02622566 Ry
     internal energy E=F+TS    =  -96237.79217520 Ry

     The total energy is F=E-TS. E is the sum of the following terms:
     one-electron contribution =  -17948.54718717 Ry
     hartree contribution      =   10008.90530854 Ry
     xc contribution           =   -6770.92955219 Ry
     ewald contribution        =  -14686.65767758 Ry
     one-center paw contrib.   =  -66840.56306679 Ry
      -> PAW hartree energy AE =      95.90913195 Ry
      -> PAW hartree energy PS =     -96.14588974 Ry
      -> PAW xc energy AE      =    -798.43042248 Ry
      -> PAW xc energy PS      =      33.31035281 Ry
      -> total E_H with PAW    =   10008.66855075 Ry
      -> total E_XC with PAW   =   -7536.04962187 Ry

     convergence has been achieved in  18 iterations


     -----------------------------------------------
     Non-local corr. energy    =      68.79612642 Ry
     -----------------------------------------------


     Forces acting on atoms (cartesian axes, Ry/au):

     atom    1 type  1   force =     0.00000080   -0.00000226   -0.00008861
     atom    2 type  1   force =     0.00000018   -0.00000202    0.00008797
     atom    3 type  1   force =     0.00053876   -0.00092954    0.00000204
     atom    4 type  1   force =     0.00000315    0.00014455   -0.00008757
     atom    5 type  1   force =    -0.00012792    0.00006955    0.00009301
     atom    6 type  1   force =    -0.00000224    0.00000437    0.00000067
     atom    7 type  1   force =     0.00006555    0.00003526   -0.00005159
     atom    8 type  1   force =    -0.00006519   -0.00003923    0.00005639
     atom    9 type  1   force =    -0.00053703    0.00094057    0.00000334
     atom   10 type  1   force =     0.00012898   -0.00007185   -0.00008919
     atom   11 type  1   force =    -0.00000134   -0.00014598    0.00009220
     atom   12 type  1   force =    -0.00108568    0.00000016   -0.00000390
     atom   13 type  1   force =     0.00012571   -0.00007589   -0.00009472
     atom   14 type  1   force =     0.00012554    0.00007345    0.00008836
     atom   15 type  1   force =    -0.00054039   -0.00093622   -0.00000059
     atom   16 type  1   force =    -0.00000142    0.00014399   -0.00009082
     atom   17 type  1   force =     0.00012742    0.00007031    0.00009236
     atom   18 type  1   force =    -0.00000199   -0.00042228    0.00077066
     atom   19 type  1   force =     0.00000092    0.00013267   -0.00005799
     atom   20 type  1   force =     0.00000029    0.00001464    0.00002612
     atom   21 type  1   force =    -0.00036965    0.00021538    0.00077427
     atom   22 type  1   force =     0.00011794   -0.00006709   -0.00005654
     atom   23 type  1   force =     0.00001420   -0.00000791    0.00002484
     atom   24 type  1   force =    -0.00001210    0.00000117   -0.00000442
     atom   25 type  1   force =     0.00000065   -0.00007662   -0.00005614
     atom   26 type  1   force =    -0.00000019    0.00007462    0.00005093
     atom   27 type  1   force =    -0.00037048   -0.00021147   -0.00077552
     atom   28 type  1   force =     0.00001424    0.00000643   -0.00002421
     atom   29 type  1   force =     0.00011687    0.00006714    0.00005721
     atom   30 type  1   force =    -0.00000186   -0.00000320   -0.00000191
     atom   31 type  1   force =    -0.00006404    0.00003594   -0.00005313
     atom   32 type  1   force =     0.00006530   -0.00003871    0.00005494
     atom   33 type  1   force =     0.00036028    0.00021275    0.00077317
     atom   34 type  1   force =    -0.00011530   -0.00006696   -0.00005675
     atom   35 type  1   force =    -0.00001293   -0.00000735    0.00002498
     atom   36 type  1   force =     0.00107133    0.00000497   -0.00000559
     atom   37 type  1   force =    -0.00012429   -0.00007583   -0.00009202
     atom   38 type  1   force =    -0.00012434    0.00007557    0.00008680
     atom   39 type  1   force =     0.00036183   -0.00020664   -0.00077588
     atom   40 type  1   force =    -0.00001190    0.00000703   -0.00002261
     atom   41 type  1   force =    -0.00011573    0.00006743    0.00005787
     atom   42 type  1   force =    -0.00000040    0.00042253   -0.00077369
     atom   43 type  1   force =     0.00000144   -0.00001589   -0.00002332
     atom   44 type  1   force =     0.00000108   -0.00013512    0.00005696
     atom   45 type  1   force =     0.00054111    0.00093485   -0.00000078
     atom   46 type  1   force =    -0.00012612   -0.00007019   -0.00008918
     atom   47 type  1   force =     0.00000357   -0.00014444    0.00009020
     atom   48 type  2   force =     0.00001186    0.00017732   -0.00046487
     atom   49 type  2   force =     0.00000739    0.00008812    0.00012792
     atom   50 type  2   force =     0.00004321    0.00061298   -0.00086889
     atom   51 type  2   force =     0.00016324   -0.00010490   -0.00044079
     atom   52 type  2   force =     0.00008116   -0.00005059    0.00011389
     atom   53 type  2   force =     0.00057966   -0.00036129   -0.00088675
     atom   54 type  2   force =     0.00006314    0.00000568   -0.00007624
     atom   55 type  2   force =     0.00012716   -0.00003261    0.00009072
     atom   56 type  2   force =    -0.00005908   -0.00016023    0.00055749
     atom   57 type  2   force =     0.00003188    0.00007580   -0.00009776
     atom   58 type  2   force =     0.00003145    0.00014473    0.00010964
     atom   59 type  2   force =    -0.00018030    0.00010977    0.00058221
     atom   60 type  2   force =     0.00001480   -0.00000524   -0.00010694
     atom   61 type  2   force =    -0.00008700    0.00004850    0.00012018
     atom   62 type  2   force =    -0.00079748    0.00045577   -0.00025122
     atom   63 type  2   force =    -0.00014201   -0.00010633   -0.00045721
     atom   64 type  2   force =    -0.00007425   -0.00005610    0.00012433
     atom   65 type  2   force =    -0.00051896   -0.00037885   -0.00087251
[...]
     atom  107 type  2   force =    -0.00000146    0.00000197   -0.00000171
     atom  108 type  2   force =    -0.00000794    0.00001122    0.00000143
     atom  109 type  2   force =    -0.00000477    0.00000365   -0.00000245
     atom  110 type  2   force =    -0.00000286    0.00000689   -0.00000227
     atom  111 type  2   force =    -0.00000888    0.00000254   -0.00000816
     atom  112 type  2   force =    -0.00000132   -0.00000328   -0.00000441
     atom  113 type  2   force =    -0.00000473    0.00000032    0.00000748
     atom  114 type  2   force =    -0.00000221   -0.00002134   -0.00000900
     atom  115 type  2   force =    -0.00000121   -0.00000798   -0.00000197
     atom  116 type  2   force =     0.00000219   -0.00000659    0.00000706
     atom  117 type  2   force =    -0.00000615   -0.00000705   -0.00000262
     atom  118 type  2   force =    -0.00000544    0.00000029   -0.00000015
     atom  119 type  2   force =     0.00000254   -0.00000199    0.00000053
     atom  120 type  2   force =    -0.00000012    0.00001174   -0.00000324
     atom  121 type  2   force =    -0.00000353    0.00000512   -0.00000016
     atom  122 type  2   force =     0.00000088    0.00000098    0.00000137
     atom  123 type  2   force =    -0.00000687    0.00000499   -0.00000439
     atom  124 type  2   force =    -0.00000373   -0.00000087   -0.00000393
     atom  125 type  2   force =    -0.00000589    0.00000046    0.00000370
     atom  126 type  2   force =    -0.00000099   -0.00001575   -0.00000747
     atom  127 type  2   force =     0.00000054   -0.00000690   -0.00000144
     atom  128 type  2   force =    -0.00000401   -0.00000356    0.00000569
     atom  129 type  2   force =     0.00000250   -0.00000434   -0.00000858
     atom  130 type  2   force =     0.00000054   -0.00000091    0.00000157
     atom  131 type  2   force =     0.00000124   -0.00000256    0.00000493
     atom  132 type  2   force =     0.00001246    0.00001412   -0.00000658
     atom  133 type  2   force =     0.00000556    0.00000555   -0.00000155
     atom  134 type  2   force =     0.00000413    0.00000249    0.00000487
     atom  135 type  2   force =     0.00000604    0.00000497   -0.00000141
     atom  136 type  2   force =     0.00000121    0.00000127   -0.00000603
     atom  137 type  2   force =     0.00000342   -0.00000182    0.00000459
     atom  138 type  2   force =     0.00000185   -0.00000521   -0.00000055
     atom  139 type  2   force =     0.00000063   -0.00000112   -0.00000562
     atom  140 type  2   force =    -0.00000337   -0.00000142    0.00000307
     atom  141 type  2   force =     0.00000791    0.00000243   -0.00000449
     atom  142 type  2   force =     0.00000560    0.00000185   -0.00000107
     atom  143 type  2   force =    -0.00000233    0.00000157    0.00000255

     Total force =     0.005595     Total SCF correction =     0.000107


     Computing stress (Cartesian axis) and pressure



     -----------------------------------------------
     Non-local corr. energy    =      68.79607135 Ry
     -----------------------------------------------

          total   stress  (Ry/bohr**3)                   (kbar)     P=        1.08
   0.00000595   0.00000000  -0.00000000            0.88        0.00       -0.00
   0.00000000   0.00000595   0.00000000            0.00        0.88        0.00
  -0.00000000   0.00000000   0.00001009           -0.00        0.00        1.48

     kinetic stress (kbar)  14853.83      0.00     -0.00
                                0.00  14853.83      0.00
                               -0.00      0.00  14865.34

     local   stress (kbar)  -7517.85     -0.03      0.01
                               -0.03  -7517.91     -0.01
                                0.01     -0.01   1272.85

     nonloc. stress (kbar)  -1017.53      0.00     -0.00
                                0.00  -1017.53      0.00
                               -0.00      0.00  -1022.79

     hartree stress (kbar)  12004.60      0.01     -0.00
                                0.01  12004.62      0.00
                               -0.00      0.00   8042.51

     exc-cor stress (kbar)   6914.70      0.00     -0.00
                                0.00   6914.70      0.00
                               -0.00      0.00   6913.60

     corecor stress (kbar) -11254.43     -0.00      0.00
                               -0.00 -11254.43     -0.00
                                0.00     -0.00 -11254.36

     ewald   stress (kbar) -14065.43      0.02     -0.01
                                0.02 -14065.40      0.01
                               -0.01      0.01 -18899.95

     hubbard stress (kbar)      0.00      0.00      0.00
                                0.00      0.00      0.00
                                0.00      0.00      0.00

     DFT-D   stress (kbar)      0.00      0.00      0.00
                                0.00      0.00      0.00
                                0.00      0.00      0.00

     XDM     stress (kbar)      0.00      0.00      0.00
                                0.00      0.00      0.00
                                0.00      0.00      0.00

     dft-nl  stress (kbar)     83.00     -0.00      0.00
                               -0.00     83.00     -0.00
                                0.00     -0.00     84.29

     TS-vdW  stress (kbar)      0.00      0.00      0.00
                                0.00      0.00      0.00
                                0.00      0.00      0.00

     MDB     stress (kbar)      0.00      0.00      0.00
                                0.00      0.00      0.00
                                0.00      0.00      0.00

     3D-RISM stress (kbar)      0.00      0.00      0.00
                                0.00      0.00      0.00
                                0.00      0.00      0.00

     Energy error            =      3.9E-05 Ry
     Gradient error          =      9.0E-04 Ry/Bohr

     bfgs converged in  13 scf cycles and  12 bfgs steps
     (criteria: energy <  1.0E-04 Ry, force <  1.0E-03 Ry/Bohr)

     End of BFGS Geometry Optimization

     Final energy             =  -96237.8187216896 Ry

     File ./PbI2.bfgs deleted, as requested
Begin final coordinates

ATOMIC_POSITIONS (angstrom)
Pb            2.3557124929        4.0797369198        7.3738539293
Pb            2.3558019089        4.0796455864       14.7591944548
Pb            0.0640806650        8.0489926496       22.1329697072
Pb            0.0013317499        8.1602168274        7.3743908966
Pb           -0.0008300067        8.1588367958       14.7585073972
Pb           -2.3554835739       12.2398012346       22.1328998046
Pb           -2.3542506295       12.2406385806        7.3767475504
Pb           -2.3568330343       12.2390406819       14.7560377279
Pb           -4.7750224972       16.4306002834       22.1329333084
Pb           -4.7102265913       16.3208599761        7.3743420820
Pb           -4.7124003870       16.3194683006       14.7584745526
Pb            6.9392396351        4.0796179511       22.1331023838
Pb            7.0667015144        4.0784277235        7.3745202258
Pb            7.0667781081        4.0809355801       14.7586395708
Pb            4.6475189114        8.0489793012       22.1330176256
Pb            4.7100725055        8.1601975987        7.3744395848
Pb            4.7124114902        8.1588177541       14.7585656338
Pb            2.3557966498       12.2248848365       22.1529968439
Pb            2.3556888657       12.2382119921        7.3751501016
Pb            2.3557709864       12.2394848841       14.7560157714
Pb           -0.0127396778       16.3273065185       22.1530100766
Pb           -0.0013696030       16.3207772354        7.3751696439
Pb           -0.0001339515       16.3200129329       14.7560314419
Pb           11.7783600245        4.0796232772       22.1331602018
Pb           11.7782609036        4.0781816561        7.3769912049
Pb           11.7783421471        4.0811745773       14.7562753387
Pb            9.4098207222        8.1522447215       22.1130485893
Pb            9.4223615984        8.1596377912        7.3769974961
Pb            9.4212753960        8.1588875693       14.7578478535
Pb            7.0670769062       12.2397721235       22.1330093139
Pb            7.0656369349       12.2406208601        7.3768550318
Pb            7.0683958376       12.2390100032       14.7561456111
Pb            4.7243445994       16.3272957602       22.1530728994
Pb            4.7127640762       16.3207616229        7.3752166268
Pb            4.7116902061       16.3199980840       14.7560829606
Pb           16.6174804928        4.0796287729       22.1331424737
Pb           16.4898133916        4.0784207289        7.3745546301
Pb           16.4899240330        4.0809379577       14.7586852592
Pb           14.1468883561        8.1522499911       22.1130312238
Pb           14.1341394853        8.1596369728        7.3769925090
Pb           14.1354072822        8.1588971513       14.7578516642
Pb           11.7783431451       12.2546654195       22.1129508462
Pb           11.7782367421       12.2401456468        7.3769305243
Pb           11.7783356887       12.2414518893       14.7577974591
Pb            9.4866306782       16.4305831798       22.1330179994
Pb            9.4216176423       16.3208393492        7.3744340063
Pb            9.4239798703       16.3194509843       14.7585778226
I             2.3556537592        1.3616913556        5.4845562424
I             2.3557347504        1.3604338555       12.8709760454
I             2.3557821151        1.3304939254       20.2894024281
I             0.0017142671        5.4388310245        5.4845939252
I             0.0007358722        5.4393721577       12.8710112330
I            -0.0248433115        5.4540384747       20.2895986328
I            -2.3552431755        9.5196496112        5.4919653343
I            -2.3546358569        9.5198205923       12.8699579705
I            -2.3668346319        9.5269233780       20.2589326222
I            -4.7112295483       13.6003543609        5.4919329878
I            -4.7107141237       13.6006966486       12.8699350383
I            -4.7106426036       13.5865754450       20.2589116381
I             7.0683152586        1.3590225220        5.4919814908
I             7.0662249714        1.3602016002       12.8705539737
I             7.0619059099        1.3627000453       20.2418936531
I             4.7096836237        5.4388567509        5.4845908746
I             4.7107992596        5.4393844362       12.8710196006
I             4.7366163117        5.4541235993       20.2895035345
I             2.3557128378        9.5213868610        5.4919591753
I             2.3557776451        9.5188764873       12.8704674800
I             2.3557627693        9.5138849493       20.2418716697
I             0.0006635550       13.6003095859        5.4933520127
I            -0.0000857271       13.5998238717       12.8696315938
I            -0.0004653143       13.5996526651       20.2480612384
I            11.7782533967        1.3590955831        5.4934632539
I            11.7783032964        1.3599617312       12.8697924825
I            11.7782742870        1.3603970819       20.2481968258
I             9.4222900584        5.4395809912        5.4920794339
I             9.4222456299        5.4389426355       12.8701377108
I             9.4345249818        5.4459361594       20.2590786475
I             7.0666257633        9.5196684108        5.4920167433
I             7.0661460630        9.5198182533       12.8700175601
I             7.0783609224        9.5269008011       20.2589948705
I             4.7107533486       13.6002977461        5.4934169259
I             4.7116103538       13.5998064473       12.8696836422
I             4.7119510275       13.5996260288       20.2481233322
I            16.4881564930        1.3589950342        5.4920452391
I            16.4903690243        1.3601811472       12.8706000721
I            16.4946919516        1.3626909639       20.2419657380
I            14.1342066021        5.4395668653        5.4920874719
I            14.1343740057        5.4389391071       12.8701363151
I            14.1221029211        5.4459378324       20.2590758271
I            11.7782219541        9.5198352528        5.4925918858
I            11.7782974708        9.5198063141       12.8716679872
I            11.7782777013        9.5197998680       20.2538586606
I             9.4225577084       13.6003474616        5.4919930888
I             9.4221955650       13.6006875281       12.8699939916
I             9.4221450827       13.5865592811       20.2589825238
I            -0.0248896255        2.7051105084        1.8435714102
I             0.0007354828        2.7201119218        9.2619923338
I             0.0018495773        2.7205976562       16.6484385123
I            -2.3503065328        6.7968475061        1.8911165214
I            -2.3547242970        6.7993996696        9.2624451264
I            -2.3568153176        6.8005846936       16.6410233745
I            -4.7105494562       10.8802214974        1.8847734901
I            -4.7109792311       10.8800754546        9.2632178734
I            -4.7117089699       10.8795689637       16.6395573854
I            -7.0667396171       14.9658715895        1.8910140341
I            -7.0668222980       14.9609478799        9.2623581131
I            -7.0667172357       14.9583721549       16.6409572867
I             4.7363934720        2.7051662024        1.8433355958
I             4.7106786028        2.7201051950        9.2619611741
I             4.7097630674        2.7205781175       16.6484167948
I             2.3557676709        6.8287645381        1.8435637670
I             2.3556843026        6.7991286554        9.2619446167
I             2.3557653016        6.7978742944       16.6484067138
I            -0.0004127093       10.8931744484        1.8739207640
I            -0.0004304985       10.8791581095        9.2628603091
I             0.0000626589       10.8795061583       16.6409287518
I            -2.3442296227       14.9527951488        1.8738623264
I            -2.3565106414       14.9599751693        9.2628659576
I            -2.3558883386       14.9600991546       16.6409423244
I             9.4344570661        2.7134441466        1.8739922421
I             9.4221369077        2.7205210478        9.2630234772
I             9.4223093188        2.7198484373       16.6410665569
I             7.0618674426        6.7968152353        1.8911312443
I             7.0661278658        6.7993836702        9.2624716382
I             7.0683836014        6.8005277452       16.6410492230
I             4.7118894982       10.8931564456        1.8739948144
I             4.7117699631       10.8791393336        9.2629214662
I             4.7114008223       10.8794676604       16.6409823399
I             2.3557318204       14.9599224838        1.8791042778
I             2.3556706659       14.9599748223        9.2613179425
I             2.3557074707       14.9599124423       16.6404088166
I            14.1221518888        2.7134472017        1.8740717356
I            14.1343321607        2.7205247952        9.2630412490
I            14.1342637791        2.7198616244       16.6410734407
I            11.7783099168        6.7991514444        1.8849046958
I            11.7782370421        6.7996197887        9.2633568969
I            11.7783005010        6.8004662675       16.6396684411
I             9.4221096457       10.8801983513        1.8848382326
I             9.4223895742       10.8800549260        9.2632675423
I             9.4232846745       10.8795247387       16.6395950953
I             7.0557522564       14.9527779811        1.8740043708
I             7.0678877833       14.9599710482        9.2629575318
I             7.0674069870       14.9600749950       16.6410068816
End final coordinates



     Writing all to output data dir ./PbI2.save/
 
     init_run     :     30.65s CPU     31.79s WALL (       1 calls)
     electrons    :  45592.90s CPU  46136.43s WALL (       4 calls)
     update_pot   :      7.72s CPU      7.78s WALL (       3 calls)
     forces       :     44.20s CPU     45.96s WALL (       4 calls)
     stress       :    741.76s CPU    749.18s WALL (       4 calls)

     Called by init_run:
     wfcinit      :     24.28s CPU     24.83s WALL (       1 calls)
     wfcinit:atom :      0.03s CPU      0.06s WALL (       1 calls)
     wfcinit:wfcr :     23.75s CPU     24.12s WALL (       1 calls)
     potinit      :      1.34s CPU      1.63s WALL (       1 calls)
     hinit0       :      1.10s CPU      1.18s WALL (       1 calls)

     Called by electrons:
     c_bands      :  44909.24s CPU  45431.59s WALL (      67 calls)
     sum_band     :    560.92s CPU    575.21s WALL (      67 calls)
     v_of_rho     :     49.21s CPU     49.69s WALL (      68 calls)
     v_h          :      1.01s CPU      1.02s WALL (      68 calls)
     v_xc         :     53.92s CPU     54.45s WALL (      76 calls)
     newd         :     17.37s CPU     22.50s WALL (      68 calls)
     PAW_pot      :     19.95s CPU     20.18s WALL (      71 calls)
     mix_rho      :      2.66s CPU      2.72s WALL (      67 calls)
     vdW_kernel   :      0.15s CPU      0.16s WALL (       1 calls)

     Called by c_bands:
     init_us_2    :      6.27s CPU      6.46s WALL (     138 calls)
     init_us_2:cp :      6.27s CPU      6.46s WALL (     138 calls)
     cegterg      :  44884.67s CPU  45358.95s WALL (      68 calls)

     Called by sum_band:
     sum_band:wei :      0.07s CPU      0.08s WALL (      67 calls)
     sum_band:loo :    540.69s CPU    545.40s WALL (      67 calls)
     sum_band:buf :      0.00s CPU      0.00s WALL (      67 calls)
     sum_band:ini :      5.34s CPU      5.44s WALL (      67 calls)
     sum_band:cal :    144.82s CPU    145.89s WALL (      70 calls)
     sum_band:bec :      2.51s CPU      2.54s WALL (      70 calls)
     addusdens    :     17.60s CPU     23.91s WALL (      67 calls)
     addusd:skk   :      2.39s CPU      2.43s WALL (     134 calls)
     addusd:dgemm :      9.27s CPU     15.39s WALL (     134 calls)
     addusd:qvan2 :      5.55s CPU      5.61s WALL (     134 calls)

     Called by *egterg:
     cdiaghg      :  39612.72s CPU  39843.82s WALL (    1288 calls)
     cegterg:over :    790.71s CPU    826.14s WALL (    1227 calls)
     cegterg:upda :    456.70s CPU    466.09s WALL (    1227 calls)
     cegterg:last :    193.45s CPU    194.76s WALL (      69 calls)
     h_psi        :   3199.54s CPU   3239.35s WALL (    1296 calls)
     s_psi        :    384.22s CPU    393.96s WALL (    1296 calls)
     g_psi        :      1.41s CPU      1.43s WALL (    1227 calls)

     Called by h_psi:
     h_psi:calbec :    445.37s CPU    449.07s WALL (    1296 calls)
     vloc_psi     :   2361.74s CPU   2382.04s WALL (    1296 calls)
     vloc_psi:tg_ :      0.39s CPU      0.42s WALL (    1296 calls)
     add_vuspsi   :    385.83s CPU    396.56s WALL (    1296 calls)

     General routines
     calbec       :    631.57s CPU    636.70s WALL (    1386 calls)
     fft          :     52.52s CPU     52.99s WALL (    4958 calls)
     ffts         :      1.50s CPU      1.53s WALL (     135 calls)
     fftw         :   2688.32s CPU   2711.25s WALL (  616380 calls)
     interpolate  :      1.78s CPU      1.80s WALL (      68 calls)
 
     Parallel routines
     fft_scatt_xy :     67.06s CPU     67.57s WALL (  621473 calls)
     fft_scatt_yz :   2293.53s CPU   2311.23s WALL (  621473 calls)
     fft_scatt_tg :      4.22s CPU      4.34s WALL (  616380 calls)

     PAW routines
     PAW_pot      :     19.95s CPU     20.18s WALL (      71 calls)
 
     PWSCF        :     12h54m CPU     13h 3m WALL

 
   This run was terminated on:  21:50:10  16Feb2024            

=------------------------------------------------------------------------------=
   JOB DONE.
=------------------------------------------------------------------------------=
