
     Program PWSCF v.7.1 starts on 23Mar2024 at  8: 5: 8 

     This program is part of the open-source Quantum ESPRESSO suite
     for quantum simulation of materials; please cite
         "P. Giannozzi et al., J. Phys.:Condens. Matter 21 395502 (2009);
         "P. Giannozzi et al., J. Phys.:Condens. Matter 29 465901 (2017);
         "P. Giannozzi et al., J. Chem. Phys. 152 154105 (2020);
          URL http://www.quantum-espresso.org", 
     in publications or presentations arising from this work. More details at
     http://www.quantum-espresso.org/quote

     Parallel version (MPI & OpenMP), running on      90 processor cores
     Number of MPI processes:                90
     Threads/MPI process:                     1

     MPI processes distributed on     3 nodes
     2016207 MiB available memory on the printing compute node when the environment starts
 
     Reading input from espresso.pwi
Warning: card &CELL ignored
Warning: card    CELL_DYNAMICS    = 'BFGS' ignored
Warning: card / ignored

     Current dimensions of program PWSCF are:
     Max number of different atomic species (ntypx) = 10
     Max number of k-points (npk) =  40000
     Max angular momentum in pseudopotentials (lmaxx) =  4
     file Pb.pbe-dn-kjpaw_psl.1.0.0.UPF: wavefunction(s)  6S 6P 5D renormalized
     file I.pbe-dn-kjpaw_psl.1.0.0.UPF: wavefunction(s)  5S 5P renormalized

     **************************************************************************
     Initializing libbeef V0.1.2 with the BEEF-vdW functional.
     Citation: Wellendorff et al., PRB 85, 235149 (2012).
     **************************************************************************


     IMPORTANT: XC functional enforced from input :
     Exchange-correlation= BEEF-VDW
                           (   1   4  43  14   2   0   0)
     Any further DFT definition will be discarded
     Please, verify this is what you really want

 
     K-points division:     npool     =       2
     R & G space division:  proc/nbgrp/npool/nimage =      45
     Subspace diagonalization in iterative solution of the eigenvalue problem:
     a serial algorithm will be used

 
     Parallelization info
     --------------------
     sticks:   dense  smooth     PW     G-vecs:    dense   smooth      PW
     Min         382     306     79                42328    30286    3973
     Max         383     307     80                42337    30290    3978
     Sum       17215   13777   3559              1904969  1362953  178821
 
     Using Slab Decomposition
 


     bravais-lattice index     =            4
     lattice parameter (alat)  =      26.7090  a.u.
     unit-cell volume          =   17226.5091 (a.u.)^3
     number of atoms/cell      =           54
     number of atomic types    =            2
     number of electrons       =       859.00
     number of Kohn-Sham states=          516
     kinetic-energy cutoff     =      70.0000  Ry
     charge density cutoff     =     350.0000  Ry
     scf convergence threshold =      1.0E-07
     mixing beta               =       0.7000
     number of iterations used =            8  plain     mixing
     Exchange-correlation= BEEF-VDW
                           (   1   4  43  14   2   0   0)

     celldm(1)=  26.709025  celldm(2)=   0.000000  celldm(3)=   1.043981
     celldm(4)=   0.000000  celldm(5)=   0.000000  celldm(6)=   0.000000

     crystal axes: (cart. coord. in units of alat)
               a(1) = (   1.000000   0.000000   0.000000 )  
               a(2) = (  -0.500000   0.866025   0.000000 )  
               a(3) = (   0.000000   0.000000   1.043981 )  

     reciprocal axes: (cart. coord. in units 2 pi/alat)
               b(1) = (  1.000000  0.577350 -0.000000 )  
               b(2) = (  0.000000  1.154701  0.000000 )  
               b(3) = (  0.000000 -0.000000  0.957872 )  


     PseudoPot. # 1 for Pb read from file:
     /trace/group/acmegroup/atimmins/packages/espresso/pseudo/psl_1.0.0/pslibrary.1.0.0/pbe/PSEUDOPOTENTIALS/Pb.pbe-dn-kjpaw_psl.1.0.0.UPF
     MD5 check sum: 39ab5b8a6bbd56b7735ad9f188aac93a
     Pseudo is Projector augmented-wave + core cor, Zval = 14.0
     Generated using 'atomic' code by A. Dal Corso  v.7.1
     Shape of augmentation charge: PSQ
     Using radial grid of 1281 points,  6 beta functions with: 
                l(1) =   0
                l(2) =   0
                l(3) =   1
                l(4) =   1
                l(5) =   2
                l(6) =   2
     Q(r) pseudized with 0 coefficients 


     PseudoPot. # 2 for I  read from file:
     /trace/group/acmegroup/atimmins/packages/espresso/pseudo/psl_1.0.0/pslibrary.1.0.0/pbe/PSEUDOPOTENTIALS/I.pbe-dn-kjpaw_psl.1.0.0.UPF
     MD5 check sum: bfa8781bc1224d19af3f3980e3fab11e
     Pseudo is Projector augmented-wave + core cor, Zval = 17.0
     Generated using 'atomic' code by A. Dal Corso  v.7.1
     Shape of augmentation charge: PSQ
     Using radial grid of 1247 points,  6 beta functions with: 
                l(1) =   0
                l(2) =   0
                l(3) =   1
                l(4) =   1
                l(5) =   2
                l(6) =   2
     Q(r) pseudized with 0 coefficients 


     atomic species   valence    mass     pseudopotential
        Pb            14.00   207.20000     Pb( 1.00)
        I             17.00   126.90447     I ( 1.00)

     No symmetry found


                                    s                        frac. trans.

      isym =  1     identity                                     

 cryst.   s( 1) = (     1          0          0      )
                  (     0          1          0      )
                  (     0          0          1      )

 cart.    s( 1) = (  1.0000000  0.0000000  0.0000000 )
                  (  0.0000000  1.0000000  0.0000000 )
                  (  0.0000000  0.0000000  1.0000000 )


     point group C_1 (1)    
     there are  1 classes
     the character table:

       E    
A      1.00

     the symmetry operations in each class and the name of the first element:

     E        1
          identity                                               

   Cartesian axes

     site n.     atom                  positions (alat units)
         1           Pb  tau(   1) = (   0.1666780   0.2886497   1.0439767  )
         2           Pb  tau(   2) = (   0.1666712   0.2886557   0.5219862  )
         3           Pb  tau(   3) = (   0.0000102   0.5773235   1.0439712  )
         4           Pb  tau(   4) = (   0.0000034   0.5773295   0.5219807  )
         5           Pb  tau(   5) = (  -0.1666576   0.8659973   1.0439657  )
         6           Pb  tau(   6) = (  -0.1666644   0.8660033   0.5219752  )
         7           Pb  tau(   7) = (   0.5000113   0.2886484   1.0439810  )
         8           Pb  tau(   8) = (   0.5000045   0.2886544   0.5219905  )
         9           Pb  tau(   9) = (   0.3333436   0.5773222   1.0439755  )
        10           Pb  tau(  10) = (   0.3333367   0.5773282   0.5219850  )
        11           Pb  tau(  11) = (   0.1666758   0.8659960   1.0439700  )
        12           Pb  tau(  12) = (   0.1666690   0.8660020   0.5219795  )
        13           Pb  tau(  13) = (   0.8333447   0.2886471   1.0439853  )
        14           Pb  tau(  14) = (   0.8333379   0.2886531   0.5219949  )
        15           Pb  tau(  15) = (   0.6666769   0.5773209   1.0439798  )
        16           Pb  tau(  16) = (   0.6666701   0.5773269   0.5219894  )
        17           Pb  tau(  17) = (   0.5000091   0.8659947   1.0439743  )
        18           Pb  tau(  18) = (   0.5000023   0.8660007   0.5219839  )
        19           I   tau(  19) = (   0.1666806   0.0962006   0.9099004  )
        20           I   tau(  20) = (   0.0000060   0.3848804   0.3879044  )
        21           I   tau(  21) = (   0.0000129   0.3848744   0.9098949  )
        22           I   tau(  22) = (  -0.1666617   0.6735542   0.3878990  )
        23           I   tau(  23) = (  -0.1666549   0.6735482   0.9098894  )
        24           I   tau(  24) = (   0.5000071   0.0962053   0.3879143  )
        25           I   tau(  25) = (   0.5000140   0.0961993   0.9099047  )
        26           I   tau(  26) = (   0.3333394   0.3848792   0.3879088  )
        27           I   tau(  27) = (   0.3333462   0.3848731   0.9098993  )
        28           I   tau(  28) = (   0.1666716   0.6735530   0.3879033  )
        29           I   tau(  29) = (   0.1666784   0.6735469   0.9098938  )
        30           I   tau(  30) = (   0.8333405   0.0962041   0.3879186  )
        31           I   tau(  31) = (   0.8333473   0.0961980   0.9099091  )
        32           I   tau(  32) = (   0.6666727   0.3848779   0.3879131  )
        33           I   tau(  33) = (   0.6666795   0.3848718   0.9099036  )
        34           I   tau(  34) = (   0.5000049   0.6735517   0.3879076  )
        35           I   tau(  35) = (   0.5000117   0.6735457   0.9098981  )
        36           I   tau(  36) = (  -0.0000023   0.1924396   0.1340740  )
        37           I   tau(  37) = (   0.0000045   0.1924336   0.6560644  )
        38           I   tau(  38) = (  -0.1666701   0.4811134   0.1340685  )
        39           I   tau(  39) = (  -0.1666632   0.4811074   0.6560589  )
        40           I   tau(  40) = (  -0.3333378   0.7697873   0.1340630  )
        41           I   tau(  41) = (  -0.3333310   0.7697812   0.6560534  )
        42           I   tau(  42) = (   0.3333311   0.1924384   0.1340783  )
        43           I   tau(  43) = (   0.3333379   0.1924323   0.6560688  )
        44           I   tau(  44) = (   0.1666633   0.4811122   0.1340728  )
        45           I   tau(  45) = (   0.1666701   0.4811061   0.6560633  )
        46           I   tau(  46) = (  -0.0000045   0.7697860   0.1340673  )
        47           I   tau(  47) = (   0.0000023   0.7697799   0.6560578  )
        48           I   tau(  48) = (   0.6666644   0.1924371   0.1340827  )
        49           I   tau(  49) = (   0.6666712   0.1924310   0.6560731  )
        50           I   tau(  50) = (   0.4999966   0.4811109   0.1340772  )
        51           I   tau(  51) = (   0.5000034   0.4811049   0.6560676  )
        52           I   tau(  52) = (   0.3333288   0.7697847   0.1340717  )
        53           I   tau(  53) = (   0.3333356   0.7697787   0.6560621  )
        54           Pb  tau(  54) = (   0.1666738   0.0962066   0.3879099  )

   Crystallographic axes

     site n.     atom                  positions (cryst. coord.)
         1           Pb  tau(   1) = (  0.3333300  0.3333039  0.9999959  )
         2           Pb  tau(   2) = (  0.3333266  0.3333109  0.4999959  )
         3           Pb  tau(   3) = (  0.3333281  0.6666357  0.9999906  )
         4           Pb  tau(   4) = (  0.3333248  0.6666427  0.4999906  )
         5           Pb  tau(   5) = (  0.3333262  0.9999675  0.9999854  )
         6           Pb  tau(   6) = (  0.3333229  0.9999745  0.4999854  )
         7           Pb  tau(   7) = (  0.6666626  0.3333025  1.0000001  )
         8           Pb  tau(   8) = (  0.6666592  0.3333094  0.5000001  )
         9           Pb  tau(   9) = (  0.6666607  0.6666343  0.9999948  )
        10           Pb  tau(  10) = (  0.6666573  0.6666412  0.4999948  )
        11           Pb  tau(  11) = (  0.6666588  0.9999661  0.9999895  )
        12           Pb  tau(  12) = (  0.6666555  0.9999730  0.4999895  )
        13           Pb  tau(  13) = (  0.9999951  0.3333010  1.0000042  )
        14           Pb  tau(  14) = (  0.9999918  0.3333079  0.5000042  )
        15           Pb  tau(  15) = (  0.9999933  0.6666328  0.9999990  )
        16           Pb  tau(  16) = (  0.9999899  0.6666397  0.4999990  )
        17           Pb  tau(  17) = (  0.9999914  0.9999646  0.9999937  )
        18           Pb  tau(  18) = (  0.9999881  0.9999715  0.4999937  )
        19           I   tau(  19) = (  0.2222221  0.1110829  0.8715680  )
        20           I   tau(  20) = (  0.2222169  0.4444217  0.3715628  )
        21           I   tau(  21) = (  0.2222202  0.4444147  0.8715628  )
        22           I   tau(  22) = (  0.2222150  0.7777534  0.3715575  )
        23           I   tau(  23) = (  0.2222183  0.7777465  0.8715575  )
        24           I   tau(  24) = (  0.5555513  0.1110884  0.3715722  )
        25           I   tau(  25) = (  0.5555547  0.1110814  0.8715722  )
        26           I   tau(  26) = (  0.5555495  0.4444202  0.3715669  )
        27           I   tau(  27) = (  0.5555528  0.4444132  0.8715669  )
        28           I   tau(  28) = (  0.5555476  0.7777520  0.3715617  )
        29           I   tau(  29) = (  0.5555509  0.7777450  0.8715617  )
        30           I   tau(  30) = (  0.8888839  0.1110869  0.3715764  )
        31           I   tau(  31) = (  0.8888873  0.1110799  0.8715764  )
        32           I   tau(  32) = (  0.8888820  0.4444187  0.3715711  )
        33           I   tau(  33) = (  0.8888854  0.4444117  0.8715711  )
        34           I   tau(  34) = (  0.8888802  0.7777505  0.3715658  )
        35           I   tau(  35) = (  0.8888835  0.7777435  0.8715658  )
        36           I   tau(  36) = (  0.1111028  0.2222102  0.1284257  )
        37           I   tau(  37) = (  0.1111061  0.2222032  0.6284257  )
        38           I   tau(  38) = (  0.1111009  0.5555420  0.1284204  )
        39           I   tau(  39) = (  0.1111043  0.5555350  0.6284204  )
        40           I   tau(  40) = (  0.1110991  0.8888738  0.1284152  )
        41           I   tau(  41) = (  0.1111024  0.8888668  0.6284152  )
        42           I   tau(  42) = (  0.4444354  0.2222087  0.1284299  )
        43           I   tau(  43) = (  0.4444387  0.2222017  0.6284299  )
        44           I   tau(  44) = (  0.4444335  0.5555405  0.1284246  )
        45           I   tau(  45) = (  0.4444369  0.5555335  0.6284246  )
        46           I   tau(  46) = (  0.4444316  0.8888723  0.1284193  )
        47           I   tau(  47) = (  0.4444350  0.8888653  0.6284193  )
        48           I   tau(  48) = (  0.7777680  0.2222072  0.1284340  )
        49           I   tau(  49) = (  0.7777713  0.2222002  0.6284340  )
        50           I   tau(  50) = (  0.7777661  0.5555390  0.1284287  )
        51           I   tau(  51) = (  0.7777694  0.5555320  0.6284287  )
        52           I   tau(  52) = (  0.7777642  0.8888708  0.1284235  )
        53           I   tau(  53) = (  0.7777676  0.8888638  0.6284235  )
        54           Pb  tau(  54) = (  0.2222187  0.1110899  0.3715680  )

     number of k points=     4  Gaussian smearing, width (Ry)=  0.0100
                       cart. coord. in units 2pi/alat
        k(    1) = (   0.0000000   0.0000000   0.0000000), wk =   0.5000000
        k(    2) = (   0.0000000  -0.5773503   0.0000000), wk =   0.5000000
        k(    3) = (   0.5000000  -0.2886751   0.0000000), wk =   0.5000000
        k(    4) = (  -0.5000000  -0.2886751   0.0000000), wk =   0.5000000

                       cryst. coord.
        k(    1) = (   0.0000000   0.0000000   0.0000000), wk =   0.5000000
        k(    2) = (   0.0000000  -0.5000000   0.0000000), wk =   0.5000000
        k(    3) = (   0.5000000  -0.5000000   0.0000000), wk =   0.5000000
        k(    4) = (  -0.5000000   0.0000000   0.0000000), wk =   0.5000000

     Dense  grid:  1904969 G-vectors     FFT dimensions: ( 160, 160, 180)

     Smooth grid:  1362953 G-vectors     FFT dimensions: ( 144, 144, 150)

     Dynamical RAM for                 wfc:      29.81 MB

     Dynamical RAM for     wfc (w. buffer):      89.43 MB

     Dynamical RAM for           str. fact:       1.29 MB

     Dynamical RAM for           local pot:       0.00 MB

     Dynamical RAM for          nlocal pot:      56.15 MB

     Dynamical RAM for                qrad:       3.00 MB

     Dynamical RAM for          rho,v,vnew:       4.28 MB

     Dynamical RAM for               rhoin:       1.43 MB

     Dynamical RAM for            rho*nmix:      10.33 MB

     Dynamical RAM for           G-vectors:       2.65 MB

     Dynamical RAM for          h,s,v(r/c):     195.01 MB

     Dynamical RAM for          <psi|beta>:       7.65 MB

     Dynamical RAM for                 psi:     119.24 MB

     Dynamical RAM for                hpsi:     119.24 MB

     Dynamical RAM for                spsi:     119.24 MB

     Dynamical RAM for      wfcinit/wfcrot:      65.72 MB

     Dynamical RAM for           addusdens:      71.70 MB

     Dynamical RAM for          addusforce:      93.79 MB

     Dynamical RAM for         addusstress:      65.07 MB

     Estimated static dynamical RAM per process >     164.08 MB

     Estimated max dynamical RAM per process >     734.79 MB

     Estimated total dynamical RAM >      64.13 GB

     Atomic positions and unit cell read from directory:
     ./PbI2.save/
     Atomic positions from file used, from input discarded
 

     Check: negative core charge=   -0.000001

     The initial density is read from file :
     ./PbI2.save/charge-density



     %%%%%%%%%%%%%%%%%%%%%%%%%%%%%%%%%%%%%%%%%%%%%%%%%%%%%%%%%%%%%%%%%%%%%%%%
     %                                                                      %
     % You are using vdW-DF, which was implemented by the Thonhauser group. %
     % Please cite the following two papers that made this development      %
     % possible and the two reviews that describe the various versions:     %
     %                                                                      %
     %   T. Thonhauser et al., PRL 115, 136402 (2015).                      %
     %   T. Thonhauser et al., PRB 76, 125112 (2007).                       %
     %   K. Berland et al., Rep. Prog. Phys. 78, 066501 (2015).             %
     %   D.C. Langreth et al., J. Phys.: Condens. Matter 21, 084203 (2009). %
     %                                                                      %
     % If you are calculating stress with vdW-DF, please also cite:         %
     %                                                                      %
     %   R. Sabatini et al., J. Phys.: Condens. Matter 24, 424209 (2012).   %
     %                                                                      %
     %%%%%%%%%%%%%%%%%%%%%%%%%%%%%%%%%%%%%%%%%%%%%%%%%%%%%%%%%%%%%%%%%%%%%%%%

     %%%%%%%%%%%%%%%%%%%%%%%%%%%%%%%%%%%%%%%%%%%%%%%%%%%%%%%%%%%%%%%%%%%%%%%%
     %                                                                      %
     %  vdW-DF NEWS:                                                        %
     %                                                                      %
     %  * vdW-DF3 is now available. DOI: 10.1021/acs.jctc.0c00471           %
     %    use with input_dft = 'vdW-DF3-opt1' or 'vdW-DF3-opt2'             %
     %                                                                      %
     %  * Unscreened and range-separated vdW-DF hybrid functionals          %
     %    DOI: 10.1063/1.4986522 and 10.1088/1361-648X/ac2ad2               %
     %    use with input_dft = 'vdW-DF-cx0' (etc) and 'vdW-DF-ahcx'         %
     %                                                                      %
     %%%%%%%%%%%%%%%%%%%%%%%%%%%%%%%%%%%%%%%%%%%%%%%%%%%%%%%%%%%%%%%%%%%%%%%%


     Carrying out vdW-DF run using the following parameters:
     Nqs    =  20  Npoints =  1024  r_max =  100.000
     q_mesh =  0.00001000  0.04494208  0.09755937  0.15916263
               0.23128650  0.31572767  0.41458969  0.53033537
               0.66584808  0.82450364  1.01025438  1.22772762
               1.48234092  1.78043706  2.12944203  2.53805004
               3.01644009  3.57652955  4.23227104  5.00000000


     -----------------------------------------------
     Non-local corr. energy    =      25.58310456 Ry
     -----------------------------------------------

     Starting wfcs from file
     Checking if some PAW data can be deallocated... 
       PAW data deallocated on   53 nodes for type:  1
       PAW data deallocated on   37 nodes for type:  2

     total cpu time spent up to now is       13.0 secs

     Self-consistent Calculation

     iteration #  1     ecut=    70.00 Ry     beta= 0.70
     Davidson diagonalization with overlap

---- Real-time Memory Report at c_bands before calling an iterative solver
           293 MiB given to the printing process from OS
             0 MiB allocation reported by mallinfo(arena+hblkhd)
       2008579 MiB available memory on the node where the printing process lives
------------------
     ethr =  1.00E-05,  avg # of iterations =  1.0

     Threshold (ethr) on eigenvalues was too large:
     Diagonalizing with lowered threshold

     Davidson diagonalization with overlap

---- Real-time Memory Report at c_bands before calling an iterative solver
           641 MiB given to the printing process from OS
             0 MiB allocation reported by mallinfo(arena+hblkhd)
       2006682 MiB available memory on the node where the printing process lives
------------------
     c_bands:  1 eigenvalues not converged
     ethr =  4.44E-13,  avg # of iterations = 16.3


     -----------------------------------------------
     Non-local corr. energy    =      25.58310577 Ry
     -----------------------------------------------


     total cpu time spent up to now is      133.7 secs

     End of self-consistent calculation

          k = 0.0000 0.0000 0.0000 (170421 PWs)   bands (ev):

   -41.2532 -41.2491 -41.2490 -41.2298 -41.2294 -41.2287 -41.2278 -41.2275
   -41.2260 -41.2258 -41.2220 -41.2219 -41.2216 -41.2216 -41.1494 -41.1490
   -41.1453 -41.1453 -41.1448 -41.1448 -40.8759 -40.8759 -40.8738 -40.8738
   -40.8730 -40.8729 -40.8689 -40.8689 -40.8668 -40.8668 -40.8659 -40.8658
   -40.8646 -40.8645 -40.8628 -40.8628 -40.8619 -40.8618 -40.8426 -40.8426
   -40.8422 -40.8422 -40.8411 -40.8411 -40.8406 -40.8406 -40.8400 -40.8399
   -40.8395 -40.8394 -40.8082 -40.8081 -40.8079 -40.8078 -40.8078 -40.8075
   -40.7982 -40.7981 -40.7978 -40.7934 -40.7934 -40.7933 -40.7920 -40.7919
   -40.7918 -40.7784 -40.7714 -40.7713 -40.7707 -40.7706 -40.7704 -40.7703
   -40.7700 -40.7699 -40.7683 -40.7680 -40.7679 -40.7678 -40.7663 -40.7662
   -40.7662 -40.7661 -40.7656 -40.7649 -40.7642 -40.7639 -40.7639 -40.7583
   -40.7582 -40.7577 -40.7574 -40.7572 -40.7570 -40.7567 -40.7563 -40.7560
   -40.7539 -40.7538 -40.7513 -40.7249 -40.7243 -40.7189 -40.7188 -40.7183
   -40.7182 -40.6500 -40.6499 -40.6499 -40.6497 -40.6496 -40.6495 -40.6406
   -40.6405 -40.6399 -40.6350 -40.6349 -40.6343 -40.6337 -40.6336 -40.6330
   -40.5978 -40.5978 -40.5977 -40.5976 -40.5965 -40.5965 -40.5940 -40.5940
   -40.5939 -40.5937 -40.5936 -40.5935 -40.5933 -40.5931 -40.5930 -40.5930
   -40.5923 -40.5922 -40.5875 -40.5873 -40.5838 -40.5838 -40.5833 -40.5832
   -40.5832 -40.5832 -40.5832 -40.5832 -40.5832 -40.5831 -40.5828 -40.5828
   -40.5826 -40.5826 -40.5826 -40.5821 -40.5821 -40.5817 -40.5817 -40.5813
   -40.5674 -40.5670 -40.5670 -40.5668 -40.5664 -40.5664 -40.5648 -40.5647
   -40.5647 -40.5640 -40.5639 -40.5638 -40.5637 -40.5636 -40.5636 -13.4686
   -13.4679 -13.3751 -13.3744 -13.3276 -13.1029 -13.0877 -13.0864 -13.0697
   -13.0687 -13.0678 -13.0628 -13.0622 -13.0607 -13.0540 -13.0530 -13.0445
   -13.0360 -13.0340 -13.0333 -13.0077 -13.0060 -13.0013 -12.9926 -12.9900
   -12.9896 -12.9854 -12.9843 -12.9822 -12.9776 -12.9757 -12.9753 -12.9730
   -12.9720 -12.9702 -12.8957 -12.8928 -12.8908 -12.8833 -12.8826 -12.8814
   -12.8771 -12.8758 -12.8756 -12.8736 -12.8726 -12.8718 -12.8710 -12.8701
   -12.8682 -12.8135 -12.8105 -12.8096 -12.8022 -12.8019 -12.7941 -12.7928
   -12.7916 -12.7913 -12.7886 -12.7882 -12.7864 -12.7828 -12.7814 -12.7809
   -12.7615 -12.7595 -12.7589 -12.7536 -12.7501 -12.7478 -12.7455 -12.7442
   -12.7435 -12.7408 -12.7403 -12.7391 -12.7364 -12.7361 -12.7323 -12.7077
   -12.7008 -12.6999 -12.6949 -12.6937 -12.6918 -12.6872 -12.6867 -12.6861
   -12.6841 -12.6829 -12.6819 -12.6811 -12.6804 -12.6804  -8.2830  -8.1348
    -8.0085  -8.0072  -7.9276  -7.8759  -7.8059  -7.8053  -7.7195  -7.7189
    -7.7168  -7.6645  -7.6496  -7.6472  -7.5865  -7.5820  -7.5634  -7.5630
    -7.5563  -7.5557  -7.5516  -7.5283  -7.5234  -7.5223  -7.5062  -7.4325
    -7.3910  -7.3892  -7.3523  -7.3519  -7.3442  -7.3267  -7.3180  -7.3086
    -7.3079  -3.9930  -3.7638  -3.7633  -3.5974  -3.5969  -3.5745  -3.5045
    -3.5041  -3.5002  -3.4786  -3.4781  -3.4205  -3.2998  -3.2995  -3.2827
    -3.2825  -3.2811  -3.1835  -2.9666   0.9022   0.9024   1.1260   1.1664
     1.2009   1.2021   1.2409   1.2423   1.2575   1.2590   1.4108   1.4109
     1.4133   1.4435   1.4440   1.5011   1.5025   1.5107   1.5804   1.6170
     1.6282   1.6292   1.7723   1.7739   1.8280   1.8390   1.8393   1.8564
     1.8566   1.8951   1.8994   1.8999   1.9828   2.0388   2.0407   2.0986
     2.1640   2.1648   2.2196   2.2715   2.2759   2.2784   2.2791   2.3046
     2.3063   2.3081   2.3090   2.3247   2.3339   2.3822   2.4280   2.4340
     2.4346   2.5238   2.5246   2.5254   2.5780   2.5804   2.6467   2.6505
     2.6763   2.6783   2.7230   2.7326   2.7379   2.7401   2.7440   2.8033
     2.8589   2.8724   2.8731   2.8880   2.8881   2.9143   2.9210   2.9231
     2.9250   2.9259   3.0226   3.0238   3.0283   3.0603   3.0805   3.0820
     3.0830   3.1063   3.1084   3.1091   3.1226   3.1248   3.1310   3.1500
     3.1509   3.1519   3.1740   3.1762   3.2959   3.3205   3.3226   3.3599
     3.3624   3.3699   3.5124   3.5138   3.5237   5.1892   5.7648   5.7667
     5.9239   6.3299   6.3637   6.5554   6.5570   6.6058   6.6201   6.6206
     6.7564   6.7614   6.8411   6.9069   6.9105   6.9327   6.9510   6.9544
     6.9994   7.0002   7.0938   7.0946   7.1004   7.1502   7.1580   7.1583
     7.2519   7.2611   7.2612   7.3189   7.4280   7.4331   7.4756   7.5171
     7.5190   7.5252   7.5646   7.5818   7.5821   7.5871   7.5913   7.6089
     7.6115   7.6578   7.6628   7.7372   7.7419   7.7633   7.7676   7.7718
     7.7751   7.7985   7.8106   7.8151   8.0014   8.0015   9.4711   9.4715
     9.5264   9.5555   9.6074   9.6103   9.9056   9.9472   9.9525   9.9535
     9.9860  10.0531  10.0564  10.3402  10.3410  10.5445  10.8301  10.8713
    10.8730  10.9734  10.9801  11.0572  11.0870  11.0969  11.0975  11.1362
    11.1568  11.1622  11.1650  11.1801

     occupation numbers 
     1.0000   1.0000   1.0000   1.0000   1.0000   1.0000   1.0000   1.0000
     1.0000   1.0000   1.0000   1.0000   1.0000   1.0000   1.0000   1.0000
     1.0000   1.0000   1.0000   1.0000   1.0000   1.0000   1.0000   1.0000
     1.0000   1.0000   1.0000   1.0000   1.0000   1.0000   1.0000   1.0000
     1.0000   1.0000   1.0000   1.0000   1.0000   1.0000   1.0000   1.0000
     1.0000   1.0000   1.0000   1.0000   1.0000   1.0000   1.0000   1.0000
     1.0000   1.0000   1.0000   1.0000   1.0000   1.0000   1.0000   1.0000
     1.0000   1.0000   1.0000   1.0000   1.0000   1.0000   1.0000   1.0000
     1.0000   1.0000   1.0000   1.0000   1.0000   1.0000   1.0000   1.0000
     1.0000   1.0000   1.0000   1.0000   1.0000   1.0000   1.0000   1.0000
     1.0000   1.0000   1.0000   1.0000   1.0000   1.0000   1.0000   1.0000
     1.0000   1.0000   1.0000   1.0000   1.0000   1.0000   1.0000   1.0000
     1.0000   1.0000   1.0000   1.0000   1.0000   1.0000   1.0000   1.0000
     1.0000   1.0000   1.0000   1.0000   1.0000   1.0000   1.0000   1.0000
     1.0000   1.0000   1.0000   1.0000   1.0000   1.0000   1.0000   1.0000
     1.0000   1.0000   1.0000   1.0000   1.0000   1.0000   1.0000   1.0000
     1.0000   1.0000   1.0000   1.0000   1.0000   1.0000   1.0000   1.0000
     1.0000   1.0000   1.0000   1.0000   1.0000   1.0000   1.0000   1.0000
     1.0000   1.0000   1.0000   1.0000   1.0000   1.0000   1.0000   1.0000
     1.0000   1.0000   1.0000   1.0000   1.0000   1.0000   1.0000   1.0000
     1.0000   1.0000   1.0000   1.0000   1.0000   1.0000   1.0000   1.0000
     1.0000   1.0000   1.0000   1.0000   1.0000   1.0000   1.0000   1.0000
     1.0000   1.0000   1.0000   1.0000   1.0000   1.0000   1.0000   1.0000
     1.0000   1.0000   1.0000   1.0000   1.0000   1.0000   1.0000   1.0000
     1.0000   1.0000   1.0000   1.0000   1.0000   1.0000   1.0000   1.0000
     1.0000   1.0000   1.0000   1.0000   1.0000   1.0000   1.0000   1.0000
     1.0000   1.0000   1.0000   1.0000   1.0000   1.0000   1.0000   1.0000
     1.0000   1.0000   1.0000   1.0000   1.0000   1.0000   1.0000   1.0000
     1.0000   1.0000   1.0000   1.0000   1.0000   1.0000   1.0000   1.0000
     1.0000   1.0000   1.0000   1.0000   1.0000   1.0000   1.0000   1.0000
     1.0000   1.0000   1.0000   1.0000   1.0000   1.0000   1.0000   1.0000
     1.0000   1.0000   1.0000   1.0000   1.0000   1.0000   1.0000   1.0000
     1.0000   1.0000   1.0000   1.0000   1.0000   1.0000   1.0000   1.0000
     1.0000   1.0000   1.0000   1.0000   1.0000   1.0000   1.0000   1.0000
     1.0000   1.0000   1.0000   1.0000   1.0000   1.0000   1.0000   1.0000
     1.0000   1.0000   1.0000   1.0000   1.0000   1.0000   1.0000   1.0000
     1.0000   1.0000   1.0000   1.0000   1.0000   1.0000   1.0000   1.0000
     1.0000   1.0000   1.0000   1.0000   1.0000   1.0000   1.0000   1.0000
     1.0000   1.0000   1.0000   1.0000   1.0000   1.0000   1.0000   1.0000
     1.0000   1.0000   1.0000   1.0000   1.0000   1.0000   1.0000   1.0000
     1.0000   1.0000   1.0000   1.0000   1.0000   1.0000   1.0000   1.0000
     1.0000   1.0000   1.0000   1.0000   1.0000   1.0000   1.0000   1.0000
     1.0000   1.0000   1.0000   1.0000   1.0000   1.0000   1.0000   1.0000
     1.0000   1.0000   1.0000   1.0000   1.0000   1.0000   1.0000   1.0000
     1.0000   1.0000   1.0000   1.0000   1.0000   1.0000   1.0000   1.0000
     1.0000   1.0000   1.0000   1.0000   1.0000   1.0000   1.0000   1.0000
     1.0000   1.0000   1.0000   1.0000   1.0000   1.0000   1.0000   1.0000
     1.0000   1.0000   1.0000   1.0000   1.0000   1.0000   1.0000   1.0000
     1.0000   1.0000   1.0000   1.0000   1.0000   1.0000   1.0000   1.0000
     1.0000   1.0000   1.0000   1.0000   1.0000   1.0000   1.0000   1.0000
     1.0000   1.0000   1.0000   1.0000   1.0000   1.0000   1.0000   1.0000
     1.0000   1.0000   1.0000   1.0000   1.0000   1.0000   1.0000   1.0000
     1.0000   1.0000   1.0000   1.0000   1.0000   1.0000   1.0000   1.0000
     1.0000   1.0000   1.0000   1.0000   1.0000   0.7304   0.0000   0.0000
     0.0000   0.0000   0.0000   0.0000   0.0000   0.0000   0.0000   0.0000
     0.0000   0.0000   0.0000   0.0000   0.0000   0.0000   0.0000   0.0000
     0.0000   0.0000   0.0000   0.0000   0.0000   0.0000   0.0000   0.0000
     0.0000   0.0000   0.0000   0.0000   0.0000   0.0000   0.0000   0.0000
     0.0000   0.0000   0.0000   0.0000   0.0000   0.0000   0.0000   0.0000
     0.0000   0.0000   0.0000   0.0000   0.0000   0.0000   0.0000   0.0000
     0.0000   0.0000   0.0000   0.0000   0.0000   0.0000   0.0000   0.0000
     0.0000   0.0000   0.0000   0.0000   0.0000   0.0000   0.0000   0.0000
     0.0000   0.0000   0.0000   0.0000   0.0000   0.0000   0.0000   0.0000
     0.0000   0.0000   0.0000   0.0000   0.0000   0.0000   0.0000   0.0000
     0.0000   0.0000   0.0000   0.0000

          k = 0.0000-0.5774 0.0000 (170366 PWs)   bands (ev):

   -41.2532 -41.2491 -41.2490 -41.2298 -41.2294 -41.2287 -41.2278 -41.2275
   -41.2260 -41.2258 -41.2220 -41.2219 -41.2216 -41.2216 -41.1494 -41.1490
   -41.1453 -41.1453 -41.1448 -41.1448 -40.8759 -40.8759 -40.8738 -40.8738
   -40.8730 -40.8729 -40.8689 -40.8689 -40.8668 -40.8668 -40.8659 -40.8658
   -40.8646 -40.8645 -40.8628 -40.8628 -40.8619 -40.8618 -40.8426 -40.8426
   -40.8422 -40.8422 -40.8411 -40.8411 -40.8406 -40.8406 -40.8400 -40.8399
   -40.8395 -40.8394 -40.8082 -40.8081 -40.8079 -40.8078 -40.8078 -40.8075
   -40.7982 -40.7981 -40.7978 -40.7934 -40.7934 -40.7933 -40.7920 -40.7919
   -40.7918 -40.7784 -40.7714 -40.7713 -40.7707 -40.7706 -40.7704 -40.7703
   -40.7700 -40.7699 -40.7683 -40.7680 -40.7679 -40.7678 -40.7663 -40.7662
   -40.7662 -40.7661 -40.7656 -40.7649 -40.7642 -40.7639 -40.7639 -40.7583
   -40.7582 -40.7577 -40.7574 -40.7572 -40.7570 -40.7567 -40.7563 -40.7560
   -40.7539 -40.7538 -40.7513 -40.7249 -40.7243 -40.7189 -40.7188 -40.7183
   -40.7182 -40.6500 -40.6499 -40.6499 -40.6497 -40.6496 -40.6495 -40.6406
   -40.6405 -40.6399 -40.6350 -40.6349 -40.6343 -40.6337 -40.6336 -40.6330
   -40.5978 -40.5978 -40.5977 -40.5976 -40.5965 -40.5965 -40.5940 -40.5940
   -40.5939 -40.5937 -40.5936 -40.5935 -40.5933 -40.5931 -40.5930 -40.5930
   -40.5923 -40.5922 -40.5875 -40.5873 -40.5838 -40.5838 -40.5833 -40.5832
   -40.5832 -40.5832 -40.5832 -40.5832 -40.5832 -40.5831 -40.5828 -40.5828
   -40.5826 -40.5826 -40.5826 -40.5821 -40.5821 -40.5817 -40.5817 -40.5813
   -40.5674 -40.5670 -40.5670 -40.5668 -40.5664 -40.5664 -40.5648 -40.5647
   -40.5647 -40.5640 -40.5639 -40.5638 -40.5637 -40.5636 -40.5636 -13.4686
   -13.4679 -13.3751 -13.3744 -13.3276 -13.1031 -13.0876 -13.0863 -13.0696
   -13.0686 -13.0676 -13.0628 -13.0622 -13.0608 -13.0540 -13.0530 -13.0444
   -13.0360 -13.0340 -13.0333 -13.0077 -13.0060 -13.0014 -12.9929 -12.9901
   -12.9895 -12.9854 -12.9839 -12.9820 -12.9775 -12.9757 -12.9752 -12.9732
   -12.9722 -12.9703 -12.8956 -12.8928 -12.8907 -12.8834 -12.8826 -12.8816
   -12.8771 -12.8758 -12.8756 -12.8737 -12.8726 -12.8718 -12.8709 -12.8700
   -12.8681 -12.8142 -12.8107 -12.8092 -12.8018 -12.8015 -12.7939 -12.7927
   -12.7915 -12.7912 -12.7889 -12.7884 -12.7867 -12.7828 -12.7814 -12.7809
   -12.7615 -12.7598 -12.7592 -12.7536 -12.7496 -12.7475 -12.7454 -12.7440
   -12.7433 -12.7409 -12.7402 -12.7389 -12.7365 -12.7363 -12.7324 -12.7073
   -12.7008 -12.6998 -12.6953 -12.6939 -12.6919 -12.6873 -12.6868 -12.6861
   -12.6841 -12.6829 -12.6818 -12.6811 -12.6804 -12.6803  -8.2547  -8.1664
    -8.0143  -8.0124  -7.9316  -7.8380  -7.8149  -7.8075  -7.7787  -7.7137
    -7.6776  -7.6685  -7.6517  -7.6347  -7.6322  -7.6274  -7.6027  -7.5672
    -7.5542  -7.5178  -7.5163  -7.5038  -7.4910  -7.4716  -7.4453  -7.4435
    -7.4358  -7.4038  -7.3873  -7.3594  -7.3509  -7.3290  -7.3144  -7.3060
    -7.2986  -4.0120  -3.7354  -3.7145  -3.6738  -3.6489  -3.6292  -3.4898
    -3.4717  -3.4601  -3.4556  -3.4540  -3.4237  -3.4080  -3.3198  -3.2672
    -3.2538  -3.2210  -3.0918  -3.0402   0.7913   0.8547   0.9765   1.0618
     1.1105   1.2409   1.3257   1.3358   1.3867   1.4114   1.4253   1.4560
     1.5077   1.5155   1.5175   1.5548   1.5708   1.6020   1.6935   1.7034
     1.7315   1.7515   1.7519   1.7807   1.7864   1.8318   1.8476   1.8656
     1.8735   1.8759   1.8982   1.9023   1.9499   2.0011   2.0321   2.0366
     2.0720   2.0805   2.1303   2.1610   2.1645   2.1912   2.2201   2.2386
     2.2624   2.2825   2.2990   2.3371   2.3502   2.4039   2.4303   2.4351
     2.4812   2.4990   2.5143   2.5479   2.5527   2.5588   2.5688   2.5729
     2.6126   2.6163   2.6681   2.6807   2.6839   2.7106   2.7141   2.7194
     2.7490   2.7682   2.7938   2.8198   2.8659   2.8991   2.9072   2.9215
     2.9256   2.9336   2.9451   2.9891   2.9926   3.0266   3.0543   3.0994
     3.1047   3.1163   3.1193   3.1400   3.1427   3.1679   3.1830   3.2065
     3.2485   3.2772   3.3099   3.3234   3.3367   3.3553   3.3625   3.3812
     3.4029   3.4766   3.5082   3.5154   3.5429   5.2672   5.7284   5.7751
     6.3124   6.4521   6.5227   6.5394   6.6705   6.7058   6.7674   6.7722
     6.8166   6.8881   6.9183   6.9415   6.9517   6.9749   6.9973   7.0186
     7.0302   7.0618   7.0696   7.1298   7.1339   7.1484   7.1757   7.1876
     7.2288   7.2350   7.2610   7.2964   7.3175   7.3390   7.3422   7.3652
     7.3753   7.3833   7.3890   7.4232   7.4237   7.4506   7.4753   7.5257
     7.5457   7.5556   7.5845   7.6089   7.6173   7.6332   7.6496   7.6761
     7.6816   7.8980   7.9125   7.9624   7.9962   8.1052   9.2459   9.6645
     9.6651   9.7587   9.7736   9.8593  10.0585  10.1336  10.2117  10.2393
    10.2511  10.2949  10.3123  10.3282  10.3418  10.3483  10.3747  10.3930
    10.4765  10.5108  10.7758  10.7925  10.8166  10.8994  10.9231  10.9475
    10.9612  10.9840  11.0062  11.0247

     occupation numbers 
     1.0000   1.0000   1.0000   1.0000   1.0000   1.0000   1.0000   1.0000
     1.0000   1.0000   1.0000   1.0000   1.0000   1.0000   1.0000   1.0000
     1.0000   1.0000   1.0000   1.0000   1.0000   1.0000   1.0000   1.0000
     1.0000   1.0000   1.0000   1.0000   1.0000   1.0000   1.0000   1.0000
     1.0000   1.0000   1.0000   1.0000   1.0000   1.0000   1.0000   1.0000
     1.0000   1.0000   1.0000   1.0000   1.0000   1.0000   1.0000   1.0000
     1.0000   1.0000   1.0000   1.0000   1.0000   1.0000   1.0000   1.0000
     1.0000   1.0000   1.0000   1.0000   1.0000   1.0000   1.0000   1.0000
     1.0000   1.0000   1.0000   1.0000   1.0000   1.0000   1.0000   1.0000
     1.0000   1.0000   1.0000   1.0000   1.0000   1.0000   1.0000   1.0000
     1.0000   1.0000   1.0000   1.0000   1.0000   1.0000   1.0000   1.0000
     1.0000   1.0000   1.0000   1.0000   1.0000   1.0000   1.0000   1.0000
     1.0000   1.0000   1.0000   1.0000   1.0000   1.0000   1.0000   1.0000
     1.0000   1.0000   1.0000   1.0000   1.0000   1.0000   1.0000   1.0000
     1.0000   1.0000   1.0000   1.0000   1.0000   1.0000   1.0000   1.0000
     1.0000   1.0000   1.0000   1.0000   1.0000   1.0000   1.0000   1.0000
     1.0000   1.0000   1.0000   1.0000   1.0000   1.0000   1.0000   1.0000
     1.0000   1.0000   1.0000   1.0000   1.0000   1.0000   1.0000   1.0000
     1.0000   1.0000   1.0000   1.0000   1.0000   1.0000   1.0000   1.0000
     1.0000   1.0000   1.0000   1.0000   1.0000   1.0000   1.0000   1.0000
     1.0000   1.0000   1.0000   1.0000   1.0000   1.0000   1.0000   1.0000
     1.0000   1.0000   1.0000   1.0000   1.0000   1.0000   1.0000   1.0000
     1.0000   1.0000   1.0000   1.0000   1.0000   1.0000   1.0000   1.0000
     1.0000   1.0000   1.0000   1.0000   1.0000   1.0000   1.0000   1.0000
     1.0000   1.0000   1.0000   1.0000   1.0000   1.0000   1.0000   1.0000
     1.0000   1.0000   1.0000   1.0000   1.0000   1.0000   1.0000   1.0000
     1.0000   1.0000   1.0000   1.0000   1.0000   1.0000   1.0000   1.0000
     1.0000   1.0000   1.0000   1.0000   1.0000   1.0000   1.0000   1.0000
     1.0000   1.0000   1.0000   1.0000   1.0000   1.0000   1.0000   1.0000
     1.0000   1.0000   1.0000   1.0000   1.0000   1.0000   1.0000   1.0000
     1.0000   1.0000   1.0000   1.0000   1.0000   1.0000   1.0000   1.0000
     1.0000   1.0000   1.0000   1.0000   1.0000   1.0000   1.0000   1.0000
     1.0000   1.0000   1.0000   1.0000   1.0000   1.0000   1.0000   1.0000
     1.0000   1.0000   1.0000   1.0000   1.0000   1.0000   1.0000   1.0000
     1.0000   1.0000   1.0000   1.0000   1.0000   1.0000   1.0000   1.0000
     1.0000   1.0000   1.0000   1.0000   1.0000   1.0000   1.0000   1.0000
     1.0000   1.0000   1.0000   1.0000   1.0000   1.0000   1.0000   1.0000
     1.0000   1.0000   1.0000   1.0000   1.0000   1.0000   1.0000   1.0000
     1.0000   1.0000   1.0000   1.0000   1.0000   1.0000   1.0000   1.0000
     1.0000   1.0000   1.0000   1.0000   1.0000   1.0000   1.0000   1.0000
     1.0000   1.0000   1.0000   1.0000   1.0000   1.0000   1.0000   1.0000
     1.0000   1.0000   1.0000   1.0000   1.0000   1.0000   1.0000   1.0000
     1.0000   1.0000   1.0000   1.0000   1.0000   1.0000   1.0000   1.0000
     1.0000   1.0000   1.0000   1.0000   1.0000   1.0000   1.0000   1.0000
     1.0000   1.0000   1.0000   1.0000   1.0000   1.0000   1.0000   1.0000
     1.0000   1.0000   1.0000   1.0000   1.0000   1.0000   1.0000   1.0000
     1.0000   1.0000   1.0000   1.0000   1.0000   1.0000   1.0000   1.0000
     1.0000   1.0000   1.0000   1.0000   1.0000   1.0000   1.0000   1.0000
     1.0000   1.0000   1.0000   1.0000   1.0000   1.0000   1.0000   1.0000
     1.0000   1.0000   1.0000   1.0000   1.0000   1.0000   1.0000   1.0000
     1.0000   1.0000   1.0000   1.0000   1.0000   1.0000   1.0000   1.0000
     1.0000   1.0000   1.0000   1.0000   1.0000   1.0000   1.0000   1.0000
     1.0000   1.0000   1.0000   1.0000   1.0000   1.0000   1.0000   1.0000
     1.0000   1.0000   1.0000   1.0000   1.0000   0.4223   0.0000   0.0000
     0.0000   0.0000   0.0000   0.0000   0.0000   0.0000   0.0000   0.0000
     0.0000   0.0000   0.0000   0.0000   0.0000   0.0000   0.0000   0.0000
     0.0000   0.0000   0.0000   0.0000   0.0000   0.0000   0.0000   0.0000
     0.0000   0.0000   0.0000   0.0000   0.0000   0.0000   0.0000   0.0000
     0.0000   0.0000   0.0000   0.0000   0.0000   0.0000   0.0000   0.0000
     0.0000   0.0000   0.0000   0.0000   0.0000   0.0000   0.0000   0.0000
     0.0000   0.0000   0.0000   0.0000   0.0000   0.0000   0.0000   0.0000
     0.0000   0.0000   0.0000   0.0000   0.0000   0.0000   0.0000   0.0000
     0.0000   0.0000   0.0000   0.0000   0.0000   0.0000   0.0000   0.0000
     0.0000   0.0000   0.0000   0.0000   0.0000   0.0000   0.0000   0.0000
     0.0000   0.0000   0.0000   0.0000

          k = 0.5000-0.2887 0.0000 (170366 PWs)   bands (ev):

   -41.2532 -41.2491 -41.2490 -41.2298 -41.2294 -41.2287 -41.2278 -41.2275
   -41.2260 -41.2258 -41.2220 -41.2219 -41.2216 -41.2216 -41.1494 -41.1490
   -41.1453 -41.1453 -41.1448 -41.1448 -40.8759 -40.8759 -40.8738 -40.8738
   -40.8730 -40.8729 -40.8689 -40.8689 -40.8668 -40.8668 -40.8659 -40.8658
   -40.8646 -40.8645 -40.8628 -40.8628 -40.8619 -40.8618 -40.8426 -40.8426
   -40.8422 -40.8422 -40.8411 -40.8411 -40.8406 -40.8406 -40.8400 -40.8399
   -40.8395 -40.8394 -40.8082 -40.8081 -40.8079 -40.8078 -40.8078 -40.8075
   -40.7982 -40.7981 -40.7978 -40.7934 -40.7934 -40.7933 -40.7920 -40.7919
   -40.7918 -40.7784 -40.7714 -40.7713 -40.7707 -40.7706 -40.7704 -40.7703
   -40.7700 -40.7699 -40.7683 -40.7680 -40.7679 -40.7678 -40.7663 -40.7662
   -40.7662 -40.7661 -40.7656 -40.7649 -40.7642 -40.7639 -40.7639 -40.7583
   -40.7582 -40.7577 -40.7574 -40.7572 -40.7570 -40.7567 -40.7563 -40.7560
   -40.7539 -40.7538 -40.7513 -40.7249 -40.7243 -40.7189 -40.7188 -40.7183
   -40.7182 -40.6500 -40.6499 -40.6499 -40.6497 -40.6496 -40.6495 -40.6406
   -40.6405 -40.6399 -40.6350 -40.6349 -40.6343 -40.6337 -40.6336 -40.6330
   -40.5978 -40.5978 -40.5977 -40.5976 -40.5965 -40.5965 -40.5940 -40.5940
   -40.5939 -40.5937 -40.5936 -40.5935 -40.5933 -40.5931 -40.5930 -40.5930
   -40.5923 -40.5922 -40.5875 -40.5873 -40.5838 -40.5838 -40.5833 -40.5832
   -40.5832 -40.5832 -40.5832 -40.5832 -40.5832 -40.5831 -40.5828 -40.5828
   -40.5826 -40.5826 -40.5826 -40.5821 -40.5821 -40.5817 -40.5817 -40.5813
   -40.5674 -40.5670 -40.5670 -40.5668 -40.5664 -40.5664 -40.5648 -40.5647
   -40.5647 -40.5640 -40.5639 -40.5638 -40.5637 -40.5636 -40.5636 -13.4686
   -13.4679 -13.3751 -13.3744 -13.3276 -13.1031 -13.0876 -13.0863 -13.0696
   -13.0687 -13.0676 -13.0628 -13.0622 -13.0608 -13.0540 -13.0530 -13.0444
   -13.0360 -13.0340 -13.0333 -13.0077 -13.0060 -13.0014 -12.9929 -12.9901
   -12.9895 -12.9854 -12.9839 -12.9820 -12.9775 -12.9757 -12.9752 -12.9732
   -12.9722 -12.9703 -12.8956 -12.8928 -12.8907 -12.8834 -12.8826 -12.8816
   -12.8771 -12.8758 -12.8756 -12.8737 -12.8726 -12.8718 -12.8709 -12.8700
   -12.8681 -12.8141 -12.8107 -12.8092 -12.8018 -12.8015 -12.7939 -12.7927
   -12.7915 -12.7912 -12.7888 -12.7884 -12.7867 -12.7828 -12.7814 -12.7809
   -12.7615 -12.7598 -12.7592 -12.7536 -12.7497 -12.7475 -12.7455 -12.7440
   -12.7433 -12.7409 -12.7402 -12.7390 -12.7365 -12.7363 -12.7324 -12.7073
   -12.7008 -12.6999 -12.6953 -12.6939 -12.6919 -12.6873 -12.6868 -12.6861
   -12.6841 -12.6829 -12.6818 -12.6811 -12.6804 -12.6803  -8.2547  -8.1664
    -8.0143  -8.0124  -7.9316  -7.8380  -7.8149  -7.8075  -7.7786  -7.7137
    -7.6776  -7.6685  -7.6518  -7.6347  -7.6322  -7.6273  -7.6027  -7.5673
    -7.5543  -7.5178  -7.5163  -7.5038  -7.4910  -7.4716  -7.4454  -7.4435
    -7.4358  -7.4038  -7.3873  -7.3594  -7.3510  -7.3290  -7.3144  -7.3060
    -7.2986  -4.0120  -3.7354  -3.7145  -3.6738  -3.6489  -3.6292  -3.4898
    -3.4717  -3.4601  -3.4556  -3.4540  -3.4237  -3.4080  -3.3198  -3.2672
    -3.2538  -3.2210  -3.0918  -3.0402   0.7913   0.8547   0.9765   1.0619
     1.1106   1.2409   1.3257   1.3358   1.3868   1.4114   1.4253   1.4560
     1.5076   1.5154   1.5174   1.5547   1.5708   1.6020   1.6935   1.7034
     1.7315   1.7515   1.7519   1.7807   1.7865   1.8317   1.8476   1.8656
     1.8736   1.8760   1.8982   1.9022   1.9500   2.0010   2.0321   2.0366
     2.0719   2.0806   2.1302   2.1610   2.1645   2.1913   2.2201   2.2386
     2.2624   2.2825   2.2990   2.3370   2.3501   2.4039   2.4303   2.4351
     2.4812   2.4990   2.5143   2.5479   2.5528   2.5589   2.5688   2.5730
     2.6126   2.6162   2.6680   2.6807   2.6839   2.7107   2.7141   2.7193
     2.7490   2.7681   2.7939   2.8198   2.8659   2.8991   2.9072   2.9215
     2.9256   2.9336   2.9450   2.9892   2.9926   3.0266   3.0543   3.0994
     3.1048   3.1163   3.1194   3.1399   3.1427   3.1678   3.1830   3.2065
     3.2486   3.2771   3.3098   3.3234   3.3367   3.3553   3.3624   3.3813
     3.4029   3.4765   3.5082   3.5155   3.5429   5.2672   5.7284   5.7751
     6.3125   6.4521   6.5227   6.5393   6.6705   6.7058   6.7675   6.7722
     6.8167   6.8882   6.9185   6.9414   6.9517   6.9747   6.9973   7.0186
     7.0303   7.0618   7.0692   7.1297   7.1339   7.1485   7.1758   7.1876
     7.2287   7.2351   7.2609   7.2966   7.3174   7.3390   7.3422   7.3652
     7.3753   7.3833   7.3891   7.4231   7.4237   7.4506   7.4754   7.5258
     7.5457   7.5557   7.5843   7.6090   7.6172   7.6331   7.6496   7.6761
     7.6815   7.8980   7.9124   7.9623   7.9961   8.1053   9.2458   9.6646
     9.6651   9.7587   9.7736   9.8593  10.0586  10.1336  10.2115  10.2393
    10.2511  10.2949  10.3122  10.3281  10.3419  10.3485  10.3749  10.3930
    10.4764  10.5109  10.7758  10.7927  10.8166  10.8994  10.9231  10.9474
    10.9613  10.9841  11.0061  11.0246

     occupation numbers 
     1.0000   1.0000   1.0000   1.0000   1.0000   1.0000   1.0000   1.0000
     1.0000   1.0000   1.0000   1.0000   1.0000   1.0000   1.0000   1.0000
     1.0000   1.0000   1.0000   1.0000   1.0000   1.0000   1.0000   1.0000
     1.0000   1.0000   1.0000   1.0000   1.0000   1.0000   1.0000   1.0000
     1.0000   1.0000   1.0000   1.0000   1.0000   1.0000   1.0000   1.0000
     1.0000   1.0000   1.0000   1.0000   1.0000   1.0000   1.0000   1.0000
     1.0000   1.0000   1.0000   1.0000   1.0000   1.0000   1.0000   1.0000
     1.0000   1.0000   1.0000   1.0000   1.0000   1.0000   1.0000   1.0000
     1.0000   1.0000   1.0000   1.0000   1.0000   1.0000   1.0000   1.0000
     1.0000   1.0000   1.0000   1.0000   1.0000   1.0000   1.0000   1.0000
     1.0000   1.0000   1.0000   1.0000   1.0000   1.0000   1.0000   1.0000
     1.0000   1.0000   1.0000   1.0000   1.0000   1.0000   1.0000   1.0000
     1.0000   1.0000   1.0000   1.0000   1.0000   1.0000   1.0000   1.0000
     1.0000   1.0000   1.0000   1.0000   1.0000   1.0000   1.0000   1.0000
     1.0000   1.0000   1.0000   1.0000   1.0000   1.0000   1.0000   1.0000
     1.0000   1.0000   1.0000   1.0000   1.0000   1.0000   1.0000   1.0000
     1.0000   1.0000   1.0000   1.0000   1.0000   1.0000   1.0000   1.0000
     1.0000   1.0000   1.0000   1.0000   1.0000   1.0000   1.0000   1.0000
     1.0000   1.0000   1.0000   1.0000   1.0000   1.0000   1.0000   1.0000
     1.0000   1.0000   1.0000   1.0000   1.0000   1.0000   1.0000   1.0000
     1.0000   1.0000   1.0000   1.0000   1.0000   1.0000   1.0000   1.0000
     1.0000   1.0000   1.0000   1.0000   1.0000   1.0000   1.0000   1.0000
     1.0000   1.0000   1.0000   1.0000   1.0000   1.0000   1.0000   1.0000
     1.0000   1.0000   1.0000   1.0000   1.0000   1.0000   1.0000   1.0000
     1.0000   1.0000   1.0000   1.0000   1.0000   1.0000   1.0000   1.0000
     1.0000   1.0000   1.0000   1.0000   1.0000   1.0000   1.0000   1.0000
     1.0000   1.0000   1.0000   1.0000   1.0000   1.0000   1.0000   1.0000
     1.0000   1.0000   1.0000   1.0000   1.0000   1.0000   1.0000   1.0000
     1.0000   1.0000   1.0000   1.0000   1.0000   1.0000   1.0000   1.0000
     1.0000   1.0000   1.0000   1.0000   1.0000   1.0000   1.0000   1.0000
     1.0000   1.0000   1.0000   1.0000   1.0000   1.0000   1.0000   1.0000
     1.0000   1.0000   1.0000   1.0000   1.0000   1.0000   1.0000   1.0000
     1.0000   1.0000   1.0000   1.0000   1.0000   1.0000   1.0000   1.0000
     1.0000   1.0000   1.0000   1.0000   1.0000   1.0000   1.0000   1.0000
     1.0000   1.0000   1.0000   1.0000   1.0000   1.0000   1.0000   1.0000
     1.0000   1.0000   1.0000   1.0000   1.0000   1.0000   1.0000   1.0000
     1.0000   1.0000   1.0000   1.0000   1.0000   1.0000   1.0000   1.0000
     1.0000   1.0000   1.0000   1.0000   1.0000   1.0000   1.0000   1.0000
     1.0000   1.0000   1.0000   1.0000   1.0000   1.0000   1.0000   1.0000
     1.0000   1.0000   1.0000   1.0000   1.0000   1.0000   1.0000   1.0000
     1.0000   1.0000   1.0000   1.0000   1.0000   1.0000   1.0000   1.0000
     1.0000   1.0000   1.0000   1.0000   1.0000   1.0000   1.0000   1.0000
     1.0000   1.0000   1.0000   1.0000   1.0000   1.0000   1.0000   1.0000
     1.0000   1.0000   1.0000   1.0000   1.0000   1.0000   1.0000   1.0000
     1.0000   1.0000   1.0000   1.0000   1.0000   1.0000   1.0000   1.0000
     1.0000   1.0000   1.0000   1.0000   1.0000   1.0000   1.0000   1.0000
     1.0000   1.0000   1.0000   1.0000   1.0000   1.0000   1.0000   1.0000
     1.0000   1.0000   1.0000   1.0000   1.0000   1.0000   1.0000   1.0000
     1.0000   1.0000   1.0000   1.0000   1.0000   1.0000   1.0000   1.0000
     1.0000   1.0000   1.0000   1.0000   1.0000   1.0000   1.0000   1.0000
     1.0000   1.0000   1.0000   1.0000   1.0000   1.0000   1.0000   1.0000
     1.0000   1.0000   1.0000   1.0000   1.0000   1.0000   1.0000   1.0000
     1.0000   1.0000   1.0000   1.0000   1.0000   1.0000   1.0000   1.0000
     1.0000   1.0000   1.0000   1.0000   1.0000   0.4222   0.0000   0.0000
     0.0000   0.0000   0.0000   0.0000   0.0000   0.0000   0.0000   0.0000
     0.0000   0.0000   0.0000   0.0000   0.0000   0.0000   0.0000   0.0000
     0.0000   0.0000   0.0000   0.0000   0.0000   0.0000   0.0000   0.0000
     0.0000   0.0000   0.0000   0.0000   0.0000   0.0000   0.0000   0.0000
     0.0000   0.0000   0.0000   0.0000   0.0000   0.0000   0.0000   0.0000
     0.0000   0.0000   0.0000   0.0000   0.0000   0.0000   0.0000   0.0000
     0.0000   0.0000   0.0000   0.0000   0.0000   0.0000   0.0000   0.0000
     0.0000   0.0000   0.0000   0.0000   0.0000   0.0000   0.0000   0.0000
     0.0000   0.0000   0.0000   0.0000   0.0000   0.0000   0.0000   0.0000
     0.0000   0.0000   0.0000   0.0000   0.0000   0.0000   0.0000   0.0000
     0.0000   0.0000   0.0000   0.0000

          k =-0.5000-0.2887 0.0000 (170366 PWs)   bands (ev):

   -41.2532 -41.2491 -41.2490 -41.2298 -41.2294 -41.2287 -41.2278 -41.2275
   -41.2260 -41.2258 -41.2220 -41.2219 -41.2216 -41.2216 -41.1494 -41.1490
   -41.1453 -41.1453 -41.1448 -41.1448 -40.8759 -40.8759 -40.8738 -40.8738
   -40.8730 -40.8729 -40.8689 -40.8689 -40.8668 -40.8668 -40.8659 -40.8658
   -40.8646 -40.8645 -40.8628 -40.8628 -40.8619 -40.8618 -40.8426 -40.8426
   -40.8422 -40.8422 -40.8411 -40.8411 -40.8406 -40.8406 -40.8400 -40.8399
   -40.8395 -40.8394 -40.8082 -40.8081 -40.8079 -40.8078 -40.8078 -40.8075
   -40.7982 -40.7981 -40.7978 -40.7934 -40.7934 -40.7933 -40.7920 -40.7919
   -40.7918 -40.7784 -40.7714 -40.7713 -40.7707 -40.7706 -40.7704 -40.7703
   -40.7700 -40.7699 -40.7683 -40.7680 -40.7679 -40.7678 -40.7663 -40.7662
   -40.7662 -40.7661 -40.7656 -40.7649 -40.7642 -40.7639 -40.7639 -40.7583
   -40.7582 -40.7577 -40.7574 -40.7572 -40.7570 -40.7567 -40.7563 -40.7560
   -40.7539 -40.7538 -40.7513 -40.7249 -40.7243 -40.7189 -40.7188 -40.7183
   -40.7182 -40.6500 -40.6499 -40.6499 -40.6497 -40.6496 -40.6495 -40.6406
   -40.6405 -40.6399 -40.6350 -40.6349 -40.6343 -40.6337 -40.6336 -40.6330
   -40.5978 -40.5978 -40.5977 -40.5976 -40.5965 -40.5965 -40.5940 -40.5940
   -40.5939 -40.5937 -40.5936 -40.5935 -40.5933 -40.5931 -40.5930 -40.5930
   -40.5923 -40.5922 -40.5875 -40.5873 -40.5838 -40.5838 -40.5833 -40.5832
   -40.5832 -40.5832 -40.5832 -40.5832 -40.5832 -40.5831 -40.5828 -40.5828
   -40.5826 -40.5826 -40.5826 -40.5821 -40.5821 -40.5817 -40.5817 -40.5813
   -40.5674 -40.5670 -40.5670 -40.5668 -40.5664 -40.5664 -40.5648 -40.5647
   -40.5647 -40.5640 -40.5639 -40.5638 -40.5637 -40.5636 -40.5636 -13.4686
   -13.4678 -13.3751 -13.3744 -13.3276 -13.1031 -13.0875 -13.0864 -13.0695
   -13.0686 -13.0678 -13.0629 -13.0622 -13.0607 -13.0541 -13.0530 -13.0444
   -13.0360 -13.0340 -13.0333 -13.0078 -13.0060 -13.0013 -12.9929 -12.9901
   -12.9895 -12.9854 -12.9842 -12.9818 -12.9776 -12.9756 -12.9752 -12.9730
   -12.9723 -12.9704 -12.8955 -12.8928 -12.8908 -12.8835 -12.8827 -12.8814
   -12.8771 -12.8758 -12.8756 -12.8736 -12.8726 -12.8718 -12.8709 -12.8700
   -12.8682 -12.8143 -12.8099 -12.8098 -12.8017 -12.8015 -12.7938 -12.7927
   -12.7915 -12.7913 -12.7890 -12.7884 -12.7866 -12.7828 -12.7814 -12.7809
   -12.7617 -12.7596 -12.7592 -12.7537 -12.7499 -12.7473 -12.7454 -12.7440
   -12.7434 -12.7407 -12.7402 -12.7390 -12.7367 -12.7360 -12.7325 -12.7073
   -12.7009 -12.6997 -12.6951 -12.6941 -12.6919 -12.6873 -12.6868 -12.6862
   -12.6841 -12.6829 -12.6819 -12.6810 -12.6803 -12.6803  -8.2547  -8.1666
    -8.0133  -8.0122  -7.9333  -7.8373  -7.8143  -7.8076  -7.7792  -7.7136
    -7.6761  -7.6678  -7.6512  -7.6359  -7.6335  -7.6286  -7.6031  -7.5664
    -7.5538  -7.5180  -7.5168  -7.5037  -7.4888  -7.4725  -7.4456  -7.4424
    -7.4366  -7.4035  -7.3883  -7.3587  -7.3521  -7.3285  -7.3146  -7.3062
    -7.2981  -4.0121  -3.7345  -3.7150  -3.6719  -3.6497  -3.6292  -3.4919
    -3.4723  -3.4606  -3.4553  -3.4537  -3.4224  -3.4084  -3.3190  -3.2682
    -3.2538  -3.2217  -3.0908  -3.0404   0.7923   0.8552   0.9756   1.0613
     1.1095   1.2430   1.3261   1.3364   1.3867   1.4107   1.4244   1.4566
     1.5088   1.5138   1.5166   1.5559   1.5719   1.6024   1.6953   1.7030
     1.7293   1.7522   1.7532   1.7826   1.7857   1.8351   1.8461   1.8663
     1.8735   1.8741   1.8959   1.9005   1.9485   1.9983   2.0321   2.0354
     2.0711   2.0774   2.1281   2.1614   2.1645   2.1925   2.2209   2.2398
     2.2633   2.2827   2.3001   2.3356   2.3484   2.4062   2.4310   2.4349
     2.4823   2.4995   2.5123   2.5488   2.5510   2.5582   2.5697   2.5777
     2.6152   2.6159   2.6722   2.6811   2.6825   2.7112   2.7129   2.7199
     2.7510   2.7687   2.7947   2.8172   2.8671   2.8993   2.9070   2.9204
     2.9258   2.9333   2.9455   2.9879   2.9928   3.0261   3.0524   3.1018
     3.1042   3.1152   3.1167   3.1394   3.1426   3.1684   3.1839   3.2062
     3.2481   3.2781   3.3086   3.3243   3.3375   3.3550   3.3622   3.3816
     3.4023   3.4774   3.5076   3.5143   3.5430   5.2665   5.7314   5.7738
     6.3101   6.4525   6.5224   6.5429   6.6702   6.7045   6.7680   6.7688
     6.8095   6.8807   6.9123   6.9496   6.9528   6.9791   7.0034   7.0213
     7.0274   7.0622   7.0703   7.1257   7.1346   7.1501   7.1773   7.1887
     7.2229   7.2363   7.2607   7.2924   7.3183   7.3379   7.3385   7.3679
     7.3754   7.3821   7.3896   7.4223   7.4292   7.4493   7.4797   7.5239
     7.5422   7.5532   7.5833   7.6078   7.6158   7.6387   7.6528   7.6782
     7.6835   7.9017   7.9175   7.9652   7.9987   8.0969   9.2495   9.6625
     9.6644   9.7577   9.7729   9.8612  10.0590  10.1334  10.2165  10.2396
    10.2476  10.2941  10.3102  10.3269  10.3391  10.3489  10.3735  10.3905
    10.4795  10.5113  10.7758  10.7923  10.8145  10.8979  10.9223  10.9502
    10.9654  10.9808  11.0110  11.0265

     occupation numbers 
     1.0000   1.0000   1.0000   1.0000   1.0000   1.0000   1.0000   1.0000
     1.0000   1.0000   1.0000   1.0000   1.0000   1.0000   1.0000   1.0000
     1.0000   1.0000   1.0000   1.0000   1.0000   1.0000   1.0000   1.0000
     1.0000   1.0000   1.0000   1.0000   1.0000   1.0000   1.0000   1.0000
     1.0000   1.0000   1.0000   1.0000   1.0000   1.0000   1.0000   1.0000
     1.0000   1.0000   1.0000   1.0000   1.0000   1.0000   1.0000   1.0000
     1.0000   1.0000   1.0000   1.0000   1.0000   1.0000   1.0000   1.0000
     1.0000   1.0000   1.0000   1.0000   1.0000   1.0000   1.0000   1.0000
     1.0000   1.0000   1.0000   1.0000   1.0000   1.0000   1.0000   1.0000
     1.0000   1.0000   1.0000   1.0000   1.0000   1.0000   1.0000   1.0000
     1.0000   1.0000   1.0000   1.0000   1.0000   1.0000   1.0000   1.0000
     1.0000   1.0000   1.0000   1.0000   1.0000   1.0000   1.0000   1.0000
     1.0000   1.0000   1.0000   1.0000   1.0000   1.0000   1.0000   1.0000
     1.0000   1.0000   1.0000   1.0000   1.0000   1.0000   1.0000   1.0000
     1.0000   1.0000   1.0000   1.0000   1.0000   1.0000   1.0000   1.0000
     1.0000   1.0000   1.0000   1.0000   1.0000   1.0000   1.0000   1.0000
     1.0000   1.0000   1.0000   1.0000   1.0000   1.0000   1.0000   1.0000
     1.0000   1.0000   1.0000   1.0000   1.0000   1.0000   1.0000   1.0000
     1.0000   1.0000   1.0000   1.0000   1.0000   1.0000   1.0000   1.0000
     1.0000   1.0000   1.0000   1.0000   1.0000   1.0000   1.0000   1.0000
     1.0000   1.0000   1.0000   1.0000   1.0000   1.0000   1.0000   1.0000
     1.0000   1.0000   1.0000   1.0000   1.0000   1.0000   1.0000   1.0000
     1.0000   1.0000   1.0000   1.0000   1.0000   1.0000   1.0000   1.0000
     1.0000   1.0000   1.0000   1.0000   1.0000   1.0000   1.0000   1.0000
     1.0000   1.0000   1.0000   1.0000   1.0000   1.0000   1.0000   1.0000
     1.0000   1.0000   1.0000   1.0000   1.0000   1.0000   1.0000   1.0000
     1.0000   1.0000   1.0000   1.0000   1.0000   1.0000   1.0000   1.0000
     1.0000   1.0000   1.0000   1.0000   1.0000   1.0000   1.0000   1.0000
     1.0000   1.0000   1.0000   1.0000   1.0000   1.0000   1.0000   1.0000
     1.0000   1.0000   1.0000   1.0000   1.0000   1.0000   1.0000   1.0000
     1.0000   1.0000   1.0000   1.0000   1.0000   1.0000   1.0000   1.0000
     1.0000   1.0000   1.0000   1.0000   1.0000   1.0000   1.0000   1.0000
     1.0000   1.0000   1.0000   1.0000   1.0000   1.0000   1.0000   1.0000
     1.0000   1.0000   1.0000   1.0000   1.0000   1.0000   1.0000   1.0000
     1.0000   1.0000   1.0000   1.0000   1.0000   1.0000   1.0000   1.0000
     1.0000   1.0000   1.0000   1.0000   1.0000   1.0000   1.0000   1.0000
     1.0000   1.0000   1.0000   1.0000   1.0000   1.0000   1.0000   1.0000
     1.0000   1.0000   1.0000   1.0000   1.0000   1.0000   1.0000   1.0000
     1.0000   1.0000   1.0000   1.0000   1.0000   1.0000   1.0000   1.0000
     1.0000   1.0000   1.0000   1.0000   1.0000   1.0000   1.0000   1.0000
     1.0000   1.0000   1.0000   1.0000   1.0000   1.0000   1.0000   1.0000
     1.0000   1.0000   1.0000   1.0000   1.0000   1.0000   1.0000   1.0000
     1.0000   1.0000   1.0000   1.0000   1.0000   1.0000   1.0000   1.0000
     1.0000   1.0000   1.0000   1.0000   1.0000   1.0000   1.0000   1.0000
     1.0000   1.0000   1.0000   1.0000   1.0000   1.0000   1.0000   1.0000
     1.0000   1.0000   1.0000   1.0000   1.0000   1.0000   1.0000   1.0000
     1.0000   1.0000   1.0000   1.0000   1.0000   1.0000   1.0000   1.0000
     1.0000   1.0000   1.0000   1.0000   1.0000   1.0000   1.0000   1.0000
     1.0000   1.0000   1.0000   1.0000   1.0000   1.0000   1.0000   1.0000
     1.0000   1.0000   1.0000   1.0000   1.0000   1.0000   1.0000   1.0000
     1.0000   1.0000   1.0000   1.0000   1.0000   1.0000   1.0000   1.0000
     1.0000   1.0000   1.0000   1.0000   1.0000   1.0000   1.0000   1.0000
     1.0000   1.0000   1.0000   1.0000   1.0000   1.0000   1.0000   1.0000
     1.0000   1.0000   1.0000   1.0000   1.0000   0.4251   0.0000   0.0000
     0.0000   0.0000   0.0000   0.0000   0.0000   0.0000   0.0000   0.0000
     0.0000   0.0000   0.0000   0.0000   0.0000   0.0000   0.0000   0.0000
     0.0000   0.0000   0.0000   0.0000   0.0000   0.0000   0.0000   0.0000
     0.0000   0.0000   0.0000   0.0000   0.0000   0.0000   0.0000   0.0000
     0.0000   0.0000   0.0000   0.0000   0.0000   0.0000   0.0000   0.0000
     0.0000   0.0000   0.0000   0.0000   0.0000   0.0000   0.0000   0.0000
     0.0000   0.0000   0.0000   0.0000   0.0000   0.0000   0.0000   0.0000
     0.0000   0.0000   0.0000   0.0000   0.0000   0.0000   0.0000   0.0000
     0.0000   0.0000   0.0000   0.0000   0.0000   0.0000   0.0000   0.0000
     0.0000   0.0000   0.0000   0.0000   0.0000   0.0000   0.0000   0.0000
     0.0000   0.0000   0.0000   0.0000

     the Fermi energy is     5.2483 ev

!    total energy              =  -36758.64983115 Ry
     total all-electron energy =  -1292591.025294 Ry
     estimated scf accuracy    <          4.3E-09 Ry
     smearing contrib. (-TS)   =      -0.00532079 Ry
     internal energy E=F+TS    =  -36758.64451035 Ry

     The total energy is F=E-TS. E is the sum of the following terms:
     one-electron contribution =   -6621.69886367 Ry
     hartree contribution      =    3707.91841954 Ry
     xc contribution           =   -2530.18976111 Ry
     ewald contribution        =   -5518.76697698 Ry
     one-center paw contrib.   =  -25795.90732814 Ry
      -> PAW hartree energy AE =      95.85217033 Ry
      -> PAW hartree energy PS =     -96.08867192 Ry
      -> PAW xc energy AE      =    -798.42292104 Ry
      -> PAW xc energy PS      =      33.30415450 Ry
      -> total E_H with PAW    =    3707.68191795 Ry
      -> total E_XC with PAW   =   -3295.30852764 Ry

     convergence has been achieved in   1 iterations


     -----------------------------------------------
     Non-local corr. energy    =      25.58310577 Ry
     -----------------------------------------------


     Forces acting on atoms (cartesian axes, Ry/au):

     atom    1 type  1   force =    -0.00004586   -0.00009354   -0.00029317
     atom    2 type  1   force =    -0.00008572    0.00065728   -0.00079725
     atom    3 type  1   force =    -0.00024908   -0.00014486    0.00064291
     atom    4 type  1   force =    -0.00063498   -0.00036404    0.00013828
     atom    5 type  1   force =    -0.00010483    0.00000467   -0.00029382
     atom    6 type  1   force =     0.00053190   -0.00040818   -0.00079403
     atom    7 type  1   force =    -0.00005313   -0.00003063    0.00009483
     atom    8 type  1   force =    -0.00014622   -0.00008520   -0.00032575
     atom    9 type  1   force =     0.00014639   -0.00012893    0.00060652
     atom   10 type  1   force =     0.00072076   -0.00043150   -0.00011598
     atom   11 type  1   force =    -0.00003835    0.00018790    0.00060426
     atom   12 type  1   force =    -0.00001460    0.00083996   -0.00011449
     atom   13 type  1   force =    -0.00014428   -0.00004804    0.00013116
     atom   14 type  1   force =    -0.00000685   -0.00009621   -0.00030412
     atom   15 type  1   force =    -0.00011353   -0.00009921    0.00013084
     atom   16 type  1   force =    -0.00008695    0.00004981   -0.00030565
     atom   17 type  1   force =     0.00003437    0.00001760   -0.00021973
     atom   18 type  1   force =    -0.00040189   -0.00023209   -0.00097058
     atom   19 type  2   force =    -0.00006229   -0.00003558    0.00005132
     atom   20 type  2   force =     0.00027666   -0.00000163    0.00064402
     atom   21 type  2   force =    -0.00020352    0.00009480   -0.00036492
     atom   22 type  2   force =     0.00013136    0.00024368    0.00064494
     atom   23 type  2   force =    -0.00001752   -0.00022666   -0.00036458
     atom   24 type  2   force =     0.00013891   -0.00012101    0.00058803
     atom   25 type  2   force =    -0.00011089   -0.00004581   -0.00030935
     atom   26 type  2   force =    -0.00003944    0.00018535    0.00058936
     atom   27 type  2   force =    -0.00009642   -0.00007069   -0.00030973
     atom   28 type  2   force =    -0.00005997   -0.00003610    0.00005742
     atom   29 type  2   force =    -0.00006586   -0.00003921   -0.00030686
     atom   30 type  2   force =     0.00010933   -0.00023883    0.00070428
     atom   31 type  2   force =    -0.00004280   -0.00001908   -0.00028642
     atom   32 type  2   force =    -0.00005997   -0.00003331    0.00015368
     atom   33 type  2   force =    -0.00000182   -0.00000110   -0.00057592
     atom   34 type  2   force =    -0.00015953    0.00021562    0.00070800
     atom   35 type  2   force =    -0.00003818   -0.00002815   -0.00028545
     atom   36 type  2   force =    -0.00053718    0.00033683   -0.00048179
     atom   37 type  2   force =     0.00008126   -0.00001157    0.00032547
     atom   38 type  2   force =    -0.00017299   -0.00009977   -0.00031241
     atom   39 type  2   force =     0.00046377    0.00026984    0.00050087
     atom   40 type  2   force =     0.00002192   -0.00063111   -0.00048150
     atom   41 type  2   force =     0.00002939    0.00006982    0.00032246
     atom   42 type  2   force =     0.00044837    0.00025872   -0.00032431
     atom   43 type  2   force =    -0.00020166   -0.00011729    0.00000856
     atom   44 type  2   force =    -0.00002395   -0.00006365   -0.00007075
     atom   45 type  2   force =     0.00045726    0.00022958    0.00016374
     atom   46 type  2   force =    -0.00006697    0.00001044   -0.00007362
     atom   47 type  2   force =     0.00042138    0.00028418    0.00015893
     atom   48 type  2   force =    -0.00003109    0.00015789   -0.00036712
     atom   49 type  2   force =     0.00001638   -0.00037285    0.00017093
     atom   50 type  2   force =     0.00012673   -0.00010833   -0.00036653
     atom   51 type  2   force =    -0.00029870    0.00019785    0.00016888
     atom   52 type  2   force =     0.00003665    0.00002249   -0.00001443
     atom   53 type  2   force =     0.00024443    0.00014114    0.00054919
     atom   54 type  1   force =    -0.00002021   -0.00001132    0.00097136
     The non-local contrib.  to forces
     atom    1 type  1   force =    -0.00066310    0.05128677   -0.07455956
     atom    2 type  1   force =    -0.00039630    0.09756745    0.08937289
     atom    3 type  1   force =     0.01709522    0.00986699    0.01437658
     atom    4 type  1   force =    -0.00912678   -0.00530313   -0.02347730
     atom    5 type  1   force =     0.04411540   -0.02620732   -0.07459267
     atom    6 type  1   force =     0.08427642   -0.04908022    0.08931266
     atom    7 type  1   force =     0.05929206    0.03423409   -0.02428647
     atom    8 type  1   force =     0.01281732    0.00736858   -0.00036878
     atom    9 type  1   force =    -0.01666631    0.00896885    0.01261369
     atom   10 type  1   force =     0.00822851   -0.00665686   -0.02121834
     atom   11 type  1   force =    -0.00055503   -0.01873645    0.01283930
     atom   12 type  1   force =    -0.00165357    0.01054675   -0.02100169
     atom   13 type  1   force =    -0.05488754    0.03220277   -0.02264174
     atom   14 type  1   force =    -0.01093497    0.00619832    0.00181729
     atom   15 type  1   force =     0.00040886   -0.06372181   -0.02257048
     atom   16 type  1   force =    -0.00010801   -0.01265206    0.00191844
     atom   17 type  1   force =    -0.04504158   -0.02599671   -0.07446147
     atom   18 type  1   force =    -0.08571603   -0.04949107    0.08734365
     atom   19 type  2   force =     0.00043204    0.00022545    0.24285213
     atom   20 type  2   force =     0.00203753    0.00476652    0.23346630
     atom   21 type  2   force =     0.03059219   -0.00856342    0.25821259
     atom   22 type  2   force =     0.00514348   -0.00061925    0.23344951
     atom   23 type  2   force =     0.00787009    0.03079480    0.25819669
     atom   24 type  2   force =     0.00310699   -0.00507052    0.23374868
     atom   25 type  2   force =    -0.02363652   -0.02199358    0.25798013
     atom   26 type  2   force =    -0.00281407    0.00520170    0.23375742
     atom   27 type  2   force =    -0.03081878   -0.00950621    0.25798097
     atom   28 type  2   force =    -0.00025764   -0.00011924    0.24179608
     atom   29 type  2   force =    -0.00038190   -0.00019405    0.25271796
     atom   30 type  2   force =    -0.00209022   -0.00370951    0.23318571
     atom   31 type  2   force =     0.02351972   -0.02173286    0.25819045
     atom   32 type  2   force =     0.00063268    0.00036675    0.25018966
     atom   33 type  2   force =    -0.00072849   -0.00041079    0.29052308
     atom   34 type  2   force =    -0.00423951    0.00005832    0.23319386
     atom   35 type  2   force =    -0.00700650    0.03124261    0.25818397
     atom   36 type  2   force =     0.13329855   -0.07699370   -0.07868125
     atom   37 type  2   force =     0.01020168   -0.00670512   -0.24073246
     atom   38 type  2   force =    -0.01777238   -0.01027481   -0.25921151
     atom   39 type  2   force =    -0.00970561   -0.00559937   -0.23591990
     atom   40 type  2   force =    -0.00002975    0.15396942   -0.07864688
     atom   41 type  2   force =    -0.00071401    0.01219127   -0.24072252
     atom   42 type  2   force =    -0.13589650   -0.07844940   -0.07681631
     atom   43 type  2   force =    -0.01009701   -0.00582524   -0.24106565
     atom   44 type  2   force =     0.00043254    0.00420674   -0.26163189
     atom   45 type  2   force =     0.00121996   -0.03818921   -0.24672598
     atom   46 type  2   force =     0.00386321   -0.00176309   -0.26161826
     atom   47 type  2   force =    -0.03244991    0.02011886   -0.24670680
     atom   48 type  2   force =    -0.00027373    0.02005987   -0.25952997
     atom   49 type  2   force =    -0.00070482    0.01107302   -0.23638055
     atom   50 type  2   force =     0.01720307   -0.01026842   -0.25953223
     atom   51 type  2   force =     0.00920519   -0.00613982   -0.23637676
     atom   52 type  2   force =    -0.00394400   -0.00231114   -0.26146130
     atom   53 type  2   force =     0.03538276    0.02039496   -0.24691301
     atom   54 type  1   force =     0.00262492    0.00148686   -0.11465655
     The ionic contribution  to forces
     atom    1 type  1   force =     0.05851188   -0.33700718   -0.70911337
     atom    2 type  1   force =     0.02530785   -6.52466854   -3.41474955
     atom    3 type  1   force =    -0.51609300   -0.29518749   -0.99361851
     atom    4 type  1   force =     0.51930401    0.30331843    0.70042670
     atom    5 type  1   force =    -0.26382177    0.21706151   -0.70942841
     atom    6 type  1   force =    -5.63738224    3.28050541   -3.41324862
     atom    7 type  1   force =    -1.42172450   -0.82085203    0.28946218
     atom    8 type  1   force =    -1.09375460   -0.63026720    0.31913395
     atom    9 type  1   force =     0.48158682   -0.28776440   -0.83525583
     atom   10 type  1   force =    -0.51439361    0.33247125    0.62204019
     atom   11 type  1   force =    -0.01088667    0.55423344   -0.84968258
     atom   12 type  1   force =     0.02927149   -0.61594181    0.60831971
     atom   13 type  1   force =     1.26180731   -0.70697752    0.21071663
     atom   14 type  1   force =     1.02688090   -0.57939358    0.15208647
     atom   15 type  1   force =     0.02005959    1.45137752    0.20558481
     atom   16 type  1   force =     0.01253728    1.18327680    0.14664657
     atom   17 type  1   force =     0.32394265    0.18504718   -0.73893942
     atom   18 type  1   force =     5.65879374    3.26558082   -3.21181514
     atom   19 type  2   force =    -0.00588876   -0.00570596  -15.15859691
     atom   20 type  2   force =     0.86299002   -1.48845766  -12.44949974
     atom   21 type  2   force =    -0.93506929    0.66893671  -15.18693042
     atom   22 type  2   force =    -0.85748205    1.49312817  -12.44981455
     atom   23 type  2   force =     0.11193619   -1.14164407  -15.18621505
     atom   24 type  2   force =    -1.75516203   -0.06332262  -12.49295083
     atom   25 type  2   force =     0.90717103    0.50475548  -15.16123939
     atom   26 type  2   force =    -0.93006857   -1.49106438  -12.49246949
     atom   27 type  2   force =     0.89281032    0.53040005  -15.16256088
     atom   28 type  2   force =     0.02162179    0.01982662  -12.86862516
     atom   29 type  2   force =    -0.04770016   -0.02009202  -16.41514365
     atom   30 type  2   force =     1.65491625   -0.06315192  -12.40459730
     atom   31 type  2   force =    -0.99750816    0.50128087  -15.20483006
     atom   32 type  2   force =     0.06543164    0.03675206  -13.85262630
     atom   33 type  2   force =     0.08039565    0.04531125  -16.26476611
     atom   34 type  2   force =     0.77556114    1.46543448  -12.40498112
     atom   35 type  2   force =    -0.06166964   -1.11290060  -15.20440558
     atom   36 type  2   force =    -5.23378042    3.12250171    9.95961677
     atom   37 type  2   force =     1.26669071   -0.78091394   11.34858221
     atom   38 type  2   force =     0.62367889    0.36050394   14.67736557
     atom   39 type  2   force =     0.57345405    0.33053446   14.32862917
     atom   40 type  2   force =     0.08917499   -6.09491635    9.95906871
     atom   41 type  2   force =    -0.04227495    1.48766627   11.34864557
     atom   42 type  2   force =     5.35599822    3.09040770    9.95134393
     atom   43 type  2   force =    -1.24205457   -0.71586348   11.34687673
     atom   44 type  2   force =     0.03090617    0.04688528   14.87833665
     atom   45 type  2   force =    -0.02606828    1.73016182   14.23334542
     atom   46 type  2   force =     0.05502140    0.00293703   14.87995640
     atom   47 type  2   force =     1.48240694   -0.88969289   14.23390991
     atom   48 type  2   force =    -0.01294161   -0.71877026   14.67859879
     atom   49 type  2   force =     0.02707070   -0.61719454   14.27437468
     atom   50 type  2   force =    -0.63182582    0.34883296   14.67838457
     atom   51 type  2   force =    -0.52417859    0.33123732   14.27381447
     atom   52 type  2   force =    -0.07228263   -0.04210619   14.88017236
     atom   53 type  2   force =    -1.50284670   -0.86854396   14.21720089
     atom   54 type  1   force =     0.04161899    0.02203401   13.83346392
     The local contribution  to forces
     atom    1 type  1   force =    -0.05786439    0.28663108    0.78204206
     atom    2 type  1   force =    -0.02496158    6.43077853    3.32688186
     atom    3 type  1   force =     0.49907929    0.28536447    0.98028230
     atom    4 type  1   force =    -0.51097755   -0.29847649   -0.67720261
     atom    5 type  1   force =     0.22048791   -0.19132659    0.78238883
     atom    6 type  1   force =     5.55627266   -3.23331399    3.32544358
     atom    7 type  1   force =     1.36367320    0.78733288   -0.26561958
     atom    8 type  1   force =     1.08104487    0.62295785   -0.31908625
     atom    9 type  1   force =    -0.46501433    0.27883595    0.82359460
     atom   10 type  1   force =     0.50714596   -0.32637425   -0.60129734
     atom   11 type  1   force =     0.01143171   -0.53559997    0.83779757
     atom   12 type  1   force =    -0.02761276    0.60652479   -0.58778758
     atom   13 type  1   force =    -1.20818816    0.67544065   -0.18844336
     atom   14 type  1   force =    -1.01606729    0.57321780   -0.15416795
     atom   15 type  1   force =    -0.02052529   -1.38908941   -0.18338181
     atom   16 type  1   force =    -0.01246977   -1.17073625   -0.14882899
     atom   17 type  1   force =    -0.27966899   -0.15949682    0.81184600
     atom   18 type  1   force =    -5.57598822   -3.21777124    3.12574653
     atom   19 type  2   force =     0.00528349    0.00537907   14.92106425
     atom   20 type  2   force =    -0.86485956    1.48379785   12.22168430
     atom   21 type  2   force =     0.90500908   -0.66028563   14.93389595
     atom   22 type  2   force =     0.85251199   -1.49241949   12.22201573
     atom   23 type  2   force =    -0.11946546    1.11127047   14.93319438
     atom   24 type  2   force =     1.75218562    0.06803669   12.26482072
     atom   25 type  2   force =    -0.88426372   -0.48325372   14.90850931
     atom   26 type  2   force =     0.93263839    1.48615306   12.26433277
     atom   27 type  2   force =    -0.86277922   -0.52128093   14.90983235
     atom   28 type  2   force =    -0.02141884   -0.01972281   12.63208688
     atom   29 type  2   force =     0.04800968    0.02026166   16.16776324
     atom   30 type  2   force =    -1.65297202    0.06638911   12.17714428
     atom   31 type  2   force =     0.97423495   -0.48001993   14.95189214
     atom   32 type  2   force =    -0.06591575   -0.03703749   13.60799876
     atom   33 type  2   force =    -0.07956310   -0.04484429   15.98005030
     atom   34 type  2   force =    -0.77180883   -1.46538733   12.17752438
     atom   35 type  2   force =     0.06839351    1.08210723   14.95147611
     atom   36 type  2   force =     5.10278692   -3.04658989   -9.88313470
     atom   37 type  2   force =    -1.27650815    0.78732244  -11.11266538
     atom   38 type  2   force =    -0.60654075   -0.35059918  -14.42407063
     atom   39 type  2   force =    -0.56348932   -0.32478809  -14.09746064
     atom   40 type  2   force =    -0.08892917    5.94348431   -9.88261935
     atom   41 type  2   force =     0.04292079   -1.49938001  -11.11274144
     atom   42 type  2   force =    -5.22231368   -3.01323760   -9.87646760
     atom   43 type  2   force =     1.25178782    0.72148420  -11.11090919
     atom   44 type  2   force =    -0.03122221   -0.05088461  -14.62245037
     atom   45 type  2   force =     0.02526286   -1.69266043  -13.99169087
     atom   46 type  2   force =    -0.05864156   -0.00118381  -14.62408103
     atom   47 type  2   force =    -1.45035570    0.87027313  -13.99227972
     atom   48 type  2   force =     0.01329527    0.69954475  -14.42501170
     atom   49 type  2   force =    -0.02622113    0.60612847  -14.04304242
     atom   50 type  2   force =     0.61537968   -0.33891844  -14.42479166
     atom   51 type  2   force =     0.51505543   -0.32498448  -14.04248559
     atom   52 type  2   force =     0.07630108    0.04445919  -14.62443631
     atom   53 type  2   force =     1.46840252    0.84868883  -13.97493480
     atom   54 type  1   force =    -0.04416420   -0.02347590  -13.71900549
     The core correction contribution to forces
     atom    1 type  1   force =     0.00001962   -0.00087582    0.00137701
     atom    2 type  1   force =     0.00000550   -0.00297994   -0.00227370
     atom    3 type  1   force =    -0.00025349   -0.00014593   -0.00034265
     atom    4 type  1   force =     0.00023346    0.00013520    0.00042875
     atom    5 type  1   force =    -0.00074917    0.00045486    0.00137748
     atom    6 type  1   force =    -0.00257828    0.00149468   -0.00227285
     atom    7 type  1   force =    -0.00120931   -0.00069785    0.00056770
     atom    8 type  1   force =    -0.00020404   -0.00011701    0.00003914
     atom    9 type  1   force =     0.00025002   -0.00013138   -0.00030022
     atom   10 type  1   force =    -0.00023864    0.00017124    0.00040770
     atom   11 type  1   force =     0.00001071    0.00027881   -0.00030460
     atom   12 type  1   force =     0.00002923   -0.00029407    0.00040358
     atom   13 type  1   force =     0.00113544   -0.00065389    0.00053210
     atom   14 type  1   force =     0.00016984   -0.00008772   -0.00000137
     atom   15 type  1   force =     0.00000192    0.00131199    0.00053079
     atom   16 type  1   force =     0.00000922    0.00019170   -0.00000316
     atom   17 type  1   force =     0.00077163    0.00044562    0.00136935
     atom   18 type  1   force =     0.00254684    0.00147072   -0.00221365
     atom   19 type  2   force =     0.00016734    0.00009783   -0.00532981
     atom   20 type  2   force =     0.00016281   -0.00004538   -0.00495041
     atom   21 type  2   force =    -0.00070904    0.00012081   -0.00554338
     atom   22 type  2   force =     0.00004095    0.00016809   -0.00494912
     atom   23 type  2   force =    -0.00024525   -0.00068368   -0.00554132
[...]
              0.123481942558016E+03
              0.560961831470496E+02
              0.912854216175556E+02
             -0.505235567374318E+01
              0.280462102460689E+03
              0.470029521858662E+02
             -0.432507510969498E+02
              0.503221987598022E+01
             -0.284948012763404E+02
              0.230373768972799E+03
             -0.133163613335095E+02
              0.496510665472192E+02
              0.166123039956182E+03
              0.363990788830829E+02
             -0.131065783619100E+03
             -0.191103164149334E+03
              0.197814467338571E+01
             -0.214924325734879E+03
              0.729601070245610E+02
             -0.434752438890800E+02
             -0.101053193809467E+03
              0.907767748121194E+02
              0.347259930424075E+02
              0.818657223001712E+02
              0.725143524568739E+01
              0.130441206348380E+03
             -0.213049819200462E+03
             -0.195836768225361E+02
             -0.185897813755673E+03
              0.334490103136850E+02
              0.100695614636797E+03
             -0.187028110560394E+02
             -0.700563129489324E+02
              0.149762724967918E+03
             -0.692909439459769E+02
              0.487991788761758E+02
             -0.434599304309927E+02
              0.106901520274656E+03
              0.129150118029371E+03
             -0.557017953082345E+02
              0.110916069594284E+03
              0.426087517391982E+02
             -0.114465277757346E+03
             -0.685289135461994E+02
              0.184684958065462E+03
              0.875780902731606E+02
             -0.848479598465644E+01
             -0.249327071704447E+02
              0.271426647394696E+03
              0.162823692729850E+03
              0.596433548214038E+02
             -0.174066485715339E+03
              0.272494102582060E+03
             -0.123205408932936E+03
             -0.152773644668407E+03
             -0.236738700465707E+03
              0.114041047633838E+03
             -0.216554308729722E+03
              0.938159311196641E+02
              0.154140740110645E+03
              0.114160463123588E+03
              0.241974923068247E+02
              0.681782301874202E+02
             -0.170601629106867E+03
             -0.606106474217711E+02
             -0.551765753486588E+02
              0.824519273817862E+02
              0.184151257842191E+03
              0.181425761279404E+03
              0.138943021209402E+03
             -0.343777431818935E+02
              0.493343642180939E+02
              0.695687531115470E+01
             -0.545797386305811E+02
              0.814078850080786E+02
              0.780577839279219E+02
             -0.111153436576370E+03
             -0.112509472437937E+03
             -0.516589012875967E+02
              0.119478162602499E+03
              0.607365236729124E+02
             -0.812972523060542E+02
             -0.141807755401301E+03
             -0.194859527333235E+03
              0.404161302029621E+01
              0.554940623067112E+02
             -0.753527988546639E+02
              0.276762191851838E+03
              0.265568678978502E+01
             -0.321537044697959E+03
              0.806059161627563E+02
              0.132661853547756E+03
             -0.481681934880038E+02
              0.500485127053844E+01
             -0.726835677993026E+02
              0.123506555660855E+03
              0.608530424312679E+02
             -0.162439505649747E+03
              0.192879370406409E+03
              0.132632984590575E+02
             -0.770329648216718E+02
             -0.949249122913806E+02
              0.386735845793916E+03
              0.172945198790333E+03
             -0.433426441015970E+02
              0.952610980980890E+02
             -0.188404291942348E+03
             -0.409656700112741E+02
             -0.167490976346922E+03
              0.646584393588648E+02
              0.120254587785961E+03
              0.132287481333154E+03
             -0.579471970960753E+02
              0.101078107355529E+02
              0.164802048782377E+03
              0.526671324291256E+02
              0.983119894868952E+02
              0.400199862120444E+02
             -0.220883073160975E+02
              0.426085280133520E+00
             -0.305929627909084E+02
              0.341246100027765E+02
              0.115073407392147E+02
             -0.149658673529187E+03
              0.229395000245185E+03
              0.883185341034644E+02
             -0.162516859206087E+03
             -0.119501630216331E+03
             -0.168604074668130E+03
             -0.729758971169408E+02
             -0.529452680104766E+02
             -0.133280126713689E+03
             -0.131630304194567E+03
              0.158424191825857E+03
              0.126119334873560E+03
             -0.174621505063244E+02
              0.189253023518224E+03
              0.272227206104749E+02
             -0.304284550789185E+03
              0.163437625867319E+03
              0.278771791409463E+02
              0.128287057184695E+03
              0.173133014519972E+02
              0.145453645233965E+02
              0.261516089163471E+02
              0.693248045699575E+02
             -0.126930999806956E+03
             -0.598870359663338E+02
             -0.120180888395490E+03
             -0.993155515117472E+02
              0.414424465593942E+02
             -0.110266027806253E+03
              0.530836475886573E+02
              0.728770944728773E+02
             -0.676297428940297E+02
             -0.431925771356493E+02
              0.292071589910665E+01
              0.189195890998159E+03
              0.285871354694610E+02
              0.181607905107410E+03
              0.651697516840281E+02
             -0.239960981659344E+03
             -0.795711135669279E+02
              0.818491364825463E+02
              0.188927504514277E+03
              0.311089274895851E+02
              0.776638410566148E+02
              0.173812618052136E+03
             -0.100613651813745E+03
             -0.154555276788433E+03
              0.214228754490042E+03
              0.125455182784110E+02
             -0.226414375680625E+03
              0.827693090099588E+02
              0.143269379574748E+03
             -0.366425157990043E+02
             -0.149296129721976E+03
              0.311010483187165E+02
              0.648443173414262E+01
             -0.725338242020540E+02
              0.276959369417923E+02
             -0.241028731772170E+02
              0.336874637289056E+03
              0.981036203190391E+02
             -0.142674670792979E+03
              0.421137901336861E+02
              0.205105663004092E+03
             -0.138727573435514E+03
             -0.361631883399715E+02
             -0.131185127721527E+03
              0.105199843427876E+03
              0.331821876423097E+02
              0.695772128607161E+02
              0.126191618407071E+02
              0.238207890462533E+03
             -0.135598487293723E+03
             -0.106960841654678E+03
             -0.103300513600304E+03
              0.908018381409557E+02
              0.236727161480567E+03
             -0.396135033333206E+02
              0.968193843602494E+02
             -0.137589526511528E+03
              0.264446177470012E+02
             -0.439986268079421E+02
              0.977768910287159E+01
             -0.534015780823122E+02
             -0.434523629682468E+02
             -0.427667075901289E+02
              0.351223123317845E+02
              0.687120745187588E+02
             -0.150091885826513E+03
              0.111156025338307E+03
             -0.178810469978620E+03
              0.134854844058029E+03
             -0.142502491041870E+03
              0.231185209233871E+03
              0.127057150328345E+03
              0.146250407486010E+03
              0.363582808550764E+02
              0.426972573531973E+02
             -0.319429229134500E+03
              0.516295752522395E+02
              0.116412961718556E+02
              0.304527356245453E+02
             -0.521437673388979E+02
              0.246934974308768E+03
             -0.572562375395578E+02
             -0.102061272120197E+03
             -0.238836496625793E+03
             -0.828782605680499E+02
             -0.114623023364679E+03
             -0.997331717611437E+02
             -0.224424158512475E+02
             -0.545319060109916E+02
             -0.694882788591585E+02
             -0.106319904174285E+03
              0.813043132050914E+02
              0.256618814728508E+03
              0.216800974623379E+03
             -0.384395240140457E+02
             -0.260561276182308E+03
             -0.111147054135475E+03
              0.532182458027007E+02
              0.533916882788088E+02
              0.851970439016418E+02
              0.598622211708571E+02
              0.105635327545842E+02
              0.254556740196056E+03
             -0.618410923058734E+02
              0.125067693180104E+03
              0.644965956778000E+02
             -0.867348002237281E+02
             -0.415625880580471E+02
              0.115326331848044E+03
             -0.617120253213320E+02
             -0.378769072538220E+02
             -0.280763180183660E+02
              0.148506111116727E+03
             -0.195407780428844E+03
             -0.157349961226864E+02
             -0.150800439284622E+03
             -0.320344698677945E+03
             -0.912433953704863E+00
             -0.473470463189355E+02
              0.124507484146445E+03
              0.138371910169351E+03
              0.189243019333319E+03
             -0.123063456264639E+03
              0.191431688910523E+03
              0.478832653619689E+02
             -0.711439551566600E+02
              0.255309656294776E+02
             -0.603037650748695E+02
             -0.356748597268456E+02
              0.110612206928351E+03
             -0.915720619324835E+02
              0.245630743640270E+03
             -0.654813522705999E+02
             -0.135856836262868E+03
              0.256922631113796E+03
             -0.139052246332112E+03
             -0.112059284639015E+02
              0.134563124108431E+02
              0.740267812561663E+02
             -0.108476237449103E+03
             -0.826707503670282E+02
              0.131903973769681E+03
             -0.198577526618653E+03
              0.163678173006567E+03
              0.241886903524868E+02
              0.117291233745939E+03
              0.169923981547215E+03
              0.436319979893282E+02
             -0.236268725212351E+03
             -0.102223076781160E+03
             -0.170542154875276E+03
             -0.101390497680885E+03
             -0.269740156050173E+02
              0.366374893221648E+02
             -0.794698544128335E+02
             -0.136375374313639E+01
             -0.236994177219966E+03
              0.132121283769942E+02
             -0.152916092661859E+03
              0.148160298631962E+03
             -0.867718366173048E+02
             -0.209757299746911E+02
              0.111907407420155E+03
              0.221640299110954E+02
              0.103942420142522E+03
             -0.198298594956274E+03
              0.328758412230395E+02
              0.135171288198353E+02
              0.854043318435731E+02
              0.136843692343178E+03
             -0.252723087170029E+02
             -0.155648229071307E+03
             -0.901852977829633E+02
             -0.634290668161887E+02
             -0.186121265005781E+02
              0.145212289487840E+03
              0.943337263418432E+02
             -0.954806989938209E+02
             -0.895663978395847E+02
              0.657988607400389E+02
              0.716546125744985E+02
             -0.193656396196806E+03
              0.450942950194650E+02
              0.138726285025814E+03
             -0.623707202184985E+01
              0.175038515014085E+03
              0.806912001579252E+02
              0.137577876565639E+03
              0.209262075957432E+03
              0.314740721867977E+02
             -0.284994738518602E+03
              0.393087428033566E+02
              0.308152929588276E+03
              0.224030816583442E+03
             -0.154465353568400E+03
              0.139405575892644E+02
              0.200531594283152E+03
              0.173671686414028E+03
              0.763961881586290E+02
             -0.462360582806725E+02
              0.767290836462042E+02
              0.158792347320743E+03
             -0.734332476262489E+02
             -0.473269823647064E+02
              0.107543056477235E+03
             -0.640656502254126E+01
              0.967135962932969E+02
             -0.297788216617191E+02
              0.201401310980386E+03
             -0.767452526683526E+02
              0.462674639632797E+02
             -0.852728460203655E+02
              0.996544749409568E+02
             -0.135065460338529E+02
              0.148554873485728E+03
              0.105765210634908E+02
              0.665732094135877E+02
             -0.944854666077449E+02
             -0.660315645762799E+02
             -0.337179471163507E+02
             -0.307011001596778E+02
              0.161775721745194E+03
              0.796830976499020E+02
              0.196200233846665E+03
              0.181135187539014E+03
              0.508012948047726E+02
              0.903280199308955E+01
              0.192976253668602E+03
              0.108476567636723E+03
              0.306436303549503E+00
              0.188018779194365E+03
             -0.154294707503819E+03
              0.540834221956982E+02
             -0.100626768222985E+03
             -0.271787189788083E+02
              0.259925300841063E+03
             -0.363550931073435E+02
             -0.109111885711063E+02
             -0.282482720384220E+02
              0.213565440109392E+03
             -0.458031614125068E+02
             -0.392260719826049E+01
              0.430744202466300E+03
             -0.127443606378044E+03
             -0.159194367247882E+03
             -0.159294242254597E+03
             -0.101684325338271E+03
              0.928585357551431E+02
             -0.416442226412557E+02
              0.235914011961968E+02
             -0.107717810251715E+02
              0.547004629687304E+02
              0.876456782285380E+02
              0.102171550584778E+03
              0.147108203465014E+03
              0.942102245633672E+02
              0.959944792892750E+02
             -0.177777630055061E+03
             -0.183609770137842E+03
             -0.413819832168392E+02
             -0.164103504796322E+03
              0.260527576281677E+03
              0.219399385156549E+03
              0.103547213055308E+03
              0.285315227507637E+03
             -0.142513061119921E+03
             -0.614306182994484E+02
             -0.885921938101883E+02
              0.246928852108887E+03
 
 BEEF-vdW xc energy contributions
            1 :    -2231.352187240718     
            2 :     2044.300185635334     
            3 :    -1725.619145452476     
            4 :     1360.611475794643     
            5 :    -1029.362095026159     
            6 :     780.8175427140345     
            7 :    -624.8919567432272     
            8 :     540.1964441635387     
            9 :    -490.1894835511939     
           10 :     440.7220131413033     
           11 :    -372.9611996823633     
           12 :     287.3108101729367     
           13 :    -197.8442413702187     
           14 :     121.5825366823037     
           15 :    -69.02439272380434     
           16 :     40.23601940342178     
           17 :    -26.83960238680174     
           18 :     17.45559934079574     
           19 :    -3.475678840513410     
           20 :    -17.36571393063105     
           21 :     40.99101151058676     
           22 :    -60.27876485353090     
           23 :     69.69640298974218     
           24 :    -68.60224747060738     
           25 :     61.48159212496921     
           26 :    -55.29445001637805     
           27 :     55.66226948492431     
           28 :    -63.98429469920529     
           29 :     76.87160442141794     
           30 :    -88.06997049523170     
           31 :    -192.6044022513761     
           32 :    -138.6105809595110     

     Writing all to output data dir ./PbI2.save/
 
     init_run     :      7.52s CPU     12.03s WALL (       1 calls)
     electrons    :    116.85s CPU    121.11s WALL (       1 calls)
     forces       :      5.95s CPU      6.17s WALL (       1 calls)
     stress       :    108.47s CPU    109.51s WALL (       1 calls)

     Called by init_run:
     wfcinit      :      3.64s CPU      7.82s WALL (       1 calls)
     potinit      :      1.82s CPU      1.98s WALL (       1 calls)
     hinit0       :      0.77s CPU      0.82s WALL (       1 calls)

     Called by electrons:
     c_bands      :    106.06s CPU    109.60s WALL (       2 calls)
     sum_band     :      9.01s CPU      9.38s WALL (       2 calls)
     v_of_rho     :      2.65s CPU      2.79s WALL (       2 calls)
     v_h          :      0.02s CPU      0.02s WALL (       2 calls)
     v_xc         :     38.41s CPU     40.74s WALL (      38 calls)
     newd         :      0.41s CPU      0.58s WALL (       2 calls)
     PAW_pot      :      0.44s CPU      0.45s WALL (       2 calls)
     mix_rho      :      0.00s CPU      0.00s WALL (       2 calls)
     vdW_kernel   :      0.34s CPU      0.35s WALL (       1 calls)

     Called by c_bands:
     init_us_2    :      0.63s CPU      0.68s WALL (      12 calls)
     init_us_2:cp :      0.63s CPU      0.68s WALL (      12 calls)
     cegterg      :    102.19s CPU    105.28s WALL (       4 calls)

     Called by sum_band:
     sum_band:wei :      0.00s CPU      0.00s WALL (       2 calls)
     sum_band:loo :      6.76s CPU      6.81s WALL (       2 calls)
     sum_band:buf :      0.15s CPU      0.16s WALL (       4 calls)
     sum_band:ini :      0.24s CPU      0.24s WALL (       4 calls)
     sum_band:cal :      1.53s CPU      1.54s WALL (       4 calls)
     sum_band:bec :      0.02s CPU      0.02s WALL (       4 calls)
     addusdens    :      0.45s CPU      0.66s WALL (       2 calls)
     addusd:skk   :      0.03s CPU      0.03s WALL (       4 calls)
     addusd:dgemm :      0.26s CPU      0.45s WALL (       4 calls)
     addusd:qvan2 :      0.15s CPU      0.16s WALL (       4 calls)

     Called by *egterg:
     cdiaghg      :     49.66s CPU     51.49s WALL (      37 calls)
     cegterg:over :      7.50s CPU      7.68s WALL (      37 calls)
     cegterg:upda :      4.35s CPU      4.50s WALL (      37 calls)
     cegterg:last :      1.70s CPU      1.71s WALL (       4 calls)
     h_psi        :     32.22s CPU     32.63s WALL (      41 calls)
     s_psi        :      3.97s CPU      3.99s WALL (      41 calls)
     g_psi        :      0.09s CPU      0.10s WALL (      37 calls)

     Called by h_psi:
     h_psi:calbec :      4.49s CPU      4.52s WALL (      41 calls)
     vloc_psi     :     23.55s CPU     23.72s WALL (      41 calls)
     add_vuspsi   :      3.94s CPU      3.97s WALL (      41 calls)

     General routines
     calbec       :     12.68s CPU     12.74s WALL (      55 calls)
     fft          :     21.00s CPU     21.18s WALL (    2232 calls)
     ffts         :      0.12s CPU      0.12s WALL (       4 calls)
     fftw         :     27.17s CPU     27.36s WALL (   11362 calls)
     interpolate  :      0.06s CPU      0.06s WALL (       2 calls)
 
     Parallel routines

     PAW routines
     PAW_pot      :      0.44s CPU      0.45s WALL (       2 calls)
 
     PWSCF        :   4m36.65s CPU   4m53.27s WALL

 
   This run was terminated on:   8:10: 2  23Mar2024            

=------------------------------------------------------------------------------=
   JOB DONE.
=------------------------------------------------------------------------------=
