
     Program PWSCF v.7.1 starts on 11Nov2023 at 20:13:25 

     This program is part of the open-source Quantum ESPRESSO suite
     for quantum simulation of materials; please cite
         "P. Giannozzi et al., J. Phys.:Condens. Matter 21 395502 (2009);
         "P. Giannozzi et al., J. Phys.:Condens. Matter 29 465901 (2017);
         "P. Giannozzi et al., J. Chem. Phys. 152 154105 (2020);
          URL http://www.quantum-espresso.org", 
     in publications or presentations arising from this work. More details at
     http://www.quantum-espresso.org/quote

     Parallel version (MPI & OpenMP), running on     256 processor cores
     Number of MPI processes:               256
     Threads/MPI process:                     1

     MPI processes distributed on     2 nodes
     1737482 MiB available memory on the printing compute node when the environment starts
 
     Reading input from espresso.pwi
Warning: card &CELL ignored
Warning: card    CELL_DYNAMICS    = 'BFGS' ignored
Warning: card / ignored

     Current dimensions of program PWSCF are:
     Max number of different atomic species (ntypx) = 10
     Max number of k-points (npk) =  40000
     Max angular momentum in pseudopotentials (lmaxx) =  4
     file Ga.pbe-dn-kjpaw_psl.1.0.0.UPF: wavefunction(s)  4S renormalized
     file N.pbe-n-kjpaw_psl.1.0.0.UPF: wavefunction(s)  2S renormalized

     **************************************************************************
     Initializing libbeef V0.1.2 with the BEEF-vdW functional.
     Citation: Wellendorff et al., PRB 85, 235149 (2012).
     **************************************************************************


     IMPORTANT: XC functional enforced from input :
     Exchange-correlation= BEEF-VDW
                           (   1   4  43  14   2   0   0)
     Any further DFT definition will be discarded
     Please, verify this is what you really want

 
     K-points division:     npool     =       4
     R & G space division:  proc/nbgrp/npool/nimage =      64
     Subspace diagonalization in iterative solution of the eigenvalue problem:
     a serial algorithm will be used

 
     Parallelization info
     --------------------
     sticks:   dense  smooth     PW     G-vecs:    dense   smooth      PW
     Min         354     283     73                42160    30167    3987
     Max         356     285     74                42163    30170    3996
     Sum       22693   18145   4705              2698283  1930731  255309
 
     Using Slab Decomposition
 


     bravais-lattice index     =            4
     lattice parameter (alat)  =      30.6565  a.u.
     unit-cell volume          =   24400.9461 (a.u.)^3
     number of atoms/cell      =          300
     number of atomic types    =            2
     number of electrons       =      2708.00
     number of Kohn-Sham states=         1625
     kinetic-energy cutoff     =      70.0000  Ry
     charge density cutoff     =     350.0000  Ry
     scf convergence threshold =      1.0E-09
     mixing beta               =       0.7000
     number of iterations used =            8  plain     mixing
     energy convergence thresh.=      1.0E-04
     force convergence thresh. =      1.0E-03
     Exchange-correlation= BEEF-VDW
                           (   1   4  43  14   2   0   0)
     nstep                     =           50


     celldm(1)=  30.656540  celldm(2)=   0.000000  celldm(3)=   0.977927
     celldm(4)=   0.000000  celldm(5)=   0.000000  celldm(6)=   0.000000

     crystal axes: (cart. coord. in units of alat)
               a(1) = (   1.000000   0.000000   0.000000 )  
               a(2) = (  -0.500000   0.866025   0.000000 )  
               a(3) = (   0.000000   0.000000   0.977927 )  

     reciprocal axes: (cart. coord. in units 2 pi/alat)
               b(1) = (  1.000000  0.577350 -0.000000 )  
               b(2) = (  0.000000  1.154701  0.000000 )  
               b(3) = (  0.000000 -0.000000  1.022571 )  


     PseudoPot. # 1 for Ga read from file:
     //group///packages/espresso/pseudo/psl_1.0.0/pslibrary.1.0.0/pbe/PSEUDOPOTENTIALS/Ga.pbe-dn-kjpaw_psl.1.0.0.UPF
     MD5 check sum: cd2a01e492f15b435d17032472d8505c
     Pseudo is Projector augmented-wave + core cor, Zval = 13.0
     Generated using 'atomic' code by A. Dal Corso  v.7.1
     Shape of augmentation charge: PSQ
     Using radial grid of 1205 points,  6 beta functions with: 
                l(1) =   0
                l(2) =   0
                l(3) =   1
                l(4) =   1
                l(5) =   2
                l(6) =   2
     Q(r) pseudized with 0 coefficients 


     PseudoPot. # 2 for N  read from file:
     //group///packages/espresso/pseudo/psl_1.0.0/pslibrary.1.0.0/pbe/PSEUDOPOTENTIALS/N.pbe-n-kjpaw_psl.1.0.0.UPF
     MD5 check sum: f77f775694dac7e2c3fe1c82443d1a16
     Pseudo is Projector augmented-wave + core cor, Zval =  5.0
     Generated using 'atomic' code by A. Dal Corso  v.7.1
     Shape of augmentation charge: PSQ
     Using radial grid of 1085 points,  4 beta functions with: 
                l(1) =   0
                l(2) =   0
                l(3) =   1
                l(4) =   1
     Q(r) pseudized with 0 coefficients 


     atomic species   valence    mass     pseudopotential
        Ga            13.00    69.72300     Ga( 1.00)
        N              5.00    14.00700     N ( 1.00)

      2 Sym. Ops. (no inversion) found


                                    s                        frac. trans.

      isym =  1     identity                                     

 cryst.   s( 1) = (     1          0          0      )
                  (     0          1          0      )
                  (     0          0          1      )

 cart.    s( 1) = (  1.0000000  0.0000000  0.0000000 )
                  (  0.0000000  1.0000000  0.0000000 )
                  (  0.0000000  0.0000000  1.0000000 )


      isym =  2     inv. 180 deg rotation - cryst. axis [0,1,0]  

 cryst.   s( 2) = (     1          1          0      )
                  (     0         -1          0      )
                  (     0          0          1      )

 cart.    s( 2) = (  0.5000000  0.8660254  0.0000000 )
                  (  0.8660254 -0.5000000  0.0000000 )
                  (  0.0000000  0.0000000  1.0000000 )


     point group C_s (m)    
     there are  2 classes
     the character table:

       E     s    
A'     1.00  1.00
A''    1.00 -1.00

     the symmetry operations in each class and the name of the first element:

     E        1
          identity                                               
     s        2
          inv. 180 deg rotation - cryst. axis [0,1,0]            

   Cartesian axes

     site n.     atom                  positions (alat units)
         1           Ga  tau(   1) = (   0.1000001   0.0577350   0.1627148  )
         2           Ga  tau(   2) = (   0.1000001   0.0577350   0.4886906  )
         3           Ga  tau(   3) = (   0.1000001   0.0577350   0.8146665  )
         4           Ga  tau(   4) = (   0.0000001   0.2309401   0.1627148  )
         5           Ga  tau(   5) = (   0.0000001   0.2309401   0.4886906  )
         6           Ga  tau(   6) = (   0.0000001   0.2309401   0.8146665  )
         7           Ga  tau(   7) = (  -0.0999999   0.4041451   0.1627148  )
         8           Ga  tau(   8) = (  -0.0999999   0.4041451   0.4886906  )
         9           Ga  tau(   9) = (  -0.0999999   0.4041451   0.8146665  )
        10           Ga  tau(  10) = (  -0.1999999   0.5773502   0.1627148  )
        11           Ga  tau(  11) = (  -0.1999999   0.5773502   0.4886906  )
        12           Ga  tau(  12) = (  -0.1999999   0.5773502   0.8146665  )
        13           Ga  tau(  13) = (  -0.2999999   0.7505553   0.1627148  )
        14           Ga  tau(  14) = (  -0.2999999   0.7505553   0.4886906  )
        15           Ga  tau(  15) = (  -0.2999999   0.7505553   0.8146665  )
        16           Ga  tau(  16) = (   0.3000001   0.0577350   0.1627148  )
        17           Ga  tau(  17) = (   0.3000001   0.0577350   0.4886906  )
        18           Ga  tau(  18) = (   0.3000001   0.0577350   0.8146665  )
        19           Ga  tau(  19) = (   0.2000001   0.2309401   0.1627148  )
        20           Ga  tau(  20) = (   0.2000001   0.2309401   0.4886906  )
        21           Ga  tau(  21) = (   0.2000001   0.2309401   0.8146665  )
        22           Ga  tau(  22) = (   0.1000001   0.4041451   0.1627148  )
        23           Ga  tau(  23) = (   0.1000001   0.4041451   0.4886906  )
        24           Ga  tau(  24) = (   0.1000001   0.4041451   0.8146665  )
        25           Ga  tau(  25) = (   0.0000001   0.5773502   0.1627148  )
        26           Ga  tau(  26) = (   0.0000001   0.5773502   0.4886906  )
        27           Ga  tau(  27) = (   0.0000001   0.5773502   0.8146665  )
        28           Ga  tau(  28) = (  -0.0999999   0.7505553   0.1627148  )
        29           Ga  tau(  29) = (  -0.0999999   0.7505553   0.4886906  )
        30           Ga  tau(  30) = (  -0.0999999   0.7505553   0.8146665  )
        31           Ga  tau(  31) = (   0.5000001   0.0577350   0.1627148  )
        32           Ga  tau(  32) = (   0.5000001   0.0577350   0.4886906  )
        33           Ga  tau(  33) = (   0.5000001   0.0577350   0.8146665  )
        34           Ga  tau(  34) = (   0.4000001   0.2309401   0.1627148  )
        35           Ga  tau(  35) = (   0.4000001   0.2309401   0.4886906  )
        36           Ga  tau(  36) = (   0.4000001   0.2309401   0.8146665  )
        37           Ga  tau(  37) = (   0.3000001   0.4041451   0.1627148  )
        38           Ga  tau(  38) = (   0.3000001   0.4041451   0.4886906  )
        39           Ga  tau(  39) = (   0.3000001   0.4041451   0.8146665  )
        40           Ga  tau(  40) = (   0.2000001   0.5773502   0.1627148  )
        41           Ga  tau(  41) = (   0.2000001   0.5773502   0.4886906  )
        42           Ga  tau(  42) = (   0.2000001   0.5773502   0.8146665  )
        43           Ga  tau(  43) = (   0.1000001   0.7505553   0.1627148  )
        44           Ga  tau(  44) = (   0.1000001   0.7505553   0.4886906  )
        45           Ga  tau(  45) = (   0.1000001   0.7505553   0.8146665  )
        46           Ga  tau(  46) = (   0.7000001   0.0577350   0.1627148  )
        47           Ga  tau(  47) = (   0.7000001   0.0577350   0.4886906  )
        48           Ga  tau(  48) = (   0.7000001   0.0577350   0.8146665  )
        49           Ga  tau(  49) = (   0.6000001   0.2309401   0.1627148  )
        50           Ga  tau(  50) = (   0.6000001   0.2309401   0.4886906  )
        51           Ga  tau(  51) = (   0.6000001   0.2309401   0.8146665  )
        52           Ga  tau(  52) = (   0.5000001   0.4041451   0.1627148  )
        53           Ga  tau(  53) = (   0.5000001   0.4041451   0.4886906  )
        54           Ga  tau(  54) = (   0.5000001   0.4041451   0.8146665  )
        55           Ga  tau(  55) = (   0.4000001   0.5773502   0.1627148  )
        56           Ga  tau(  56) = (   0.4000001   0.5773502   0.4886906  )
        57           Ga  tau(  57) = (   0.4000001   0.5773502   0.8146665  )
        58           Ga  tau(  58) = (   0.3000001   0.7505553   0.1627148  )
        59           Ga  tau(  59) = (   0.3000001   0.7505553   0.4886906  )
        60           Ga  tau(  60) = (   0.3000001   0.7505553   0.8146665  )
        61           Ga  tau(  61) = (   0.9000001   0.0577350   0.1627148  )
        62           Ga  tau(  62) = (   0.9000001   0.0577350   0.4886906  )
        63           Ga  tau(  63) = (   0.9000001   0.0577350   0.8146665  )
        64           Ga  tau(  64) = (   0.8000001   0.2309401   0.1627148  )
        65           Ga  tau(  65) = (   0.8000001   0.2309401   0.4886906  )
        66           Ga  tau(  66) = (   0.8000001   0.2309401   0.8146665  )
        67           Ga  tau(  67) = (   0.7000001   0.4041451   0.1627148  )
        68           Ga  tau(  68) = (   0.7000001   0.4041451   0.4886906  )
        69           Ga  tau(  69) = (   0.7000001   0.4041451   0.8146665  )
        70           Ga  tau(  70) = (   0.6000001   0.5773502   0.1627148  )
        71           Ga  tau(  71) = (   0.6000001   0.5773502   0.4886906  )
        72           Ga  tau(  72) = (   0.6000001   0.5773502   0.8146665  )
        73           Ga  tau(  73) = (   0.5000001   0.7505553   0.1627148  )
        74           Ga  tau(  74) = (   0.5000001   0.7505553   0.4886906  )
        75           Ga  tau(  75) = (   0.5000001   0.7505553   0.8146665  )
        76           Ga  tau(  76) = (  -0.0000001   0.1154701   0.3257027  )
        77           Ga  tau(  77) = (  -0.0000001   0.1154701   0.6516786  )
        78           Ga  tau(  78) = (  -0.0000001   0.1154701   0.9776544  )
        79           Ga  tau(  79) = (  -0.1000001   0.2886752   0.3257027  )
        80           Ga  tau(  80) = (  -0.1000001   0.2886752   0.6516786  )
        81           Ga  tau(  81) = (  -0.1000001   0.2886752   0.9776544  )
        82           Ga  tau(  82) = (  -0.2000001   0.4618803   0.3257027  )
        83           Ga  tau(  83) = (  -0.2000001   0.4618803   0.6516786  )
        84           Ga  tau(  84) = (  -0.2000001   0.4618803   0.9776544  )
        85           Ga  tau(  85) = (  -0.3000001   0.6350854   0.3257027  )
        86           Ga  tau(  86) = (  -0.3000001   0.6350854   0.6516786  )
        87           Ga  tau(  87) = (  -0.3000001   0.6350854   0.9776544  )
        88           Ga  tau(  88) = (  -0.4000001   0.8082905   0.3257027  )
        89           Ga  tau(  89) = (  -0.4000001   0.8082905   0.6516786  )
        90           Ga  tau(  90) = (  -0.4000001   0.8082905   0.9776544  )
        91           Ga  tau(  91) = (   0.1999999   0.1154701   0.3257027  )
        92           Ga  tau(  92) = (   0.1999999   0.1154701   0.6516786  )
        93           Ga  tau(  93) = (   0.1999999   0.1154701   0.9776544  )
        94           Ga  tau(  94) = (   0.0999999   0.2886752   0.3257027  )
        95           Ga  tau(  95) = (   0.0999999   0.2886752   0.6516786  )
        96           Ga  tau(  96) = (   0.0999999   0.2886752   0.9776544  )
        97           Ga  tau(  97) = (  -0.0000001   0.4618803   0.3257027  )
        98           Ga  tau(  98) = (  -0.0000001   0.4618803   0.6516786  )
        99           Ga  tau(  99) = (  -0.0000001   0.4618803   0.9776544  )
       100           Ga  tau( 100) = (  -0.1000001   0.6350854   0.3257027  )
       101           Ga  tau( 101) = (  -0.1000001   0.6350854   0.6516786  )
       102           Ga  tau( 102) = (  -0.1000001   0.6350854   0.9776544  )
       103           Ga  tau( 103) = (  -0.2000001   0.8082905   0.3257027  )
       104           Ga  tau( 104) = (  -0.2000001   0.8082905   0.6516786  )
       105           Ga  tau( 105) = (  -0.2000001   0.8082905   0.9776544  )
       106           Ga  tau( 106) = (   0.3999999   0.1154701   0.3257027  )
       107           Ga  tau( 107) = (   0.3999999   0.1154701   0.6516786  )
       108           Ga  tau( 108) = (   0.3999999   0.1154701   0.9776544  )
       109           Ga  tau( 109) = (   0.2999999   0.2886752   0.3257027  )
       110           Ga  tau( 110) = (   0.2999999   0.2886752   0.6516786  )
       111           Ga  tau( 111) = (   0.2999999   0.2886752   0.9776544  )
       112           Ga  tau( 112) = (   0.1999999   0.4618803   0.3257027  )
       113           Ga  tau( 113) = (   0.1999999   0.4618803   0.6516786  )
       114           Ga  tau( 114) = (   0.1999999   0.4618803   0.9776544  )
       115           Ga  tau( 115) = (   0.0999999   0.6350854   0.3257027  )
       116           Ga  tau( 116) = (   0.0999999   0.6350854   0.6516786  )
       117           Ga  tau( 117) = (   0.0999999   0.6350854   0.9776544  )
       118           Ga  tau( 118) = (  -0.0000001   0.8082905   0.3257027  )
       119           Ga  tau( 119) = (  -0.0000001   0.8082905   0.6516786  )
       120           Ga  tau( 120) = (  -0.0000001   0.8082905   0.9776544  )
       121           Ga  tau( 121) = (   0.5999999   0.1154701   0.3257027  )
       122           Ga  tau( 122) = (   0.5999999   0.1154701   0.6516786  )
       123           Ga  tau( 123) = (   0.5999999   0.1154701   0.9776544  )
       124           Ga  tau( 124) = (   0.4999999   0.2886752   0.3257027  )
       125           Ga  tau( 125) = (   0.4999999   0.2886752   0.6516786  )
       126           Ga  tau( 126) = (   0.4999999   0.2886752   0.9776544  )
       127           Ga  tau( 127) = (   0.3999999   0.4618803   0.3257027  )
       128           Ga  tau( 128) = (   0.3999999   0.4618803   0.6516786  )
       129           Ga  tau( 129) = (   0.3999999   0.4618803   0.9776544  )
       130           Ga  tau( 130) = (   0.2999999   0.6350854   0.3257027  )
       131           Ga  tau( 131) = (   0.2999999   0.6350854   0.6516786  )
       132           Ga  tau( 132) = (   0.2999999   0.6350854   0.9776544  )
       133           Ga  tau( 133) = (   0.1999999   0.8082905   0.3257027  )
       134           Ga  tau( 134) = (   0.1999999   0.8082905   0.6516786  )
       135           Ga  tau( 135) = (   0.1999999   0.8082905   0.9776544  )
       136           Ga  tau( 136) = (   0.7999999   0.1154701   0.3257027  )
       137           Ga  tau( 137) = (   0.7999999   0.1154701   0.6516786  )
       138           Ga  tau( 138) = (   0.7999999   0.1154701   0.9776544  )
       139           Ga  tau( 139) = (   0.6999999   0.2886752   0.3257027  )
       140           Ga  tau( 140) = (   0.6999999   0.2886752   0.6516786  )
       141           Ga  tau( 141) = (   0.6999999   0.2886752   0.9776544  )
       142           Ga  tau( 142) = (   0.5999999   0.4618803   0.3257027  )
       143           Ga  tau( 143) = (   0.5999999   0.4618803   0.6516786  )
       144           Ga  tau( 144) = (   0.5999999   0.4618803   0.9776544  )
       145           Ga  tau( 145) = (   0.4999999   0.6350854   0.3257027  )
       146           Ga  tau( 146) = (   0.4999999   0.6350854   0.6516786  )
       147           Ga  tau( 147) = (   0.4999999   0.6350854   0.9776544  )
       148           Ga  tau( 148) = (   0.3999999   0.8082905   0.3257027  )
       149           Ga  tau( 149) = (   0.3999999   0.8082905   0.6516786  )
       150           Ga  tau( 150) = (   0.3999999   0.8082905   0.9776544  )
       151           N   tau( 151) = (   0.1000001   0.0577350   0.6114777  )
       152           N   tau( 152) = (   0.1000001   0.0577350   0.9374535  )
       153           N   tau( 153) = (   0.0000001   0.2309401   0.2855019  )
       154           N   tau( 154) = (   0.0000001   0.2309401   0.6114777  )
       155           N   tau( 155) = (   0.0000001   0.2309401   0.9374535  )
       156           N   tau( 156) = (  -0.0999999   0.4041451   0.2855019  )
       157           N   tau( 157) = (  -0.0999999   0.4041451   0.6114777  )
       158           N   tau( 158) = (  -0.0999999   0.4041451   0.9374535  )
       159           N   tau( 159) = (  -0.1999999   0.5773502   0.2855019  )
       160           N   tau( 160) = (  -0.1999999   0.5773502   0.6114777  )
       161           N   tau( 161) = (  -0.1999999   0.5773502   0.9374535  )
       162           N   tau( 162) = (  -0.2999999   0.7505553   0.2855019  )
       163           N   tau( 163) = (  -0.2999999   0.7505553   0.6114777  )
       164           N   tau( 164) = (  -0.2999999   0.7505553   0.9374535  )
       165           N   tau( 165) = (   0.3000001   0.0577350   0.2855019  )
       166           N   tau( 166) = (   0.3000001   0.0577350   0.6114777  )
       167           N   tau( 167) = (   0.3000001   0.0577350   0.9374535  )
       168           N   tau( 168) = (   0.2000001   0.2309401   0.2855019  )
       169           N   tau( 169) = (   0.2000001   0.2309401   0.6114777  )
       170           N   tau( 170) = (   0.2000001   0.2309401   0.9374535  )
       171           N   tau( 171) = (   0.1000001   0.4041451   0.2855019  )
       172           N   tau( 172) = (   0.1000001   0.4041451   0.6114777  )
       173           N   tau( 173) = (   0.1000001   0.4041451   0.9374535  )
       174           N   tau( 174) = (   0.0000001   0.5773502   0.2855019  )
       175           N   tau( 175) = (   0.0000001   0.5773502   0.6114777  )
       176           N   tau( 176) = (   0.0000001   0.5773502   0.9374535  )
       177           N   tau( 177) = (  -0.0999999   0.7505553   0.2855019  )
       178           N   tau( 178) = (  -0.0999999   0.7505553   0.6114777  )
       179           N   tau( 179) = (  -0.0999999   0.7505553   0.9374535  )
       180           N   tau( 180) = (   0.5000001   0.0577350   0.2855019  )
       181           N   tau( 181) = (   0.5000001   0.0577350   0.6114777  )
       182           N   tau( 182) = (   0.5000001   0.0577350   0.9374535  )
       183           N   tau( 183) = (   0.4000001   0.2309401   0.2855019  )
       184           N   tau( 184) = (   0.4000001   0.2309401   0.6114777  )
       185           N   tau( 185) = (   0.4000001   0.2309401   0.9374535  )
       186           N   tau( 186) = (   0.3000001   0.4041451   0.2855019  )
       187           N   tau( 187) = (   0.3000001   0.4041451   0.6114777  )
       188           N   tau( 188) = (   0.3000001   0.4041451   0.9374535  )
       189           N   tau( 189) = (   0.2000001   0.5773502   0.2855019  )
       190           N   tau( 190) = (   0.2000001   0.5773502   0.6114777  )
       191           N   tau( 191) = (   0.2000001   0.5773502   0.9374535  )
       192           N   tau( 192) = (   0.1000001   0.7505553   0.2855019  )
       193           N   tau( 193) = (   0.1000001   0.7505553   0.6114777  )
       194           N   tau( 194) = (   0.1000001   0.7505553   0.9374535  )
       195           N   tau( 195) = (   0.7000001   0.0577350   0.2855019  )
       196           N   tau( 196) = (   0.7000001   0.0577350   0.6114777  )
       197           N   tau( 197) = (   0.7000001   0.0577350   0.9374535  )
       198           N   tau( 198) = (   0.6000001   0.2309401   0.2855019  )
       199           N   tau( 199) = (   0.6000001   0.2309401   0.6114777  )
       200           N   tau( 200) = (   0.6000001   0.2309401   0.9374535  )
       201           N   tau( 201) = (   0.5000001   0.4041451   0.2855019  )
       202           N   tau( 202) = (   0.5000001   0.4041451   0.6114777  )
       203           N   tau( 203) = (   0.5000001   0.4041451   0.9374535  )
       204           N   tau( 204) = (   0.4000001   0.5773502   0.2855019  )
       205           N   tau( 205) = (   0.4000001   0.5773502   0.6114777  )
       206           N   tau( 206) = (   0.4000001   0.5773502   0.9374535  )
       207           N   tau( 207) = (   0.3000001   0.7505553   0.2855019  )
       208           N   tau( 208) = (   0.3000001   0.7505553   0.6114777  )
       209           N   tau( 209) = (   0.3000001   0.7505553   0.9374535  )
       210           N   tau( 210) = (   0.9000001   0.0577350   0.2855019  )
       211           N   tau( 211) = (   0.9000001   0.0577350   0.6114777  )
       212           N   tau( 212) = (   0.9000001   0.0577350   0.9374535  )
       213           N   tau( 213) = (   0.8000001   0.2309401   0.2855019  )
       214           N   tau( 214) = (   0.8000001   0.2309401   0.6114777  )
       215           N   tau( 215) = (   0.8000001   0.2309401   0.9374535  )
       216           N   tau( 216) = (   0.7000001   0.4041451   0.2855019  )
       217           N   tau( 217) = (   0.7000001   0.4041451   0.6114777  )
       218           N   tau( 218) = (   0.7000001   0.4041451   0.9374535  )
       219           N   tau( 219) = (   0.6000001   0.5773502   0.2855019  )
       220           N   tau( 220) = (   0.6000001   0.5773502   0.6114777  )
       221           N   tau( 221) = (   0.6000001   0.5773502   0.9374535  )
       222           N   tau( 222) = (   0.5000001   0.7505553   0.2855019  )
       223           N   tau( 223) = (   0.5000001   0.7505553   0.6114777  )
       224           N   tau( 224) = (   0.5000001   0.7505553   0.9374535  )
       225           N   tau( 225) = (  -0.0000001   0.1154701   0.1225140  )
       226           N   tau( 226) = (  -0.0000001   0.1154701   0.4484898  )
       227           N   tau( 227) = (  -0.0000001   0.1154701   0.7744656  )
       228           N   tau( 228) = (  -0.1000001   0.2886752   0.1225140  )
       229           N   tau( 229) = (  -0.1000001   0.2886752   0.4484898  )
       230           N   tau( 230) = (  -0.1000001   0.2886752   0.7744656  )
       231           N   tau( 231) = (  -0.2000001   0.4618803   0.1225140  )
       232           N   tau( 232) = (  -0.2000001   0.4618803   0.4484898  )
       233           N   tau( 233) = (  -0.2000001   0.4618803   0.7744656  )
       234           N   tau( 234) = (  -0.3000001   0.6350854   0.1225140  )
       235           N   tau( 235) = (  -0.3000001   0.6350854   0.4484898  )
       236           N   tau( 236) = (  -0.3000001   0.6350854   0.7744656  )
       237           N   tau( 237) = (  -0.4000001   0.8082905   0.1225140  )
       238           N   tau( 238) = (  -0.4000001   0.8082905   0.4484898  )
       239           N   tau( 239) = (  -0.4000001   0.8082905   0.7744656  )
       240           N   tau( 240) = (   0.1999999   0.1154701   0.1225140  )
       241           N   tau( 241) = (   0.1999999   0.1154701   0.4484898  )
       242           N   tau( 242) = (   0.1999999   0.1154701   0.7744656  )
       243           N   tau( 243) = (   0.0999999   0.2886752   0.1225140  )
       244           N   tau( 244) = (   0.0999999   0.2886752   0.4484898  )
       245           N   tau( 245) = (   0.0999999   0.2886752   0.7744656  )
       246           N   tau( 246) = (  -0.0000001   0.4618803   0.1225140  )
       247           N   tau( 247) = (  -0.0000001   0.4618803   0.4484898  )
       248           N   tau( 248) = (  -0.0000001   0.4618803   0.7744656  )
       249           N   tau( 249) = (  -0.1000001   0.6350854   0.1225140  )
       250           N   tau( 250) = (  -0.1000001   0.6350854   0.4484898  )
       251           N   tau( 251) = (  -0.1000001   0.6350854   0.7744656  )
       252           N   tau( 252) = (  -0.2000001   0.8082905   0.1225140  )
       253           N   tau( 253) = (  -0.2000001   0.8082905   0.4484898  )
       254           N   tau( 254) = (  -0.2000001   0.8082905   0.7744656  )
       255           N   tau( 255) = (   0.3999999   0.1154701   0.1225140  )
       256           N   tau( 256) = (   0.3999999   0.1154701   0.4484898  )
       257           N   tau( 257) = (   0.3999999   0.1154701   0.7744656  )
       258           N   tau( 258) = (   0.2999999   0.2886752   0.1225140  )
       259           N   tau( 259) = (   0.2999999   0.2886752   0.4484898  )
       260           N   tau( 260) = (   0.2999999   0.2886752   0.7744656  )
       261           N   tau( 261) = (   0.1999999   0.4618803   0.1225140  )
       262           N   tau( 262) = (   0.1999999   0.4618803   0.4484898  )
       263           N   tau( 263) = (   0.1999999   0.4618803   0.7744656  )
       264           N   tau( 264) = (   0.0999999   0.6350854   0.1225140  )
       265           N   tau( 265) = (   0.0999999   0.6350854   0.4484898  )
       266           N   tau( 266) = (   0.0999999   0.6350854   0.7744656  )
       267           N   tau( 267) = (  -0.0000001   0.8082905   0.1225140  )
       268           N   tau( 268) = (  -0.0000001   0.8082905   0.4484898  )
       269           N   tau( 269) = (  -0.0000001   0.8082905   0.7744656  )
       270           N   tau( 270) = (   0.5999999   0.1154701   0.1225140  )
       271           N   tau( 271) = (   0.5999999   0.1154701   0.4484898  )
       272           N   tau( 272) = (   0.5999999   0.1154701   0.7744656  )
       273           N   tau( 273) = (   0.4999999   0.2886752   0.1225140  )
       274           N   tau( 274) = (   0.4999999   0.2886752   0.4484898  )
       275           N   tau( 275) = (   0.4999999   0.2886752   0.7744656  )
       276           N   tau( 276) = (   0.3999999   0.4618803   0.1225140  )
       277           N   tau( 277) = (   0.3999999   0.4618803   0.4484898  )
       278           N   tau( 278) = (   0.3999999   0.4618803   0.7744656  )
       279           N   tau( 279) = (   0.2999999   0.6350854   0.1225140  )
       280           N   tau( 280) = (   0.2999999   0.6350854   0.4484898  )
       281           N   tau( 281) = (   0.2999999   0.6350854   0.7744656  )
       282           N   tau( 282) = (   0.1999999   0.8082905   0.1225140  )
       283           N   tau( 283) = (   0.1999999   0.8082905   0.4484898  )
       284           N   tau( 284) = (   0.1999999   0.8082905   0.7744656  )
       285           N   tau( 285) = (   0.7999999   0.1154701   0.1225140  )
       286           N   tau( 286) = (   0.7999999   0.1154701   0.4484898  )
       287           N   tau( 287) = (   0.7999999   0.1154701   0.7744656  )
       288           N   tau( 288) = (   0.6999999   0.2886752   0.1225140  )
       289           N   tau( 289) = (   0.6999999   0.2886752   0.4484898  )
       290           N   tau( 290) = (   0.6999999   0.2886752   0.7744656  )
       291           N   tau( 291) = (   0.5999999   0.4618803   0.1225140  )
       292           N   tau( 292) = (   0.5999999   0.4618803   0.4484898  )
       293           N   tau( 293) = (   0.5999999   0.4618803   0.7744656  )
       294           N   tau( 294) = (   0.4999999   0.6350854   0.1225140  )
       295           N   tau( 295) = (   0.4999999   0.6350854   0.4484898  )
       296           N   tau( 296) = (   0.4999999   0.6350854   0.7744656  )
       297           N   tau( 297) = (   0.3999999   0.8082905   0.1225140  )
       298           N   tau( 298) = (   0.3999999   0.8082905   0.4484898  )
       299           N   tau( 299) = (   0.3999999   0.8082905   0.7744656  )
       300           Ga  tau( 300) = (   0.1000001   0.0577350   0.2855019  )

   Crystallographic axes

     site n.     atom                  positions (cryst. coord.)
         1           Ga  tau(   1) = (  0.1333334  0.0666666  0.1663874  )
         2           Ga  tau(   2) = (  0.1333334  0.0666666  0.4997208  )
         3           Ga  tau(   3) = (  0.1333334  0.0666666  0.8330541  )
         4           Ga  tau(   4) = (  0.1333334  0.2666666  0.1663874  )
         5           Ga  tau(   5) = (  0.1333334  0.2666666  0.4997208  )
         6           Ga  tau(   6) = (  0.1333334  0.2666666  0.8330541  )
         7           Ga  tau(   7) = (  0.1333334  0.4666666  0.1663874  )
         8           Ga  tau(   8) = (  0.1333334  0.4666666  0.4997208  )
         9           Ga  tau(   9) = (  0.1333334  0.4666666  0.8330541  )
        10           Ga  tau(  10) = (  0.1333334  0.6666666  0.1663874  )
        11           Ga  tau(  11) = (  0.1333334  0.6666666  0.4997208  )
        12           Ga  tau(  12) = (  0.1333334  0.6666666  0.8330541  )
        13           Ga  tau(  13) = (  0.1333334  0.8666666  0.1663874  )
        14           Ga  tau(  14) = (  0.1333334  0.8666666  0.4997208  )
        15           Ga  tau(  15) = (  0.1333334  0.8666666  0.8330541  )
        16           Ga  tau(  16) = (  0.3333334  0.0666666  0.1663874  )
        17           Ga  tau(  17) = (  0.3333334  0.0666666  0.4997208  )
        18           Ga  tau(  18) = (  0.3333334  0.0666666  0.8330541  )
        19           Ga  tau(  19) = (  0.3333334  0.2666666  0.1663874  )
        20           Ga  tau(  20) = (  0.3333334  0.2666666  0.4997208  )
        21           Ga  tau(  21) = (  0.3333334  0.2666666  0.8330541  )
        22           Ga  tau(  22) = (  0.3333334  0.4666666  0.1663874  )
        23           Ga  tau(  23) = (  0.3333334  0.4666666  0.4997208  )
        24           Ga  tau(  24) = (  0.3333334  0.4666666  0.8330541  )
        25           Ga  tau(  25) = (  0.3333334  0.6666666  0.1663874  )
        26           Ga  tau(  26) = (  0.3333334  0.6666666  0.4997208  )
        27           Ga  tau(  27) = (  0.3333334  0.6666666  0.8330541  )
        28           Ga  tau(  28) = (  0.3333334  0.8666666  0.1663874  )
        29           Ga  tau(  29) = (  0.3333334  0.8666666  0.4997208  )
        30           Ga  tau(  30) = (  0.3333334  0.8666666  0.8330541  )
        31           Ga  tau(  31) = (  0.5333334  0.0666666  0.1663874  )
        32           Ga  tau(  32) = (  0.5333334  0.0666666  0.4997208  )
        33           Ga  tau(  33) = (  0.5333334  0.0666666  0.8330541  )
        34           Ga  tau(  34) = (  0.5333334  0.2666666  0.1663874  )
        35           Ga  tau(  35) = (  0.5333334  0.2666666  0.4997208  )
        36           Ga  tau(  36) = (  0.5333334  0.2666666  0.8330541  )
        37           Ga  tau(  37) = (  0.5333334  0.4666666  0.1663874  )
        38           Ga  tau(  38) = (  0.5333334  0.4666666  0.4997208  )
        39           Ga  tau(  39) = (  0.5333334  0.4666666  0.8330541  )
        40           Ga  tau(  40) = (  0.5333334  0.6666666  0.1663874  )
        41           Ga  tau(  41) = (  0.5333334  0.6666666  0.4997208  )
        42           Ga  tau(  42) = (  0.5333334  0.6666666  0.8330541  )
        43           Ga  tau(  43) = (  0.5333334  0.8666666  0.1663874  )
        44           Ga  tau(  44) = (  0.5333334  0.8666666  0.4997208  )
        45           Ga  tau(  45) = (  0.5333334  0.8666666  0.8330541  )
        46           Ga  tau(  46) = (  0.7333334  0.0666666  0.1663874  )
        47           Ga  tau(  47) = (  0.7333334  0.0666666  0.4997208  )
        48           Ga  tau(  48) = (  0.7333334  0.0666666  0.8330541  )
        49           Ga  tau(  49) = (  0.7333334  0.2666666  0.1663874  )
        50           Ga  tau(  50) = (  0.7333334  0.2666666  0.4997208  )
        51           Ga  tau(  51) = (  0.7333334  0.2666666  0.8330541  )
        52           Ga  tau(  52) = (  0.7333334  0.4666666  0.1663874  )
        53           Ga  tau(  53) = (  0.7333334  0.4666666  0.4997208  )
        54           Ga  tau(  54) = (  0.7333334  0.4666666  0.8330541  )
        55           Ga  tau(  55) = (  0.7333334  0.6666666  0.1663874  )
        56           Ga  tau(  56) = (  0.7333334  0.6666666  0.4997208  )
        57           Ga  tau(  57) = (  0.7333334  0.6666666  0.8330541  )
        58           Ga  tau(  58) = (  0.7333334  0.8666666  0.1663874  )
        59           Ga  tau(  59) = (  0.7333334  0.8666666  0.4997208  )
        60           Ga  tau(  60) = (  0.7333334  0.8666666  0.8330541  )
        61           Ga  tau(  61) = (  0.9333334  0.0666666  0.1663874  )
        62           Ga  tau(  62) = (  0.9333334  0.0666666  0.4997208  )
        63           Ga  tau(  63) = (  0.9333334  0.0666666  0.8330541  )
        64           Ga  tau(  64) = (  0.9333334  0.2666666  0.1663874  )
        65           Ga  tau(  65) = (  0.9333334  0.2666666  0.4997208  )
        66           Ga  tau(  66) = (  0.9333334  0.2666666  0.8330541  )
        67           Ga  tau(  67) = (  0.9333334  0.4666666  0.1663874  )
        68           Ga  tau(  68) = (  0.9333334  0.4666666  0.4997208  )
        69           Ga  tau(  69) = (  0.9333334  0.4666666  0.8330541  )
        70           Ga  tau(  70) = (  0.9333334  0.6666666  0.1663874  )
        71           Ga  tau(  71) = (  0.9333334  0.6666666  0.4997208  )
        72           Ga  tau(  72) = (  0.9333334  0.6666666  0.8330541  )
        73           Ga  tau(  73) = (  0.9333334  0.8666666  0.1663874  )
        74           Ga  tau(  74) = (  0.9333334  0.8666666  0.4997208  )
        75           Ga  tau(  75) = (  0.9333334  0.8666666  0.8330541  )
        76           Ga  tau(  76) = (  0.0666666  0.1333334  0.3330541  )
        77           Ga  tau(  77) = (  0.0666666  0.1333334  0.6663874  )
        78           Ga  tau(  78) = (  0.0666666  0.1333334  0.9997208  )
        79           Ga  tau(  79) = (  0.0666666  0.3333334  0.3330541  )
        80           Ga  tau(  80) = (  0.0666666  0.3333334  0.6663874  )
        81           Ga  tau(  81) = (  0.0666666  0.3333334  0.9997208  )
        82           Ga  tau(  82) = (  0.0666666  0.5333334  0.3330541  )
        83           Ga  tau(  83) = (  0.0666666  0.5333334  0.6663874  )
        84           Ga  tau(  84) = (  0.0666666  0.5333334  0.9997208  )
        85           Ga  tau(  85) = (  0.0666666  0.7333334  0.3330541  )
        86           Ga  tau(  86) = (  0.0666666  0.7333334  0.6663874  )
        87           Ga  tau(  87) = (  0.0666666  0.7333334  0.9997208  )
        88           Ga  tau(  88) = (  0.0666666  0.9333334  0.3330541  )
        89           Ga  tau(  89) = (  0.0666666  0.9333334  0.6663874  )
        90           Ga  tau(  90) = (  0.0666666  0.9333334  0.9997208  )
        91           Ga  tau(  91) = (  0.2666666  0.1333334  0.3330541  )
        92           Ga  tau(  92) = (  0.2666666  0.1333334  0.6663874  )
        93           Ga  tau(  93) = (  0.2666666  0.1333334  0.9997208  )
        94           Ga  tau(  94) = (  0.2666666  0.3333334  0.3330541  )
        95           Ga  tau(  95) = (  0.2666666  0.3333334  0.6663874  )
        96           Ga  tau(  96) = (  0.2666666  0.3333334  0.9997208  )
        97           Ga  tau(  97) = (  0.2666666  0.5333334  0.3330541  )
        98           Ga  tau(  98) = (  0.2666666  0.5333334  0.6663874  )
        99           Ga  tau(  99) = (  0.2666666  0.5333334  0.9997208  )
       100           Ga  tau( 100) = (  0.2666666  0.7333334  0.3330541  )
       101           Ga  tau( 101) = (  0.2666666  0.7333334  0.6663874  )
       102           Ga  tau( 102) = (  0.2666666  0.7333334  0.9997208  )
       103           Ga  tau( 103) = (  0.2666666  0.9333334  0.3330541  )
       104           Ga  tau( 104) = (  0.2666666  0.9333334  0.6663874  )
       105           Ga  tau( 105) = (  0.2666666  0.9333334  0.9997208  )
       106           Ga  tau( 106) = (  0.4666666  0.1333334  0.3330541  )
       107           Ga  tau( 107) = (  0.4666666  0.1333334  0.6663874  )
       108           Ga  tau( 108) = (  0.4666666  0.1333334  0.9997208  )
       109           Ga  tau( 109) = (  0.4666666  0.3333334  0.3330541  )
       110           Ga  tau( 110) = (  0.4666666  0.3333334  0.6663874  )
       111           Ga  tau( 111) = (  0.4666666  0.3333334  0.9997208  )
       112           Ga  tau( 112) = (  0.4666666  0.5333334  0.3330541  )
       113           Ga  tau( 113) = (  0.4666666  0.5333334  0.6663874  )
       114           Ga  tau( 114) = (  0.4666666  0.5333334  0.9997208  )
       115           Ga  tau( 115) = (  0.4666666  0.7333334  0.3330541  )
       116           Ga  tau( 116) = (  0.4666666  0.7333334  0.6663874  )
       117           Ga  tau( 117) = (  0.4666666  0.7333334  0.9997208  )
       118           Ga  tau( 118) = (  0.4666666  0.9333334  0.3330541  )
       119           Ga  tau( 119) = (  0.4666666  0.9333334  0.6663874  )
       120           Ga  tau( 120) = (  0.4666666  0.9333334  0.9997208  )
       121           Ga  tau( 121) = (  0.6666666  0.1333334  0.3330541  )
       122           Ga  tau( 122) = (  0.6666666  0.1333334  0.6663874  )
       123           Ga  tau( 123) = (  0.6666666  0.1333334  0.9997208  )
       124           Ga  tau( 124) = (  0.6666666  0.3333334  0.3330541  )
       125           Ga  tau( 125) = (  0.6666666  0.3333334  0.6663874  )
       126           Ga  tau( 126) = (  0.6666666  0.3333334  0.9997208  )
       127           Ga  tau( 127) = (  0.6666666  0.5333334  0.3330541  )
       128           Ga  tau( 128) = (  0.6666666  0.5333334  0.6663874  )
       129           Ga  tau( 129) = (  0.6666666  0.5333334  0.9997208  )
       130           Ga  tau( 130) = (  0.6666666  0.7333334  0.3330541  )
       131           Ga  tau( 131) = (  0.6666666  0.7333334  0.6663874  )
       132           Ga  tau( 132) = (  0.6666666  0.7333334  0.9997208  )
       133           Ga  tau( 133) = (  0.6666666  0.9333334  0.3330541  )
       134           Ga  tau( 134) = (  0.6666666  0.9333334  0.6663874  )
       135           Ga  tau( 135) = (  0.6666666  0.9333334  0.9997208  )
       136           Ga  tau( 136) = (  0.8666666  0.1333334  0.3330541  )
       137           Ga  tau( 137) = (  0.8666666  0.1333334  0.6663874  )
       138           Ga  tau( 138) = (  0.8666666  0.1333334  0.9997208  )
       139           Ga  tau( 139) = (  0.8666666  0.3333334  0.3330541  )
       140           Ga  tau( 140) = (  0.8666666  0.3333334  0.6663874  )
       141           Ga  tau( 141) = (  0.8666666  0.3333334  0.9997208  )
       142           Ga  tau( 142) = (  0.8666666  0.5333334  0.3330541  )
       143           Ga  tau( 143) = (  0.8666666  0.5333334  0.6663874  )
       144           Ga  tau( 144) = (  0.8666666  0.5333334  0.9997208  )
       145           Ga  tau( 145) = (  0.8666666  0.7333334  0.3330541  )
       146           Ga  tau( 146) = (  0.8666666  0.7333334  0.6663874  )
       147           Ga  tau( 147) = (  0.8666666  0.7333334  0.9997208  )
       148           Ga  tau( 148) = (  0.8666666  0.9333334  0.3330541  )
       149           Ga  tau( 149) = (  0.8666666  0.9333334  0.6663874  )
       150           Ga  tau( 150) = (  0.8666666  0.9333334  0.9997208  )
       151           N   tau( 151) = (  0.1333334  0.0666666  0.6252792  )
       152           N   tau( 152) = (  0.1333334  0.0666666  0.9586126  )
       153           N   tau( 153) = (  0.1333334  0.2666666  0.2919459  )
       154           N   tau( 154) = (  0.1333334  0.2666666  0.6252792  )
       155           N   tau( 155) = (  0.1333334  0.2666666  0.9586126  )
       156           N   tau( 156) = (  0.1333334  0.4666666  0.2919459  )
       157           N   tau( 157) = (  0.1333334  0.4666666  0.6252792  )
       158           N   tau( 158) = (  0.1333334  0.4666666  0.9586126  )
       159           N   tau( 159) = (  0.1333334  0.6666666  0.2919459  )
       160           N   tau( 160) = (  0.1333334  0.6666666  0.6252792  )
       161           N   tau( 161) = (  0.1333334  0.6666666  0.9586126  )
       162           N   tau( 162) = (  0.1333334  0.8666666  0.2919459  )
       163           N   tau( 163) = (  0.1333334  0.8666666  0.6252792  )
       164           N   tau( 164) = (  0.1333334  0.8666666  0.9586126  )
       165           N   tau( 165) = (  0.3333334  0.0666666  0.2919459  )
       166           N   tau( 166) = (  0.3333334  0.0666666  0.6252792  )
       167           N   tau( 167) = (  0.3333334  0.0666666  0.9586126  )
       168           N   tau( 168) = (  0.3333334  0.2666666  0.2919459  )
       169           N   tau( 169) = (  0.3333334  0.2666666  0.6252792  )
       170           N   tau( 170) = (  0.3333334  0.2666666  0.9586126  )
       171           N   tau( 171) = (  0.3333334  0.4666666  0.2919459  )
       172           N   tau( 172) = (  0.3333334  0.4666666  0.6252792  )
       173           N   tau( 173) = (  0.3333334  0.4666666  0.9586126  )
       174           N   tau( 174) = (  0.3333334  0.6666666  0.2919459  )
       175           N   tau( 175) = (  0.3333334  0.6666666  0.6252792  )
       176           N   tau( 176) = (  0.3333334  0.6666666  0.9586126  )
       177           N   tau( 177) = (  0.3333334  0.8666666  0.2919459  )
       178           N   tau( 178) = (  0.3333334  0.8666666  0.6252792  )
       179           N   tau( 179) = (  0.3333334  0.8666666  0.9586126  )
       180           N   tau( 180) = (  0.5333334  0.0666666  0.2919459  )
       181           N   tau( 181) = (  0.5333334  0.0666666  0.6252792  )
       182           N   tau( 182) = (  0.5333334  0.0666666  0.9586126  )
       183           N   tau( 183) = (  0.5333334  0.2666666  0.2919459  )
       184           N   tau( 184) = (  0.5333334  0.2666666  0.6252792  )
       185           N   tau( 185) = (  0.5333334  0.2666666  0.9586126  )
       186           N   tau( 186) = (  0.5333334  0.4666666  0.2919459  )
       187           N   tau( 187) = (  0.5333334  0.4666666  0.6252792  )
       188           N   tau( 188) = (  0.5333334  0.4666666  0.9586126  )
       189           N   tau( 189) = (  0.5333334  0.6666666  0.2919459  )
       190           N   tau( 190) = (  0.5333334  0.6666666  0.6252792  )
       191           N   tau( 191) = (  0.5333334  0.6666666  0.9586126  )
       192           N   tau( 192) = (  0.5333334  0.8666666  0.2919459  )
       193           N   tau( 193) = (  0.5333334  0.8666666  0.6252792  )
       194           N   tau( 194) = (  0.5333334  0.8666666  0.9586126  )
       195           N   tau( 195) = (  0.7333334  0.0666666  0.2919459  )
       196           N   tau( 196) = (  0.7333334  0.0666666  0.6252792  )
       197           N   tau( 197) = (  0.7333334  0.0666666  0.9586126  )
       198           N   tau( 198) = (  0.7333334  0.2666666  0.2919459  )
       199           N   tau( 199) = (  0.7333334  0.2666666  0.6252792  )
       200           N   tau( 200) = (  0.7333334  0.2666666  0.9586126  )
       201           N   tau( 201) = (  0.7333334  0.4666666  0.2919459  )
       202           N   tau( 202) = (  0.7333334  0.4666666  0.6252792  )
       203           N   tau( 203) = (  0.7333334  0.4666666  0.9586126  )
       204           N   tau( 204) = (  0.7333334  0.6666666  0.2919459  )
       205           N   tau( 205) = (  0.7333334  0.6666666  0.6252792  )
       206           N   tau( 206) = (  0.7333334  0.6666666  0.9586126  )
       207           N   tau( 207) = (  0.7333334  0.8666666  0.2919459  )
       208           N   tau( 208) = (  0.7333334  0.8666666  0.6252792  )
       209           N   tau( 209) = (  0.7333334  0.8666666  0.9586126  )
       210           N   tau( 210) = (  0.9333334  0.0666666  0.2919459  )
       211           N   tau( 211) = (  0.9333334  0.0666666  0.6252792  )
       212           N   tau( 212) = (  0.9333334  0.0666666  0.9586126  )
       213           N   tau( 213) = (  0.9333334  0.2666666  0.2919459  )
       214           N   tau( 214) = (  0.9333334  0.2666666  0.6252792  )
       215           N   tau( 215) = (  0.9333334  0.2666666  0.9586126  )
       216           N   tau( 216) = (  0.9333334  0.4666666  0.2919459  )
       217           N   tau( 217) = (  0.9333334  0.4666666  0.6252792  )
       218           N   tau( 218) = (  0.9333334  0.4666666  0.9586126  )
       219           N   tau( 219) = (  0.9333334  0.6666666  0.2919459  )
       220           N   tau( 220) = (  0.9333334  0.6666666  0.6252792  )
       221           N   tau( 221) = (  0.9333334  0.6666666  0.9586126  )
       222           N   tau( 222) = (  0.9333334  0.8666666  0.2919459  )
       223           N   tau( 223) = (  0.9333334  0.8666666  0.6252792  )
       224           N   tau( 224) = (  0.9333334  0.8666666  0.9586126  )
       225           N   tau( 225) = (  0.0666666  0.1333334  0.1252792  )
       226           N   tau( 226) = (  0.0666666  0.1333334  0.4586126  )
       227           N   tau( 227) = (  0.0666666  0.1333334  0.7919459  )
       228           N   tau( 228) = (  0.0666666  0.3333334  0.1252792  )
       229           N   tau( 229) = (  0.0666666  0.3333334  0.4586126  )
       230           N   tau( 230) = (  0.0666666  0.3333334  0.7919459  )
       231           N   tau( 231) = (  0.0666666  0.5333334  0.1252792  )
       232           N   tau( 232) = (  0.0666666  0.5333334  0.4586126  )
       233           N   tau( 233) = (  0.0666666  0.5333334  0.7919459  )
       234           N   tau( 234) = (  0.0666666  0.7333334  0.1252792  )
       235           N   tau( 235) = (  0.0666666  0.7333334  0.4586126  )
       236           N   tau( 236) = (  0.0666666  0.7333334  0.7919459  )
       237           N   tau( 237) = (  0.0666666  0.9333334  0.1252792  )
       238           N   tau( 238) = (  0.0666666  0.9333334  0.4586126  )
       239           N   tau( 239) = (  0.0666666  0.9333334  0.7919459  )
       240           N   tau( 240) = (  0.2666666  0.1333334  0.1252792  )
       241           N   tau( 241) = (  0.2666666  0.1333334  0.4586126  )
       242           N   tau( 242) = (  0.2666666  0.1333334  0.7919459  )
       243           N   tau( 243) = (  0.2666666  0.3333334  0.1252792  )
       244           N   tau( 244) = (  0.2666666  0.3333334  0.4586126  )
       245           N   tau( 245) = (  0.2666666  0.3333334  0.7919459  )
       246           N   tau( 246) = (  0.2666666  0.5333334  0.1252792  )
       247           N   tau( 247) = (  0.2666666  0.5333334  0.4586126  )
       248           N   tau( 248) = (  0.2666666  0.5333334  0.7919459  )
       249           N   tau( 249) = (  0.2666666  0.7333334  0.1252792  )
       250           N   tau( 250) = (  0.2666666  0.7333334  0.4586126  )
       251           N   tau( 251) = (  0.2666666  0.7333334  0.7919459  )
       252           N   tau( 252) = (  0.2666666  0.9333334  0.1252792  )
       253           N   tau( 253) = (  0.2666666  0.9333334  0.4586126  )
       254           N   tau( 254) = (  0.2666666  0.9333334  0.7919459  )
       255           N   tau( 255) = (  0.4666666  0.1333334  0.1252792  )
       256           N   tau( 256) = (  0.4666666  0.1333334  0.4586126  )
       257           N   tau( 257) = (  0.4666666  0.1333334  0.7919459  )
       258           N   tau( 258) = (  0.4666666  0.3333334  0.1252792  )
       259           N   tau( 259) = (  0.4666666  0.3333334  0.4586126  )
       260           N   tau( 260) = (  0.4666666  0.3333334  0.7919459  )
       261           N   tau( 261) = (  0.4666666  0.5333334  0.1252792  )
       262           N   tau( 262) = (  0.4666666  0.5333334  0.4586126  )
       263           N   tau( 263) = (  0.4666666  0.5333334  0.7919459  )
       264           N   tau( 264) = (  0.4666666  0.7333334  0.1252792  )
       265           N   tau( 265) = (  0.4666666  0.7333334  0.4586126  )
       266           N   tau( 266) = (  0.4666666  0.7333334  0.7919459  )
       267           N   tau( 267) = (  0.4666666  0.9333334  0.1252792  )
       268           N   tau( 268) = (  0.4666666  0.9333334  0.4586126  )
       269           N   tau( 269) = (  0.4666666  0.9333334  0.7919459  )
       270           N   tau( 270) = (  0.6666666  0.1333334  0.1252792  )
       271           N   tau( 271) = (  0.6666666  0.1333334  0.4586126  )
       272           N   tau( 272) = (  0.6666666  0.1333334  0.7919459  )
       273           N   tau( 273) = (  0.6666666  0.3333334  0.1252792  )
       274           N   tau( 274) = (  0.6666666  0.3333334  0.4586126  )
       275           N   tau( 275) = (  0.6666666  0.3333334  0.7919459  )
       276           N   tau( 276) = (  0.6666666  0.5333334  0.1252792  )
       277           N   tau( 277) = (  0.6666666  0.5333334  0.4586126  )
       278           N   tau( 278) = (  0.6666666  0.5333334  0.7919459  )
       279           N   tau( 279) = (  0.6666666  0.7333334  0.1252792  )
       280           N   tau( 280) = (  0.6666666  0.7333334  0.4586126  )
       281           N   tau( 281) = (  0.6666666  0.7333334  0.7919459  )
       282           N   tau( 282) = (  0.6666666  0.9333334  0.1252792  )
       283           N   tau( 283) = (  0.6666666  0.9333334  0.4586126  )
       284           N   tau( 284) = (  0.6666666  0.9333334  0.7919459  )
       285           N   tau( 285) = (  0.8666666  0.1333334  0.1252792  )
       286           N   tau( 286) = (  0.8666666  0.1333334  0.4586126  )
       287           N   tau( 287) = (  0.8666666  0.1333334  0.7919459  )
       288           N   tau( 288) = (  0.8666666  0.3333334  0.1252792  )
       289           N   tau( 289) = (  0.8666666  0.3333334  0.4586126  )
       290           N   tau( 290) = (  0.8666666  0.3333334  0.7919459  )
       291           N   tau( 291) = (  0.8666666  0.5333334  0.1252792  )
       292           N   tau( 292) = (  0.8666666  0.5333334  0.4586126  )
       293           N   tau( 293) = (  0.8666666  0.5333334  0.7919459  )
       294           N   tau( 294) = (  0.8666666  0.7333334  0.1252792  )
       295           N   tau( 295) = (  0.8666666  0.7333334  0.4586126  )
       296           N   tau( 296) = (  0.8666666  0.7333334  0.7919459  )
       297           N   tau( 297) = (  0.8666666  0.9333334  0.1252792  )
       298           N   tau( 298) = (  0.8666666  0.9333334  0.4586126  )
       299           N   tau( 299) = (  0.8666666  0.9333334  0.7919459  )
       300           Ga  tau( 300) = (  0.1333334  0.0666666  0.2919459  )

     number of k points=     6  Gaussian smearing, width (Ry)=  0.0100
                       cart. coord. in units 2pi/alat
        k(    1) = (   0.0000000   0.0000000   0.0000000), wk =   0.2500000
        k(    2) = (   0.0000000   0.0000000  -0.5112854), wk =   0.2500000
        k(    3) = (   0.0000000  -0.5773503   0.0000000), wk =   0.5000000
        k(    4) = (   0.0000000  -0.5773503  -0.5112854), wk =   0.5000000
        k(    5) = (  -0.5000000  -0.2886751   0.0000000), wk =   0.2500000
        k(    6) = (  -0.5000000  -0.2886751  -0.5112854), wk =   0.2500000

                       cryst. coord.
        k(    1) = (   0.0000000   0.0000000   0.0000000), wk =   0.2500000
        k(    2) = (   0.0000000   0.0000000  -0.5000000), wk =   0.2500000
        k(    3) = (   0.0000000  -0.5000000   0.0000000), wk =   0.5000000
        k(    4) = (   0.0000000  -0.5000000  -0.5000000), wk =   0.5000000
        k(    5) = (  -0.5000000  -0.0000000   0.0000000), wk =   0.2500000
        k(    6) = (  -0.5000000  -0.0000000  -0.5000000), wk =   0.2500000

     Dense  grid:  2698283 G-vectors     FFT dimensions: ( 192, 192, 180)

     Smooth grid:  1930731 G-vectors     FFT dimensions: ( 180, 180, 160)

     Dynamical RAM for                 wfc:      93.48 MB

     Dynamical RAM for     wfc (w. buffer):     280.44 MB

     Dynamical RAM for           str. fact:       1.29 MB

     Dynamical RAM for           local pot:       0.00 MB

     Dynamical RAM for          nlocal pot:     224.93 MB

     Dynamical RAM for                qrad:       3.00 MB

     Dynamical RAM for          rho,v,vnew:       4.46 MB

     Dynamical RAM for               rhoin:       1.49 MB

     Dynamical RAM for            rho*nmix:      10.29 MB

     Dynamical RAM for           G-vectors:       2.64 MB

     Dynamical RAM for          h,s,v(r/c):    1934.05 MB

     Dynamical RAM for          <psi|beta>:      96.95 MB

     Dynamical RAM for                 psi:     373.92 MB

     Dynamical RAM for                hpsi:     373.92 MB

     Dynamical RAM for                spsi:     373.92 MB

     Dynamical RAM for      wfcinit/wfcrot:     247.41 MB

     Dynamical RAM for           addusdens:      54.68 MB

     Dynamical RAM for          addusforce:     103.36 MB

     Dynamical RAM for         addusstress:      32.57 MB

     Estimated static dynamical RAM per process >     524.39 MB

     Estimated max dynamical RAM per process >       3.60 GB

     Estimated total dynamical RAM >     919.93 GB

     Atomic positions and unit cell read from directory:
     ./GaN.save/
     Atomic positions from file used, from input discarded
 

     Check: negative core charge=   -0.000003

     The initial density is read from file :
     ./GaN.save/charge-density



     %%%%%%%%%%%%%%%%%%%%%%%%%%%%%%%%%%%%%%%%%%%%%%%%%%%%%%%%%%%%%%%%%%%%%%%%
     %                                                                      %
     % You are using vdW-DF, which was implemented by the Thonhauser group. %
     % Please cite the following two papers that made this development      %
     % possible and the two reviews that describe the various versions:     %
     %                                                                      %
     %   T. Thonhauser et al., PRL 115, 136402 (2015).                      %
     %   T. Thonhauser et al., PRB 76, 125112 (2007).                       %
     %   K. Berland et al., Rep. Prog. Phys. 78, 066501 (2015).             %
     %   D.C. Langreth et al., J. Phys.: Condens. Matter 21, 084203 (2009). %
     %                                                                      %
     % If you are calculating stress with vdW-DF, please also cite:         %
     %                                                                      %
     %   R. Sabatini et al., J. Phys.: Condens. Matter 24, 424209 (2012).   %
     %                                                                      %
     %%%%%%%%%%%%%%%%%%%%%%%%%%%%%%%%%%%%%%%%%%%%%%%%%%%%%%%%%%%%%%%%%%%%%%%%

     %%%%%%%%%%%%%%%%%%%%%%%%%%%%%%%%%%%%%%%%%%%%%%%%%%%%%%%%%%%%%%%%%%%%%%%%
     %                                                                      %
     %  vdW-DF NEWS:                                                        %
     %                                                                      %
     %  * vdW-DF3 is now available. DOI: 10.1021/acs.jctc.0c00471           %
     %    use with input_dft = 'vdW-DF3-opt1' or 'vdW-DF3-opt2'             %
     %                                                                      %
     %  * Unscreened and range-separated vdW-DF hybrid functionals          %
     %    DOI: 10.1063/1.4986522 and 10.1088/1361-648X/ac2ad2               %
     %    use with input_dft = 'vdW-DF-cx0' (etc) and 'vdW-DF-ahcx'         %
     %                                                                      %
     %%%%%%%%%%%%%%%%%%%%%%%%%%%%%%%%%%%%%%%%%%%%%%%%%%%%%%%%%%%%%%%%%%%%%%%%


     Carrying out vdW-DF run using the following parameters:
     Nqs    =  20  Npoints =  1024  r_max =  100.000
     q_mesh =  0.00001000  0.04494208  0.09755937  0.15916263
               0.23128650  0.31572767  0.41458969  0.53033537
               0.66584808  0.82450364  1.01025438  1.22772762
               1.48234092  1.78043706  2.12944203  2.53805004
               3.01644009  3.57652955  4.23227104  5.00000000


     -----------------------------------------------
     Non-local corr. energy    =      82.12019147 Ry
     -----------------------------------------------

     Cannot read wfcs: file not found
     Starting wfcs are 1955 randomized atomic wfcs
     Checking if some PAW data can be deallocated... 
       PAW data deallocated on  149 nodes for type:  1
       PAW data deallocated on  107 nodes for type:  2

     total cpu time spent up to now is      117.7 secs

     Self-consistent Calculation

     iteration #  1     ecut=    70.00 Ry     beta= 0.70
     Davidson diagonalization with overlap

---- Real-time Memory Report at c_bands before calling an iterative solver
          1270 MiB given to the printing process from OS
             0 MiB allocation reported by mallinfo(arena+hblkhd)
       1654012 MiB available memory on the node where the printing process lives
------------------
     ethr =  1.00E-05,  avg # of iterations = 28.0


     -----------------------------------------------
     Non-local corr. energy    =      82.11136489 Ry
     -----------------------------------------------


     total cpu time spent up to now is     3812.6 secs

     total energy              =  -47090.21426835 Ry
     estimated scf accuracy    <      12.73892877 Ry

     iteration #  2     ecut=    70.00 Ry     beta= 0.70
     Davidson diagonalization with overlap

---- Real-time Memory Report at c_bands before calling an iterative solver
          3634 MiB given to the printing process from OS
             0 MiB allocation reported by mallinfo(arena+hblkhd)
       1654416 MiB available memory on the node where the printing process lives
------------------
     ethr =  4.70E-04,  avg # of iterations =  9.7


     -----------------------------------------------
     Non-local corr. energy    =      82.04246373 Ry
     -----------------------------------------------


     total cpu time spent up to now is     5276.1 secs

     total energy              =  -47018.66140947 Ry
     estimated scf accuracy    <    1111.47823965 Ry

     iteration #  3     ecut=    70.00 Ry     beta= 0.70
     Davidson diagonalization with overlap

---- Real-time Memory Report at c_bands before calling an iterative solver
          3634 MiB given to the printing process from OS
             0 MiB allocation reported by mallinfo(arena+hblkhd)
       1633831 MiB available memory on the node where the printing process lives
------------------
     ethr =  4.70E-04,  avg # of iterations = 10.0


     -----------------------------------------------
     Non-local corr. energy    =      82.03341704 Ry
     -----------------------------------------------


     total cpu time spent up to now is     7248.2 secs

     total energy              =  -47094.98582735 Ry
     estimated scf accuracy    <      13.11167376 Ry

     iteration #  4     ecut=    70.00 Ry     beta= 0.70
     Davidson diagonalization with overlap

---- Real-time Memory Report at c_bands before calling an iterative solver
          3634 MiB given to the printing process from OS
             0 MiB allocation reported by mallinfo(arena+hblkhd)
       1633702 MiB available memory on the node where the printing process lives
------------------
     ethr =  4.70E-04,  avg # of iterations =  9.0


     -----------------------------------------------
     Non-local corr. energy    =      82.04967573 Ry
     -----------------------------------------------


     total cpu time spent up to now is     8576.7 secs

     total energy              =  -47096.94738367 Ry
     estimated scf accuracy    <       7.00018574 Ry

     iteration #  5     ecut=    70.00 Ry     beta= 0.70
     Davidson diagonalization with overlap

---- Real-time Memory Report at c_bands before calling an iterative solver
          3634 MiB given to the printing process from OS
             0 MiB allocation reported by mallinfo(arena+hblkhd)
       1633551 MiB available memory on the node where the printing process lives
------------------
     ethr =  2.59E-04,  avg # of iterations = 12.5


     -----------------------------------------------
     Non-local corr. energy    =      82.06014436 Ry
     -----------------------------------------------


     total cpu time spent up to now is    10090.4 secs

     total energy              =  -47097.48898517 Ry
     estimated scf accuracy    <       1.27407870 Ry

     iteration #  6     ecut=    70.00 Ry     beta= 0.70
     Davidson diagonalization with overlap

---- Real-time Memory Report at c_bands before calling an iterative solver
          3634 MiB given to the printing process from OS
             0 MiB allocation reported by mallinfo(arena+hblkhd)
       1633386 MiB available memory on the node where the printing process lives
------------------
     c_bands:  1 eigenvalues not converged
     ethr =  4.70E-05,  avg # of iterations = 17.7


     -----------------------------------------------
     Non-local corr. energy    =      82.07859289 Ry
     -----------------------------------------------


     total cpu time spent up to now is    12255.7 secs

     total energy              =  -47097.51802990 Ry
     estimated scf accuracy    <       0.70514576 Ry

     iteration #  7     ecut=    70.00 Ry     beta= 0.70
     Davidson diagonalization with overlap

---- Real-time Memory Report at c_bands before calling an iterative solver
          3634 MiB given to the printing process from OS
             0 MiB allocation reported by mallinfo(arena+hblkhd)
       1633240 MiB available memory on the node where the printing process lives
------------------
     ethr =  2.60E-05,  avg # of iterations = 16.7


     -----------------------------------------------
     Non-local corr. energy    =      82.09945698 Ry
     -----------------------------------------------


     total cpu time spent up to now is    13985.6 secs

     total energy              =  -47097.49329776 Ry
     estimated scf accuracy    <       0.51919540 Ry

     iteration #  8     ecut=    70.00 Ry     beta= 0.70
     Davidson diagonalization with overlap

---- Real-time Memory Report at c_bands before calling an iterative solver
          3634 MiB given to the printing process from OS
             0 MiB allocation reported by mallinfo(arena+hblkhd)
       1633080 MiB available memory on the node where the printing process lives
------------------
     ethr =  1.92E-05,  avg # of iterations = 14.3


     -----------------------------------------------
     Non-local corr. energy    =      82.11100851 Ry
     -----------------------------------------------


     total cpu time spent up to now is    15503.6 secs

     total energy              =  -47097.48644477 Ry
     estimated scf accuracy    <       0.25211136 Ry

     iteration #  9     ecut=    70.00 Ry     beta= 0.70
     Davidson diagonalization with overlap

---- Real-time Memory Report at c_bands before calling an iterative solver
          3634 MiB given to the printing process from OS
             0 MiB allocation reported by mallinfo(arena+hblkhd)
       1632941 MiB available memory on the node where the printing process lives
------------------
     ethr =  9.31E-06,  avg # of iterations = 14.8


     -----------------------------------------------
     Non-local corr. energy    =      82.11224934 Ry
     -----------------------------------------------


     total cpu time spent up to now is    17139.7 secs

     total energy              =  -47097.48805734 Ry
     estimated scf accuracy    <       0.11469399 Ry

     iteration # 10     ecut=    70.00 Ry     beta= 0.70
     Davidson diagonalization with overlap

---- Real-time Memory Report at c_bands before calling an iterative solver
          3634 MiB given to the printing process from OS
             0 MiB allocation reported by mallinfo(arena+hblkhd)
       1632795 MiB available memory on the node where the printing process lives
------------------
     ethr =  4.24E-06,  avg # of iterations = 16.3


     -----------------------------------------------
     Non-local corr. energy    =      82.11418064 Ry
     -----------------------------------------------


     total cpu time spent up to now is    18704.7 secs

     total energy              =  -47097.48459748 Ry
     estimated scf accuracy    <       0.06475255 Ry

     iteration # 11     ecut=    70.00 Ry     beta= 0.70
     Davidson diagonalization with overlap

---- Real-time Memory Report at c_bands before calling an iterative solver
          3634 MiB given to the printing process from OS
             0 MiB allocation reported by mallinfo(arena+hblkhd)
       1632722 MiB available memory on the node where the printing process lives
------------------
     ethr =  2.39E-06,  avg # of iterations = 16.7


     -----------------------------------------------
     Non-local corr. energy    =      82.12247036 Ry
     -----------------------------------------------


     total cpu time spent up to now is    20511.2 secs

     total energy              =  -47097.48006830 Ry
     estimated scf accuracy    <       0.02907231 Ry

     iteration # 12     ecut=    70.00 Ry     beta= 0.70
     Davidson diagonalization with overlap

---- Real-time Memory Report at c_bands before calling an iterative solver
          3634 MiB given to the printing process from OS
             0 MiB allocation reported by mallinfo(arena+hblkhd)
       1632713 MiB available memory on the node where the printing process lives
------------------
     ethr =  1.07E-06,  avg # of iterations = 16.0


     -----------------------------------------------
     Non-local corr. energy    =      82.12212175 Ry
     -----------------------------------------------


     total cpu time spent up to now is    23261.3 secs

     total energy              =  -47097.48227828 Ry
     estimated scf accuracy    <       0.00968673 Ry

     iteration # 13     ecut=    70.00 Ry     beta= 0.70
     Davidson diagonalization with overlap

---- Real-time Memory Report at c_bands before calling an iterative solver
          3634 MiB given to the printing process from OS
             0 MiB allocation reported by mallinfo(arena+hblkhd)
       1632569 MiB available memory on the node where the printing process lives
------------------
     ethr =  3.58E-07,  avg # of iterations = 17.8


     -----------------------------------------------
     Non-local corr. energy    =      82.12241991 Ry
     -----------------------------------------------


     total cpu time spent up to now is    25778.7 secs

     total energy              =  -47097.48362623 Ry
     estimated scf accuracy    <       0.00240996 Ry

     iteration # 14     ecut=    70.00 Ry     beta= 0.70
     Davidson diagonalization with overlap

---- Real-time Memory Report at c_bands before calling an iterative solver
          3634 MiB given to the printing process from OS
             0 MiB allocation reported by mallinfo(arena+hblkhd)
       1632549 MiB available memory on the node where the printing process lives
------------------
     ethr =  8.90E-08,  avg # of iterations = 18.7


     -----------------------------------------------
     Non-local corr. energy    =      82.12305859 Ry
     -----------------------------------------------


     total cpu time spent up to now is    28667.6 secs

     total energy              =  -47097.48401911 Ry
     estimated scf accuracy    <       0.00086381 Ry

     iteration # 15     ecut=    70.00 Ry     beta= 0.70
     Davidson diagonalization with overlap

---- Real-time Memory Report at c_bands before calling an iterative solver
          3634 MiB given to the printing process from OS
             0 MiB allocation reported by mallinfo(arena+hblkhd)
       1632532 MiB available memory on the node where the printing process lives
------------------
     ethr =  3.19E-08,  avg # of iterations = 17.8


     -----------------------------------------------
     Non-local corr. energy    =      82.12395876 Ry
     -----------------------------------------------


     total cpu time spent up to now is    31257.2 secs

     total energy              =  -47097.48418561 Ry
     estimated scf accuracy    <       0.00007507 Ry

     iteration # 16     ecut=    70.00 Ry     beta= 0.70
     Davidson diagonalization with overlap

---- Real-time Memory Report at c_bands before calling an iterative solver
          3634 MiB given to the printing process from OS
             0 MiB allocation reported by mallinfo(arena+hblkhd)
       1632526 MiB available memory on the node where the printing process lives
------------------
     ethr =  2.77E-09,  avg # of iterations = 16.3


     -----------------------------------------------
     Non-local corr. energy    =      82.12412595 Ry
     -----------------------------------------------


     total cpu time spent up to now is    35105.4 secs

     total energy              =  -47097.48420491 Ry
     estimated scf accuracy    <       0.00010531 Ry

     iteration # 17     ecut=    70.00 Ry     beta= 0.70
     Davidson diagonalization with overlap

---- Real-time Memory Report at c_bands before calling an iterative solver
          3634 MiB given to the printing process from OS
             0 MiB allocation reported by mallinfo(arena+hblkhd)
       1632395 MiB available memory on the node where the printing process lives
------------------
     ethr =  2.77E-09,  avg # of iterations = 16.8


     -----------------------------------------------
     Non-local corr. energy    =      82.12441720 Ry
     -----------------------------------------------


     total cpu time spent up to now is    37530.9 secs

     total energy              =  -47097.48422067 Ry
     estimated scf accuracy    <       0.00000983 Ry

     iteration # 18     ecut=    70.00 Ry     beta= 0.70
     Davidson diagonalization with overlap

---- Real-time Memory Report at c_bands before calling an iterative solver
          3634 MiB given to the printing process from OS
             0 MiB allocation reported by mallinfo(arena+hblkhd)
       1632495 MiB available memory on the node where the printing process lives
------------------
     ethr =  3.63E-10,  avg # of iterations = 16.0


     -----------------------------------------------
     Non-local corr. energy    =      82.12448187 Ry
     -----------------------------------------------


     total cpu time spent up to now is    39733.0 secs

     total energy              =  -47097.48422194 Ry
     estimated scf accuracy    <       0.00000195 Ry

     iteration # 19     ecut=    70.00 Ry     beta= 0.70
     Davidson diagonalization with overlap

---- Real-time Memory Report at c_bands before calling an iterative solver
          3634 MiB given to the printing process from OS
             0 MiB allocation reported by mallinfo(arena+hblkhd)
       1632491 MiB available memory on the node where the printing process lives
------------------
     ethr =  7.20E-11,  avg # of iterations = 17.0


     -----------------------------------------------
     Non-local corr. energy    =      82.12456169 Ry
     -----------------------------------------------


     total cpu time spent up to now is    42372.9 secs

     total energy              =  -47097.48422229 Ry
     estimated scf accuracy    <       0.00000108 Ry

     iteration # 20     ecut=    70.00 Ry     beta= 0.70
     Davidson diagonalization with overlap

---- Real-time Memory Report at c_bands before calling an iterative solver
          3634 MiB given to the printing process from OS
             0 MiB allocation reported by mallinfo(arena+hblkhd)
       1632478 MiB available memory on the node where the printing process lives
------------------
     ethr =  4.00E-11,  avg # of iterations = 17.0


     -----------------------------------------------
     Non-local corr. energy    =      82.12458435 Ry
     -----------------------------------------------


     total cpu time spent up to now is    44632.6 secs

     total energy              =  -47097.48422243 Ry
     estimated scf accuracy    <       0.00000023 Ry

     iteration # 21     ecut=    70.00 Ry     beta= 0.70
     Davidson diagonalization with overlap

---- Real-time Memory Report at c_bands before calling an iterative solver
          3634 MiB given to the printing process from OS
             0 MiB allocation reported by mallinfo(arena+hblkhd)
       1632456 MiB available memory on the node where the printing process lives
------------------
     ethr =  8.44E-12,  avg # of iterations = 16.8


     -----------------------------------------------
     Non-local corr. energy    =      82.12459116 Ry
     -----------------------------------------------


     total cpu time spent up to now is    46943.8 secs

     total energy              =  -47097.48422246 Ry
     estimated scf accuracy    <       0.00000008 Ry

     iteration # 22     ecut=    70.00 Ry     beta= 0.70
     Davidson diagonalization with overlap

---- Real-time Memory Report at c_bands before calling an iterative solver
          3634 MiB given to the printing process from OS
             0 MiB allocation reported by mallinfo(arena+hblkhd)
       1632445 MiB available memory on the node where the printing process lives
------------------
     ethr =  2.94E-12,  avg # of iterations = 17.5


     -----------------------------------------------
     Non-local corr. energy    =      82.12459738 Ry
     -----------------------------------------------


     total cpu time spent up to now is    49497.4 secs

     total energy              =  -47097.48422248 Ry
     estimated scf accuracy    <       0.00000003 Ry

     iteration # 23     ecut=    70.00 Ry     beta= 0.70
     Davidson diagonalization with overlap

---- Real-time Memory Report at c_bands before calling an iterative solver
          3634 MiB given to the printing process from OS
             0 MiB allocation reported by mallinfo(arena+hblkhd)
       1630290 MiB available memory on the node where the printing process lives
------------------
     ethr =  1.12E-12,  avg # of iterations = 18.2


     -----------------------------------------------
     Non-local corr. energy    =      82.12459964 Ry
     -----------------------------------------------


     total cpu time spent up to now is    52099.9 secs

     total energy              =  -47097.48422248 Ry
     estimated scf accuracy    <          6.9E-09 Ry

     iteration # 24     ecut=    70.00 Ry     beta= 0.70
     Davidson diagonalization with overlap

---- Real-time Memory Report at c_bands before calling an iterative solver
          3634 MiB given to the printing process from OS
             0 MiB allocation reported by mallinfo(arena+hblkhd)
       1632425 MiB available memory on the node where the printing process lives
------------------
     ethr =  2.55E-13,  avg # of iterations = 17.8


     -----------------------------------------------
     Non-local corr. energy    =      82.12459995 Ry
     -----------------------------------------------


     total cpu time spent up to now is    55429.5 secs

     total energy              =  -47097.48422249 Ry
     estimated scf accuracy    <          3.8E-09 Ry

     iteration # 25     ecut=    70.00 Ry     beta= 0.70
     Davidson diagonalization with overlap

---- Real-time Memory Report at c_bands before calling an iterative solver
          3634 MiB given to the printing process from OS
             0 MiB allocation reported by mallinfo(arena+hblkhd)
       1632411 MiB available memory on the node where the printing process lives
------------------
     ethr =  1.39E-13,  avg # of iterations = 17.5


     -----------------------------------------------
     Non-local corr. energy    =      82.12460100 Ry
     -----------------------------------------------


     total cpu time spent up to now is    57988.5 secs

     total energy              =  -47097.48422249 Ry
     estimated scf accuracy    <          1.3E-09 Ry

     iteration # 26     ecut=    70.00 Ry     beta= 0.70
     Davidson diagonalization with overlap

---- Real-time Memory Report at c_bands before calling an iterative solver
          3634 MiB given to the printing process from OS
             0 MiB allocation reported by mallinfo(arena+hblkhd)
       1632395 MiB available memory on the node where the printing process lives
------------------
     ethr =  1.00E-13,  avg # of iterations = 16.0


     -----------------------------------------------
     Non-local corr. energy    =      82.12460017 Ry
     -----------------------------------------------


     total cpu time spent up to now is    59981.3 secs

     End of self-consistent calculation

          k = 0.0000 0.0000 0.0000 (241213 PWs)   bands (ev):

    -6.8307  -6.6288  -6.6200  -6.6123  -6.6119  -6.5928  -6.5925  -6.5907
    -6.5740  -6.4772  -6.4770  -6.4756  -6.4640  -6.4639  -6.4632  -6.4631
    -6.4491  -6.4437  -6.4435  -6.4395  -6.4373  -6.4194  -6.4190  -6.4103
    -6.4061  -6.3964  -6.3961  -6.3956  -6.3787  -6.3779  -6.3776  -6.3759
    -6.3718  -6.3708  -6.3629  -6.3616  -6.3609  -6.3548  -6.3517  -6.3494
    -6.3491  -6.3449  -6.3440  -6.3435  -6.3431  -6.3428  -6.3398  -6.3394
    -6.3381  -6.3349  -6.3344  -6.3336  -6.3299  -6.3289  -6.3264  -6.3260
    -6.3253  -6.3232  -6.3222  -6.3215  -6.3212  -6.3180  -6.3175  -6.3160
    -6.3154  -6.3154  -6.3153  -6.3147  -6.3145  -6.3140  -6.3139  -6.3126
    -6.3114  -6.3111  -6.3100  -6.3095  -6.3094  -6.3094  -6.3091  -6.3079
    -6.3076  -6.3068  -6.3056  -6.3047  -6.3047  -6.3038  -6.3016  -6.3007
    -6.3001  -6.2994  -6.2921  -6.2919  -6.2912  -6.2902  -6.2901  -6.2898
    -6.2880  -6.2858  -6.2857  -6.2855  -6.2851  -6.2850  -6.2823  -6.2822
    -6.2820  -6.2820  -6.2809  -6.2797  -6.2788  -6.2785  -6.2779  -6.2779
    -6.2775  -6.2773  -6.2769  -6.2764  -6.2747  -6.2743  -6.2741  -6.2737
[...]
N            -1.6226070428        6.5580042682        9.9205812521
N            -1.6230580234        6.5586035154       15.2071536942
N            -3.2216987683        9.3434245090        4.6246182047
N            -3.2432749960        9.3650835054        9.9205812521
N            -3.2429815229        9.3643933211       15.2071536942
N            -4.8213206614       12.0906103801        4.6299551279
N            -4.8555172826       12.1700869940        9.9496250024
N            -4.8474305121       12.1630444439       15.1831758760
N             4.9637759658        0.9404405396        4.6298146347
N             4.8776808058        0.9299383383        9.9492650039
N             4.8874370407        0.9265157517       15.1830250951
N             3.2963346548        3.8285336089        4.6298146347
N             3.2441919017        3.7592241139        9.9492650039
N             3.2461059721        3.7693845545       15.1830250951
N             1.6223333281        6.5603749594        4.6338580223
N             1.6223200434        6.5590424471        9.9182377672
N             1.6222979128        6.5584572630       15.2093546658
N             0.0028085033        9.3678245294        4.6308773573
N            -0.0000339846        9.3661834182        9.9188746817
N             0.0000445695        9.3662287714       15.2073706621
N            -1.6187517318       12.1740989548        4.6338580223
N            -1.6199123636       12.1747537060        9.9182377672
N            -1.6204302133       12.1750271324       15.2093546658
N             8.1427221607        0.9281999861        4.6244315026
N             8.1129222615        0.9361052820        9.9204758928
N             8.1136337447        0.9362115437       15.2070557496
N             6.5027418287        3.7543582744        4.6322623785
N             6.4884428499        3.7461027551        9.9213546434
N             6.4887965881        3.7463069860       15.2070367678
N             4.8752071220        6.5877020479        4.6244315026
N             4.8671533595        6.5579419302        9.9204758928
N             4.8676011264        6.5585049619       15.2070557496
N             3.2417525501        9.3677742984        4.6310468619
N             3.2445875972        9.3661384035        9.9190400563
N             3.2444923511        9.3661810635       15.2075457999
N             1.6222370254       12.1728574710        4.6310468619
N             1.6222378224       12.1761306412        9.9190400563
N             1.6222271441       12.1760268257       15.2075457999
N            11.3246512332        0.9281716620        4.6244055663
N            11.3544267857        0.9362098091        9.9204711576
N            11.3536552330        0.9362989658       15.2070507022
N             9.7338556886        3.7466928940        4.6309456476
N             9.7337499673        3.7464093387        9.9196381012
N             9.7337402630        3.7465775260       15.2072582297
N             8.1116603444        6.5564176499        4.6309456476
N             8.1113619177        6.5564678703        9.9196381012
N             8.1115027200        6.5563753724       15.2072582297
N             6.4661471289        9.3433476197        4.6244055663
N             6.4879961447        9.3651149311        9.9204711576
N             6.4876875803        9.3644021685       15.2070507022
N             4.8635406432       12.1741695389        4.6340645815
N             4.8646579204       12.1748145992        9.9184283484
N             4.8651106077       12.1750759583       15.2095560883
N            14.5037046003        0.9402070793        4.6298052752
N            14.5895471905        0.9298402310        9.9492815243
N            14.5794740712        0.9263869678       15.1829258054
N            12.9648457195        3.7539144515        4.6322237086
N            12.9787510748        3.7461022767        9.9211468618
N            12.9783904095        3.7462966997       15.2068536625
N            11.3557616822        6.5562505933        4.6307544053
N            11.3559821973        6.5563779078        9.9194560955
N            11.3558365176        6.5562937996       15.2070712640
N             9.7334094122        9.3509263174        4.6322237086
N             9.7335965480        9.3668747957        9.9211468618
N             9.7335845906        9.3664652389       15.2068536625
N             8.0660967894       12.0904708871        4.6298052752
N             8.1000401306       12.1699961751        9.9492815243
N             8.0920129573       12.1629992295       15.1829258054
N            -0.0626353819        1.9095326150        1.8825893576
N            -0.0611969397        1.9081561838        7.3756424552
N            -0.0011540470        1.8739172506       12.5613776564
N            -1.6283177521        4.6909092855        1.9833580237
N            -1.6302933797        4.6944565859        7.2809957939
N            -1.6268734288        4.6858260266       12.5636709109
N            -3.2457048966        7.4922985933        1.9841452690
N            -3.2460927946        7.4920746403        7.2756417341
N            -3.2445485004        7.4929662390       12.5631752422
N            -4.8630856307       10.2936916021        1.9833580237
N            -4.8610013922       10.2902070082        7.2809957939
N            -4.8667657004       10.2974840521       12.5636709109
N            -6.4889872996       13.0403006442        1.8825893576
N            -6.4894601030       13.0422345873        7.3756424552
N            -6.4890904425       13.1113527243       12.5613776564
N             3.3068561195        1.9092169496        1.8830584238
N             3.3054630290        1.9084126485        7.3758169723
N             3.2456845001        1.8738994987       12.5616980131
N             1.6222596261        4.6797381402        1.9887941407
N             1.6223366868        4.6835180210        7.2854358440
N             1.6222126262        4.6889764783       12.5647272813
N             0.0006790298        7.4926516441        1.9876142980
N            -0.0011244663        7.4931108762        7.2747642875
N             0.0000557604        7.4926616936       12.5635362349
N            -1.6222071824       10.3035730186        1.9876142980
N            -1.6227112238       10.3017815291        7.2747642875
N            -1.6225101140       10.3030282267       12.5635362349
N            -3.2474714372       13.1143597613        1.9887941407
N            -3.2441594341       13.1125365575        7.2854358440
N            -3.2394943017       13.1096998892       12.5647272813
N             6.4989707126        1.8747413439        1.9834813062
N             6.5032548159        1.8747804294        7.2810401407
N             6.4938639567        1.8759920712       12.5637775194
N             4.8730566657        4.6909070821        1.9834813062
N             4.8752325664        4.6945976816        7.2810401407
N             4.8715864494        4.6858591381       12.5637775194
N             3.2439293909        7.4927269554        1.9874339924
N             3.2457547047        7.4932173428        7.2745500587
N             3.2445352323        7.4927376880       12.5633591645
N             1.6223755219       10.3028861334        1.9869826031
N             1.6223878010       10.3028932227        7.2752597852
N             1.6223714675       10.3028837926       12.5633186885
N            -0.0005167804       13.1122725666        1.9874339924
N             0.0008205644       13.1136081411        7.2745500587
N            -0.0002045650       13.1127918744       12.5633591645
N             9.7335925240        1.8746123950        1.9842762692
N             9.7335369267        1.8750335166        7.2757437304
N             9.7336102402        1.8732801219       12.5632818946
N             8.1123491556        4.6836696477        1.9866705256
N             8.1121918603        4.6835788333        7.2751395545
N             8.1116400161        4.6832602258       12.5632169559
N             6.4902558983        7.4922362169        1.9842762692
N             6.4905928017        7.4919775074        7.2757437304
N             6.4891109740        7.4929176962       12.5632818946
N             4.8666748088       10.3035656612        1.9874541635
N             4.8671536290       10.3017368060        7.2745392380
N             4.8669649697       10.3030478686       12.5633633878
N             3.2451136537       13.1121919695        1.9874541635
N             3.2437692287       13.1135210676        7.2745392380
N             3.2448103127       13.1127021525       12.5633633878
N            12.9684531797        1.8746663011        1.9836973473
N            12.9640472956        1.8745815880        7.2812162751
N            12.9735845807        1.8759538117       12.5639576652
N            11.3549278175        4.6837115264        1.9868451635
N            11.3551100431        4.6836039673        7.2753202400
N            11.3556441275        4.6833040557       12.5633898878
N             9.7336747545        7.4918042036        1.9868451635
N             9.7336727185        7.4920157950        7.2753202400
N             9.7336800296        7.4926282815       12.5633898878
N             8.1077329103       10.2936807694        1.9836973473
N             8.1054566045       10.2899075183        7.2812162751
N             8.1114136277       10.2974809378       12.5639576652
N             6.4920766040       13.1144093641        1.9888990077
N             6.4883714434       13.1122701887        7.2852395952
N             6.4840142833       13.1097545811       12.5647193665
Ga            1.6216461598        0.9362563759        4.6064527123



     Writing config-only to output data dir ./GaN.save/
     NEW-OLD atomic charge density approx. for the potential

     Check: negative core charge=   -0.000003


     -----------------------------------------------
     Non-local corr. energy    =      82.12483900 Ry
     -----------------------------------------------


     total cpu time spent up to now is   147145.9 secs

     Self-consistent Calculation

     iteration #  1     ecut=    70.00 Ry     beta= 0.70
     Davidson diagonalization with overlap

---- Real-time Memory Report at c_bands before calling an iterative solver
          3701 MiB given to the printing process from OS
             0 MiB allocation reported by mallinfo(arena+hblkhd)
       1641048 MiB available memory on the node where the printing process lives
------------------
     ethr =  1.00E-06,  avg # of iterations =  3.5


     -----------------------------------------------
     Non-local corr. energy    =      82.12429953 Ry
     -----------------------------------------------


     total cpu time spent up to now is   147981.5 secs

     total energy              =  -47097.48594518 Ry
     estimated scf accuracy    <       0.00995905 Ry

     iteration #  2     ecut=    70.00 Ry     beta= 0.70
     Davidson diagonalization with overlap

---- Real-time Memory Report at c_bands before calling an iterative solver
          3701 MiB given to the printing process from OS
             0 MiB allocation reported by mallinfo(arena+hblkhd)
       1650932 MiB available memory on the node where the printing process lives
------------------
     ethr =  3.68E-07,  avg # of iterations = 13.5


     -----------------------------------------------
     Non-local corr. energy    =      82.12433765 Ry
     -----------------------------------------------


     total cpu time spent up to now is   149998.5 secs

     total energy              =  -47097.48822772 Ry
     estimated scf accuracy    <       0.00303571 Ry

     iteration #  3     ecut=    70.00 Ry     beta= 0.70
     Davidson diagonalization with overlap

---- Real-time Memory Report at c_bands before calling an iterative solver
          3701 MiB given to the printing process from OS
             0 MiB allocation reported by mallinfo(arena+hblkhd)
       1630980 MiB available memory on the node where the printing process lives
------------------
     ethr =  1.12E-07,  avg # of iterations = 18.3


     -----------------------------------------------
     Non-local corr. energy    =      82.12436455 Ry
     -----------------------------------------------


     total cpu time spent up to now is   152714.9 secs

     total energy              =  -47097.48829693 Ry
     estimated scf accuracy    <       0.00625140 Ry

     iteration #  4     ecut=    70.00 Ry     beta= 0.70
     Davidson diagonalization with overlap

---- Real-time Memory Report at c_bands before calling an iterative solver
          3701 MiB given to the printing process from OS
             0 MiB allocation reported by mallinfo(arena+hblkhd)
       1630957 MiB available memory on the node where the printing process lives
------------------
     c_bands:  1 eigenvalues not converged
     ethr =  1.12E-07,  avg # of iterations = 18.5


     -----------------------------------------------
     Non-local corr. energy    =      82.12439662 Ry
     -----------------------------------------------


     total cpu time spent up to now is   155003.8 secs

     total energy              =  -47097.48892345 Ry
     estimated scf accuracy    <       0.00091419 Ry

     iteration #  5     ecut=    70.00 Ry     beta= 0.70
     Davidson diagonalization with overlap

---- Real-time Memory Report at c_bands before calling an iterative solver
          3701 MiB given to the printing process from OS
             0 MiB allocation reported by mallinfo(arena+hblkhd)
       1630924 MiB available memory on the node where the printing process lives
------------------
     c_bands:  1 eigenvalues not converged
     ethr =  3.38E-08,  avg # of iterations = 18.5


     -----------------------------------------------
     Non-local corr. energy    =      82.12443295 Ry
     -----------------------------------------------


     total cpu time spent up to now is   156701.1 secs

     total energy              =  -47097.48899933 Ry
     estimated scf accuracy    <       0.00069475 Ry

     iteration #  6     ecut=    70.00 Ry     beta= 0.70
     Davidson diagonalization with overlap

---- Real-time Memory Report at c_bands before calling an iterative solver
          3701 MiB given to the printing process from OS
             0 MiB allocation reported by mallinfo(arena+hblkhd)
       1630869 MiB available memory on the node where the printing process lives
------------------
     ethr =  2.57E-08,  avg # of iterations =  1.5


     -----------------------------------------------
     Non-local corr. energy    =      82.12450205 Ry
     -----------------------------------------------


     total cpu time spent up to now is   157020.7 secs

     total energy              =  -47097.48907783 Ry
     estimated scf accuracy    <       0.00049676 Ry

     iteration #  7     ecut=    70.00 Ry     beta= 0.70
     Davidson diagonalization with overlap

---- Real-time Memory Report at c_bands before calling an iterative solver
          3701 MiB given to the printing process from OS
             0 MiB allocation reported by mallinfo(arena+hblkhd)
       1630809 MiB available memory on the node where the printing process lives
------------------
     c_bands:  1 eigenvalues not converged
     ethr =  1.83E-08,  avg # of iterations =  9.5


     -----------------------------------------------
     Non-local corr. energy    =      82.12461973 Ry
     -----------------------------------------------


     total cpu time spent up to now is   158054.6 secs

     total energy              =  -47097.48914197 Ry
     estimated scf accuracy    <       0.00025537 Ry

     iteration #  8     ecut=    70.00 Ry     beta= 0.70
     Davidson diagonalization with overlap

---- Real-time Memory Report at c_bands before calling an iterative solver
          3701 MiB given to the printing process from OS
             0 MiB allocation reported by mallinfo(arena+hblkhd)
       1630546 MiB available memory on the node where the printing process lives
------------------
     c_bands:  1 eigenvalues not converged
     ethr =  9.43E-09,  avg # of iterations = 16.0


     -----------------------------------------------
     Non-local corr. energy    =      82.12464667 Ry
     -----------------------------------------------


     total cpu time spent up to now is   159560.3 secs

     total energy              =  -47097.48915369 Ry
     estimated scf accuracy    <       0.00002935 Ry

     iteration #  9     ecut=    70.00 Ry     beta= 0.70
     Davidson diagonalization with overlap

---- Real-time Memory Report at c_bands before calling an iterative solver
          3701 MiB given to the printing process from OS
             0 MiB allocation reported by mallinfo(arena+hblkhd)
       1630429 MiB available memory on the node where the printing process lives
------------------
     ethr =  1.08E-09,  avg # of iterations = 16.8


     -----------------------------------------------
     Non-local corr. energy    =      82.12469411 Ry
     -----------------------------------------------


     total cpu time spent up to now is   162598.9 secs

     total energy              =  -47097.48916018 Ry
     estimated scf accuracy    <       0.00000468 Ry

     iteration # 10     ecut=    70.00 Ry     beta= 0.70
     Davidson diagonalization with overlap

---- Real-time Memory Report at c_bands before calling an iterative solver
          3701 MiB given to the printing process from OS
             0 MiB allocation reported by mallinfo(arena+hblkhd)
       1630296 MiB available memory on the node where the printing process lives
------------------
     ethr =  1.73E-10,  avg # of iterations = 16.7


     -----------------------------------------------
     Non-local corr. energy    =      82.12473988 Ry
     -----------------------------------------------


     total cpu time spent up to now is   164482.6 secs

     total energy              =  -47097.48916063 Ry
     estimated scf accuracy    <       0.00000088 Ry

     iteration # 11     ecut=    70.00 Ry     beta= 0.70
     Davidson diagonalization with overlap

---- Real-time Memory Report at c_bands before calling an iterative solver
          3701 MiB given to the printing process from OS
             0 MiB allocation reported by mallinfo(arena+hblkhd)
       1630284 MiB available memory on the node where the printing process lives
------------------
     ethr =  3.24E-11,  avg # of iterations = 15.3


     -----------------------------------------------
     Non-local corr. energy    =      82.12476917 Ry
     -----------------------------------------------


     total cpu time spent up to now is   167063.8 secs

     total energy              =  -47097.48916084 Ry
     estimated scf accuracy    <       0.00000006 Ry

     iteration # 12     ecut=    70.00 Ry     beta= 0.70
     Davidson diagonalization with overlap

---- Real-time Memory Report at c_bands before calling an iterative solver
          3701 MiB given to the printing process from OS
             0 MiB allocation reported by mallinfo(arena+hblkhd)
       1630278 MiB available memory on the node where the printing process lives
------------------
     ethr =  2.11E-12,  avg # of iterations = 15.5


     -----------------------------------------------
     Non-local corr. energy    =      82.12477002 Ry
     -----------------------------------------------


     total cpu time spent up to now is   171415.7 secs

     total energy              =  -47097.48916086 Ry
     estimated scf accuracy    <       0.00000002 Ry

     iteration # 13     ecut=    70.00 Ry     beta= 0.70
     Davidson diagonalization with overlap

---- Real-time Memory Report at c_bands before calling an iterative solver
          3701 MiB given to the printing process from OS
             0 MiB allocation reported by mallinfo(arena+hblkhd)
       1630278 MiB available memory on the node where the printing process lives
------------------
