
     Program PWSCF v.7.1 starts on  1May2024 at 14:41: 3 

     This program is part of the open-source Quantum ESPRESSO suite
     for quantum simulation of materials; please cite
         "P. Giannozzi et al., J. Phys.:Condens. Matter 21 395502 (2009);
         "P. Giannozzi et al., J. Phys.:Condens. Matter 29 465901 (2017);
         "P. Giannozzi et al., J. Chem. Phys. 152 154105 (2020);
          URL http://www.quantum-espresso.org", 
     in publications or presentations arising from this work. More details at
     http://www.quantum-espresso.org/quote

     Parallel version (MPI & OpenMP), running on     256 processor cores
     Number of MPI processes:               256
     Threads/MPI process:                     1

     MPI processes distributed on     2 nodes
     1696061 MiB available memory on the printing compute node when the environment starts
 
     Reading input from espresso.pwi
Warning: card &CELL ignored
Warning: card    CELL_DYNAMICS    = 'BFGS' ignored
Warning: card / ignored

     Current dimensions of program PWSCF are:
     Max number of different atomic species (ntypx) = 10
     Max number of k-points (npk) =  40000
     Max angular momentum in pseudopotentials (lmaxx) =  4
     file Ga.pbe-dn-kjpaw_psl.1.0.0.UPF: wavefunction(s)  4S renormalized
     file N.pbe-n-kjpaw_psl.1.0.0.UPF: wavefunction(s)  2S renormalized

     **************************************************************************
     Initializing libbeef V0.1.2 with the BEEF-vdW functional.
     Citation: Wellendorff et al., PRB 85, 235149 (2012).
     **************************************************************************


     IMPORTANT: XC functional enforced from input :
     Exchange-correlation= BEEF-VDW
                           (   1   4  43  14   2   0   0)
     Any further DFT definition will be discarded
     Please, verify this is what you really want

 
     K-points division:     npool     =       4
     R & G space division:  proc/nbgrp/npool/nimage =      64
     Subspace diagonalization in iterative solution of the eigenvalue problem:
     a serial algorithm will be used

 
     Parallelization info
     --------------------
     sticks:   dense  smooth     PW     G-vecs:    dense   smooth      PW
     Min         354     283     73                42160    30167    3987
     Max         356     285     74                42163    30170    3996
     Sum       22693   18145   4705              2698283  1930731  255309
 
     Using Slab Decomposition
 


     bravais-lattice index     =            4
     lattice parameter (alat)  =      30.6565  a.u.
     unit-cell volume          =   24400.9461 (a.u.)^3
     number of atoms/cell      =          300
     number of atomic types    =            2
     number of electrons       =      2709.00
     number of Kohn-Sham states=         1626
     kinetic-energy cutoff     =      70.0000  Ry
     charge density cutoff     =     350.0000  Ry
     scf convergence threshold =      1.0E-07
     mixing beta               =       0.7000
     number of iterations used =            8  plain     mixing
     energy convergence thresh.=      1.0E-04
     force convergence thresh. =      1.0E-03
     Exchange-correlation= BEEF-VDW
                           (   1   4  43  14   2   0   0)
     nstep                     =           50


     celldm(1)=  30.656540  celldm(2)=   0.000000  celldm(3)=   0.977927
     celldm(4)=   0.000000  celldm(5)=   0.000000  celldm(6)=   0.000000

     crystal axes: (cart. coord. in units of alat)
               a(1) = (   1.000000   0.000000   0.000000 )  
               a(2) = (  -0.500000   0.866025   0.000000 )  
               a(3) = (   0.000000   0.000000   0.977927 )  

     reciprocal axes: (cart. coord. in units 2 pi/alat)
               b(1) = (  1.000000  0.577350 -0.000000 )  
               b(2) = (  0.000000  1.154701  0.000000 )  
               b(3) = (  0.000000 -0.000000  1.022571 )  


     PseudoPot. # 1 for Ga read from file:
     //group///packages/espresso/pseudo/psl_1.0.0/pslibrary.1.0.0/pbe/PSEUDOPOTENTIALS/Ga.pbe-dn-kjpaw_psl.1.0.0.UPF
     MD5 check sum: cd2a01e492f15b435d17032472d8505c
     Pseudo is Projector augmented-wave + core cor, Zval = 13.0
     Generated using 'atomic' code by A. Dal Corso  v.7.1
     Shape of augmentation charge: PSQ
     Using radial grid of 1205 points,  6 beta functions with: 
                l(1) =   0
                l(2) =   0
                l(3) =   1
                l(4) =   1
                l(5) =   2
                l(6) =   2
     Q(r) pseudized with 0 coefficients 


     PseudoPot. # 2 for N  read from file:
     //group///packages/espresso/pseudo/psl_1.0.0/pslibrary.1.0.0/pbe/PSEUDOPOTENTIALS/N.pbe-n-kjpaw_psl.1.0.0.UPF
     MD5 check sum: f77f775694dac7e2c3fe1c82443d1a16
     Pseudo is Projector augmented-wave + core cor, Zval =  5.0
     Generated using 'atomic' code by A. Dal Corso  v.7.1
     Shape of augmentation charge: PSQ
     Using radial grid of 1085 points,  4 beta functions with: 
                l(1) =   0
                l(2) =   0
                l(3) =   1
                l(4) =   1
     Q(r) pseudized with 0 coefficients 


     atomic species   valence    mass     pseudopotential
        Ga            13.00    69.72300     Ga( 1.00)
        N              5.00    14.00700     N ( 1.00)

      2 Sym. Ops. (no inversion) found


                                    s                        frac. trans.

      isym =  1     identity                                     

 cryst.   s( 1) = (     1          0          0      )
                  (     0          1          0      )
                  (     0          0          1      )

 cart.    s( 1) = (  1.0000000  0.0000000  0.0000000 )
                  (  0.0000000  1.0000000  0.0000000 )
                  (  0.0000000  0.0000000  1.0000000 )


      isym =  2     inv. 180 deg rotation - cryst. axis [0,1,0]  

 cryst.   s( 2) = (     1          1          0      )
                  (     0         -1          0      )
                  (     0          0          1      )

 cart.    s( 2) = (  0.5000000  0.8660254  0.0000000 )
                  (  0.8660254 -0.5000000  0.0000000 )
                  (  0.0000000  0.0000000  1.0000000 )


     point group C_s (m)    
     there are  2 classes
     the character table:

       E     s    
A'     1.00  1.00
A''    1.00 -1.00

     the symmetry operations in each class and the name of the first element:

     E        1
          identity                                               
     s        2
          inv. 180 deg rotation - cryst. axis [0,1,0]            

   Cartesian axes

     site n.     atom                  positions (alat units)
         1           Ga  tau(   1) = (   0.1000001   0.0577350   0.1627148  )
         2           Ga  tau(   2) = (   0.1000001   0.0577350   0.4886906  )
         3           Ga  tau(   3) = (   0.1000001   0.0577350   0.8146665  )
         4           Ga  tau(   4) = (   0.0000001   0.2309401   0.1627148  )
         5           Ga  tau(   5) = (   0.0000001   0.2309401   0.4886906  )
         6           Ga  tau(   6) = (   0.0000001   0.2309401   0.8146665  )
         7           Ga  tau(   7) = (  -0.0999999   0.4041451   0.1627148  )
         8           Ga  tau(   8) = (  -0.0999999   0.4041451   0.4886906  )
         9           Ga  tau(   9) = (  -0.0999999   0.4041451   0.8146665  )
        10           Ga  tau(  10) = (  -0.1999999   0.5773502   0.1627148  )
        11           Ga  tau(  11) = (  -0.1999999   0.5773502   0.4886906  )
        12           Ga  tau(  12) = (  -0.1999999   0.5773502   0.8146665  )
        13           Ga  tau(  13) = (  -0.2999999   0.7505553   0.1627148  )
        14           Ga  tau(  14) = (  -0.2999999   0.7505553   0.4886906  )
        15           Ga  tau(  15) = (  -0.2999999   0.7505553   0.8146665  )
        16           Ga  tau(  16) = (   0.3000001   0.0577350   0.1627148  )
        17           Ga  tau(  17) = (   0.3000001   0.0577350   0.4886906  )
        18           Ga  tau(  18) = (   0.3000001   0.0577350   0.8146665  )
        19           Ga  tau(  19) = (   0.2000001   0.2309401   0.1627148  )
        20           Ga  tau(  20) = (   0.2000001   0.2309401   0.4886906  )
        21           Ga  tau(  21) = (   0.2000001   0.2309401   0.8146665  )
        22           Ga  tau(  22) = (   0.1000001   0.4041451   0.1627148  )
        23           Ga  tau(  23) = (   0.1000001   0.4041451   0.4886906  )
        24           Ga  tau(  24) = (   0.1000001   0.4041451   0.8146665  )
        25           Ga  tau(  25) = (   0.0000001   0.5773502   0.1627148  )
        26           Ga  tau(  26) = (   0.0000001   0.5773502   0.4886906  )
        27           Ga  tau(  27) = (   0.0000001   0.5773502   0.8146665  )
        28           Ga  tau(  28) = (  -0.0999999   0.7505553   0.1627148  )
        29           Ga  tau(  29) = (  -0.0999999   0.7505553   0.4886906  )
        30           Ga  tau(  30) = (  -0.0999999   0.7505553   0.8146665  )
        31           Ga  tau(  31) = (   0.5000001   0.0577350   0.1627148  )
        32           Ga  tau(  32) = (   0.5000001   0.0577350   0.4886906  )
        33           Ga  tau(  33) = (   0.5000001   0.0577350   0.8146665  )
        34           Ga  tau(  34) = (   0.4000001   0.2309401   0.1627148  )
        35           Ga  tau(  35) = (   0.4000001   0.2309401   0.4886906  )
        36           Ga  tau(  36) = (   0.4000001   0.2309401   0.8146665  )
        37           Ga  tau(  37) = (   0.3000001   0.4041451   0.1627148  )
        38           Ga  tau(  38) = (   0.3000001   0.4041451   0.4886906  )
        39           Ga  tau(  39) = (   0.3000001   0.4041451   0.8146665  )
        40           Ga  tau(  40) = (   0.2000001   0.5773502   0.1627148  )
        41           Ga  tau(  41) = (   0.2000001   0.5773502   0.4886906  )
        42           Ga  tau(  42) = (   0.2000001   0.5773502   0.8146665  )
        43           Ga  tau(  43) = (   0.1000001   0.7505553   0.1627148  )
        44           Ga  tau(  44) = (   0.1000001   0.7505553   0.4886906  )
        45           Ga  tau(  45) = (   0.1000001   0.7505553   0.8146665  )
        46           Ga  tau(  46) = (   0.7000001   0.0577350   0.1627148  )
        47           Ga  tau(  47) = (   0.7000001   0.0577350   0.4886906  )
        48           Ga  tau(  48) = (   0.7000001   0.0577350   0.8146665  )
        49           Ga  tau(  49) = (   0.6000001   0.2309401   0.1627148  )
        50           Ga  tau(  50) = (   0.6000001   0.2309401   0.4886906  )
        51           Ga  tau(  51) = (   0.6000001   0.2309401   0.8146665  )
        52           Ga  tau(  52) = (   0.5000001   0.4041451   0.1627148  )
        53           Ga  tau(  53) = (   0.5000001   0.4041451   0.4886906  )
        54           Ga  tau(  54) = (   0.5000001   0.4041451   0.8146665  )
        55           Ga  tau(  55) = (   0.4000001   0.5773502   0.1627148  )
        56           Ga  tau(  56) = (   0.4000001   0.5773502   0.4886906  )
        57           Ga  tau(  57) = (   0.4000001   0.5773502   0.8146665  )
        58           Ga  tau(  58) = (   0.3000001   0.7505553   0.1627148  )
        59           Ga  tau(  59) = (   0.3000001   0.7505553   0.4886906  )
        60           Ga  tau(  60) = (   0.3000001   0.7505553   0.8146665  )
        61           Ga  tau(  61) = (   0.9000001   0.0577350   0.1627148  )
        62           Ga  tau(  62) = (   0.9000001   0.0577350   0.4886906  )
        63           Ga  tau(  63) = (   0.9000001   0.0577350   0.8146665  )
        64           Ga  tau(  64) = (   0.8000001   0.2309401   0.1627148  )
        65           Ga  tau(  65) = (   0.8000001   0.2309401   0.4886906  )
        66           Ga  tau(  66) = (   0.8000001   0.2309401   0.8146665  )
        67           Ga  tau(  67) = (   0.7000001   0.4041451   0.1627148  )
        68           Ga  tau(  68) = (   0.7000001   0.4041451   0.4886906  )
        69           Ga  tau(  69) = (   0.7000001   0.4041451   0.8146665  )
        70           Ga  tau(  70) = (   0.6000001   0.5773502   0.1627148  )
        71           Ga  tau(  71) = (   0.6000001   0.5773502   0.4886906  )
        72           Ga  tau(  72) = (   0.6000001   0.5773502   0.8146665  )
        73           Ga  tau(  73) = (   0.5000001   0.7505553   0.1627148  )
        74           Ga  tau(  74) = (   0.5000001   0.7505553   0.4886906  )
        75           Ga  tau(  75) = (   0.5000001   0.7505553   0.8146665  )
        76           Ga  tau(  76) = (  -0.0000001   0.1154701   0.3257027  )
        77           Ga  tau(  77) = (  -0.0000001   0.1154701   0.6516786  )
        78           Ga  tau(  78) = (  -0.0000001   0.1154701   0.9776544  )
        79           Ga  tau(  79) = (  -0.1000001   0.2886752   0.3257027  )
        80           Ga  tau(  80) = (  -0.1000001   0.2886752   0.6516786  )
        81           Ga  tau(  81) = (  -0.1000001   0.2886752   0.9776544  )
        82           Ga  tau(  82) = (  -0.2000001   0.4618803   0.3257027  )
        83           Ga  tau(  83) = (  -0.2000001   0.4618803   0.6516786  )
        84           Ga  tau(  84) = (  -0.2000001   0.4618803   0.9776544  )
        85           Ga  tau(  85) = (  -0.3000001   0.6350854   0.3257027  )
        86           Ga  tau(  86) = (  -0.3000001   0.6350854   0.6516786  )
        87           Ga  tau(  87) = (  -0.3000001   0.6350854   0.9776544  )
        88           Ga  tau(  88) = (  -0.4000001   0.8082905   0.3257027  )
        89           Ga  tau(  89) = (  -0.4000001   0.8082905   0.6516786  )
        90           Ga  tau(  90) = (  -0.4000001   0.8082905   0.9776544  )
        91           Ga  tau(  91) = (   0.1999999   0.1154701   0.3257027  )
        92           Ga  tau(  92) = (   0.1999999   0.1154701   0.6516786  )
        93           Ga  tau(  93) = (   0.1999999   0.1154701   0.9776544  )
        94           Ga  tau(  94) = (   0.0999999   0.2886752   0.3257027  )
        95           Ga  tau(  95) = (   0.0999999   0.2886752   0.6516786  )
        96           Ga  tau(  96) = (   0.0999999   0.2886752   0.9776544  )
        97           Ga  tau(  97) = (  -0.0000001   0.4618803   0.3257027  )
        98           Ga  tau(  98) = (  -0.0000001   0.4618803   0.6516786  )
        99           Ga  tau(  99) = (  -0.0000001   0.4618803   0.9776544  )
       100           Ga  tau( 100) = (  -0.1000001   0.6350854   0.3257027  )
       101           Ga  tau( 101) = (  -0.1000001   0.6350854   0.6516786  )
       102           Ga  tau( 102) = (  -0.1000001   0.6350854   0.9776544  )
       103           Ga  tau( 103) = (  -0.2000001   0.8082905   0.3257027  )
       104           Ga  tau( 104) = (  -0.2000001   0.8082905   0.6516786  )
       105           Ga  tau( 105) = (  -0.2000001   0.8082905   0.9776544  )
       106           Ga  tau( 106) = (   0.3999999   0.1154701   0.3257027  )
       107           Ga  tau( 107) = (   0.3999999   0.1154701   0.6516786  )
       108           Ga  tau( 108) = (   0.3999999   0.1154701   0.9776544  )
       109           Ga  tau( 109) = (   0.2999999   0.2886752   0.3257027  )
       110           Ga  tau( 110) = (   0.2999999   0.2886752   0.6516786  )
       111           Ga  tau( 111) = (   0.2999999   0.2886752   0.9776544  )
       112           Ga  tau( 112) = (   0.1999999   0.4618803   0.3257027  )
       113           Ga  tau( 113) = (   0.1999999   0.4618803   0.6516786  )
       114           Ga  tau( 114) = (   0.1999999   0.4618803   0.9776544  )
       115           Ga  tau( 115) = (   0.0999999   0.6350854   0.3257027  )
       116           Ga  tau( 116) = (   0.0999999   0.6350854   0.6516786  )
       117           Ga  tau( 117) = (   0.0999999   0.6350854   0.9776544  )
       118           Ga  tau( 118) = (  -0.0000001   0.8082905   0.3257027  )
       119           Ga  tau( 119) = (  -0.0000001   0.8082905   0.6516786  )
       120           Ga  tau( 120) = (  -0.0000001   0.8082905   0.9776544  )
       121           Ga  tau( 121) = (   0.5999999   0.1154701   0.3257027  )
       122           Ga  tau( 122) = (   0.5999999   0.1154701   0.6516786  )
       123           Ga  tau( 123) = (   0.5999999   0.1154701   0.9776544  )
       124           Ga  tau( 124) = (   0.4999999   0.2886752   0.3257027  )
       125           Ga  tau( 125) = (   0.4999999   0.2886752   0.6516786  )
       126           Ga  tau( 126) = (   0.4999999   0.2886752   0.9776544  )
       127           Ga  tau( 127) = (   0.3999999   0.4618803   0.3257027  )
       128           Ga  tau( 128) = (   0.3999999   0.4618803   0.6516786  )
       129           Ga  tau( 129) = (   0.3999999   0.4618803   0.9776544  )
       130           Ga  tau( 130) = (   0.2999999   0.6350854   0.3257027  )
       131           Ga  tau( 131) = (   0.2999999   0.6350854   0.6516786  )
       132           Ga  tau( 132) = (   0.2999999   0.6350854   0.9776544  )
       133           Ga  tau( 133) = (   0.1999999   0.8082905   0.3257027  )
       134           Ga  tau( 134) = (   0.1999999   0.8082905   0.6516786  )
       135           Ga  tau( 135) = (   0.1999999   0.8082905   0.9776544  )
       136           Ga  tau( 136) = (   0.7999999   0.1154701   0.3257027  )
       137           Ga  tau( 137) = (   0.7999999   0.1154701   0.6516786  )
       138           Ga  tau( 138) = (   0.7999999   0.1154701   0.9776544  )
       139           Ga  tau( 139) = (   0.6999999   0.2886752   0.3257027  )
       140           Ga  tau( 140) = (   0.6999999   0.2886752   0.6516786  )
       141           Ga  tau( 141) = (   0.6999999   0.2886752   0.9776544  )
       142           Ga  tau( 142) = (   0.5999999   0.4618803   0.3257027  )
       143           Ga  tau( 143) = (   0.5999999   0.4618803   0.6516786  )
       144           Ga  tau( 144) = (   0.5999999   0.4618803   0.9776544  )
       145           Ga  tau( 145) = (   0.4999999   0.6350854   0.3257027  )
       146           Ga  tau( 146) = (   0.4999999   0.6350854   0.6516786  )
       147           Ga  tau( 147) = (   0.4999999   0.6350854   0.9776544  )
       148           Ga  tau( 148) = (   0.3999999   0.8082905   0.3257027  )
       149           Ga  tau( 149) = (   0.3999999   0.8082905   0.6516786  )
       150           Ga  tau( 150) = (   0.3999999   0.8082905   0.9776544  )
       151           N   tau( 151) = (   0.1000001   0.0577350   0.6114777  )
       152           N   tau( 152) = (   0.1000001   0.0577350   0.9374535  )
       153           N   tau( 153) = (   0.0000001   0.2309401   0.2855019  )
       154           N   tau( 154) = (   0.0000001   0.2309401   0.6114777  )
       155           N   tau( 155) = (   0.0000001   0.2309401   0.9374535  )
       156           N   tau( 156) = (  -0.0999999   0.4041451   0.2855019  )
       157           N   tau( 157) = (  -0.0999999   0.4041451   0.6114777  )
       158           N   tau( 158) = (  -0.0999999   0.4041451   0.9374535  )
       159           N   tau( 159) = (  -0.1999999   0.5773502   0.2855019  )
       160           N   tau( 160) = (  -0.1999999   0.5773502   0.6114777  )
       161           N   tau( 161) = (  -0.1999999   0.5773502   0.9374535  )
       162           N   tau( 162) = (  -0.2999999   0.7505553   0.2855019  )
       163           N   tau( 163) = (  -0.2999999   0.7505553   0.6114777  )
       164           N   tau( 164) = (  -0.2999999   0.7505553   0.9374535  )
       165           N   tau( 165) = (   0.3000001   0.0577350   0.2855019  )
       166           N   tau( 166) = (   0.3000001   0.0577350   0.6114777  )
       167           N   tau( 167) = (   0.3000001   0.0577350   0.9374535  )
       168           N   tau( 168) = (   0.2000001   0.2309401   0.2855019  )
       169           N   tau( 169) = (   0.2000001   0.2309401   0.6114777  )
       170           N   tau( 170) = (   0.2000001   0.2309401   0.9374535  )
       171           N   tau( 171) = (   0.1000001   0.4041451   0.2855019  )
       172           N   tau( 172) = (   0.1000001   0.4041451   0.6114777  )
       173           N   tau( 173) = (   0.1000001   0.4041451   0.9374535  )
       174           N   tau( 174) = (   0.0000001   0.5773502   0.2855019  )
       175           N   tau( 175) = (   0.0000001   0.5773502   0.6114777  )
       176           N   tau( 176) = (   0.0000001   0.5773502   0.9374535  )
       177           N   tau( 177) = (  -0.0999999   0.7505553   0.2855019  )
       178           N   tau( 178) = (  -0.0999999   0.7505553   0.6114777  )
       179           N   tau( 179) = (  -0.0999999   0.7505553   0.9374535  )
       180           N   tau( 180) = (   0.5000001   0.0577350   0.2855019  )
       181           N   tau( 181) = (   0.5000001   0.0577350   0.6114777  )
       182           N   tau( 182) = (   0.5000001   0.0577350   0.9374535  )
       183           N   tau( 183) = (   0.4000001   0.2309401   0.2855019  )
       184           N   tau( 184) = (   0.4000001   0.2309401   0.6114777  )
       185           N   tau( 185) = (   0.4000001   0.2309401   0.9374535  )
       186           N   tau( 186) = (   0.3000001   0.4041451   0.2855019  )
       187           N   tau( 187) = (   0.3000001   0.4041451   0.6114777  )
       188           N   tau( 188) = (   0.3000001   0.4041451   0.9374535  )
       189           N   tau( 189) = (   0.2000001   0.5773502   0.2855019  )
       190           N   tau( 190) = (   0.2000001   0.5773502   0.6114777  )
       191           N   tau( 191) = (   0.2000001   0.5773502   0.9374535  )
       192           N   tau( 192) = (   0.1000001   0.7505553   0.2855019  )
       193           N   tau( 193) = (   0.1000001   0.7505553   0.6114777  )
       194           N   tau( 194) = (   0.1000001   0.7505553   0.9374535  )
       195           N   tau( 195) = (   0.7000001   0.0577350   0.2855019  )
       196           N   tau( 196) = (   0.7000001   0.0577350   0.6114777  )
       197           N   tau( 197) = (   0.7000001   0.0577350   0.9374535  )
       198           N   tau( 198) = (   0.6000001   0.2309401   0.2855019  )
       199           N   tau( 199) = (   0.6000001   0.2309401   0.6114777  )
       200           N   tau( 200) = (   0.6000001   0.2309401   0.9374535  )
       201           N   tau( 201) = (   0.5000001   0.4041451   0.2855019  )
       202           N   tau( 202) = (   0.5000001   0.4041451   0.6114777  )
       203           N   tau( 203) = (   0.5000001   0.4041451   0.9374535  )
       204           N   tau( 204) = (   0.4000001   0.5773502   0.2855019  )
       205           N   tau( 205) = (   0.4000001   0.5773502   0.6114777  )
       206           N   tau( 206) = (   0.4000001   0.5773502   0.9374535  )
       207           N   tau( 207) = (   0.3000001   0.7505553   0.2855019  )
       208           N   tau( 208) = (   0.3000001   0.7505553   0.6114777  )
       209           N   tau( 209) = (   0.3000001   0.7505553   0.9374535  )
       210           N   tau( 210) = (   0.9000001   0.0577350   0.2855019  )
       211           N   tau( 211) = (   0.9000001   0.0577350   0.6114777  )
       212           N   tau( 212) = (   0.9000001   0.0577350   0.9374535  )
       213           N   tau( 213) = (   0.8000001   0.2309401   0.2855019  )
       214           N   tau( 214) = (   0.8000001   0.2309401   0.6114777  )
       215           N   tau( 215) = (   0.8000001   0.2309401   0.9374535  )
       216           N   tau( 216) = (   0.7000001   0.4041451   0.2855019  )
       217           N   tau( 217) = (   0.7000001   0.4041451   0.6114777  )
       218           N   tau( 218) = (   0.7000001   0.4041451   0.9374535  )
       219           N   tau( 219) = (   0.6000001   0.5773502   0.2855019  )
       220           N   tau( 220) = (   0.6000001   0.5773502   0.6114777  )
       221           N   tau( 221) = (   0.6000001   0.5773502   0.9374535  )
       222           N   tau( 222) = (   0.5000001   0.7505553   0.2855019  )
       223           N   tau( 223) = (   0.5000001   0.7505553   0.6114777  )
       224           N   tau( 224) = (   0.5000001   0.7505553   0.9374535  )
       225           N   tau( 225) = (  -0.0000001   0.1154701   0.1225140  )
       226           N   tau( 226) = (  -0.0000001   0.1154701   0.4484898  )
       227           N   tau( 227) = (  -0.0000001   0.1154701   0.7744656  )
       228           N   tau( 228) = (  -0.1000001   0.2886752   0.1225140  )
       229           N   tau( 229) = (  -0.1000001   0.2886752   0.4484898  )
       230           N   tau( 230) = (  -0.1000001   0.2886752   0.7744656  )
       231           N   tau( 231) = (  -0.2000001   0.4618803   0.1225140  )
       232           N   tau( 232) = (  -0.2000001   0.4618803   0.4484898  )
       233           N   tau( 233) = (  -0.2000001   0.4618803   0.7744656  )
       234           N   tau( 234) = (  -0.3000001   0.6350854   0.1225140  )
       235           N   tau( 235) = (  -0.3000001   0.6350854   0.4484898  )
       236           N   tau( 236) = (  -0.3000001   0.6350854   0.7744656  )
       237           N   tau( 237) = (  -0.4000001   0.8082905   0.1225140  )
       238           N   tau( 238) = (  -0.4000001   0.8082905   0.4484898  )
       239           N   tau( 239) = (  -0.4000001   0.8082905   0.7744656  )
       240           N   tau( 240) = (   0.1999999   0.1154701   0.1225140  )
       241           N   tau( 241) = (   0.1999999   0.1154701   0.4484898  )
       242           N   tau( 242) = (   0.1999999   0.1154701   0.7744656  )
       243           N   tau( 243) = (   0.0999999   0.2886752   0.1225140  )
       244           N   tau( 244) = (   0.0999999   0.2886752   0.4484898  )
       245           N   tau( 245) = (   0.0999999   0.2886752   0.7744656  )
       246           N   tau( 246) = (  -0.0000001   0.4618803   0.1225140  )
       247           N   tau( 247) = (  -0.0000001   0.4618803   0.4484898  )
       248           N   tau( 248) = (  -0.0000001   0.4618803   0.7744656  )
       249           N   tau( 249) = (  -0.1000001   0.6350854   0.1225140  )
       250           N   tau( 250) = (  -0.1000001   0.6350854   0.4484898  )
       251           N   tau( 251) = (  -0.1000001   0.6350854   0.7744656  )
       252           N   tau( 252) = (  -0.2000001   0.8082905   0.1225140  )
       253           N   tau( 253) = (  -0.2000001   0.8082905   0.4484898  )
       254           N   tau( 254) = (  -0.2000001   0.8082905   0.7744656  )
       255           N   tau( 255) = (   0.3999999   0.1154701   0.1225140  )
       256           N   tau( 256) = (   0.3999999   0.1154701   0.4484898  )
       257           N   tau( 257) = (   0.3999999   0.1154701   0.7744656  )
       258           N   tau( 258) = (   0.2999999   0.2886752   0.1225140  )
       259           N   tau( 259) = (   0.2999999   0.2886752   0.4484898  )
       260           N   tau( 260) = (   0.2999999   0.2886752   0.7744656  )
       261           N   tau( 261) = (   0.1999999   0.4618803   0.1225140  )
       262           N   tau( 262) = (   0.1999999   0.4618803   0.4484898  )
       263           N   tau( 263) = (   0.1999999   0.4618803   0.7744656  )
       264           N   tau( 264) = (   0.0999999   0.6350854   0.1225140  )
       265           N   tau( 265) = (   0.0999999   0.6350854   0.4484898  )
       266           N   tau( 266) = (   0.0999999   0.6350854   0.7744656  )
       267           N   tau( 267) = (  -0.0000001   0.8082905   0.1225140  )
       268           N   tau( 268) = (  -0.0000001   0.8082905   0.4484898  )
       269           N   tau( 269) = (  -0.0000001   0.8082905   0.7744656  )
       270           N   tau( 270) = (   0.5999999   0.1154701   0.1225140  )
       271           N   tau( 271) = (   0.5999999   0.1154701   0.4484898  )
       272           N   tau( 272) = (   0.5999999   0.1154701   0.7744656  )
       273           N   tau( 273) = (   0.4999999   0.2886752   0.1225140  )
       274           N   tau( 274) = (   0.4999999   0.2886752   0.4484898  )
       275           N   tau( 275) = (   0.4999999   0.2886752   0.7744656  )
       276           N   tau( 276) = (   0.3999999   0.4618803   0.1225140  )
       277           N   tau( 277) = (   0.3999999   0.4618803   0.4484898  )
       278           N   tau( 278) = (   0.3999999   0.4618803   0.7744656  )
       279           N   tau( 279) = (   0.2999999   0.6350854   0.1225140  )
       280           N   tau( 280) = (   0.2999999   0.6350854   0.4484898  )
       281           N   tau( 281) = (   0.2999999   0.6350854   0.7744656  )
       282           N   tau( 282) = (   0.1999999   0.8082905   0.1225140  )
       283           N   tau( 283) = (   0.1999999   0.8082905   0.4484898  )
       284           N   tau( 284) = (   0.1999999   0.8082905   0.7744656  )
       285           N   tau( 285) = (   0.7999999   0.1154701   0.1225140  )
       286           N   tau( 286) = (   0.7999999   0.1154701   0.4484898  )
       287           N   tau( 287) = (   0.7999999   0.1154701   0.7744656  )
       288           N   tau( 288) = (   0.6999999   0.2886752   0.1225140  )
       289           N   tau( 289) = (   0.6999999   0.2886752   0.4484898  )
       290           N   tau( 290) = (   0.6999999   0.2886752   0.7744656  )
       291           N   tau( 291) = (   0.5999999   0.4618803   0.1225140  )
       292           N   tau( 292) = (   0.5999999   0.4618803   0.4484898  )
       293           N   tau( 293) = (   0.5999999   0.4618803   0.7744656  )
       294           N   tau( 294) = (   0.4999999   0.6350854   0.1225140  )
       295           N   tau( 295) = (   0.4999999   0.6350854   0.4484898  )
       296           N   tau( 296) = (   0.4999999   0.6350854   0.7744656  )
       297           N   tau( 297) = (   0.3999999   0.8082905   0.1225140  )
       298           N   tau( 298) = (   0.3999999   0.8082905   0.4484898  )
       299           N   tau( 299) = (   0.3999999   0.8082905   0.7744656  )
       300           Ga  tau( 300) = (   0.1000001   0.0577350   0.2855019  )

   Crystallographic axes

     site n.     atom                  positions (cryst. coord.)
         1           Ga  tau(   1) = (  0.1333334  0.0666666  0.1663874  )
         2           Ga  tau(   2) = (  0.1333334  0.0666666  0.4997208  )
         3           Ga  tau(   3) = (  0.1333334  0.0666666  0.8330541  )
         4           Ga  tau(   4) = (  0.1333334  0.2666666  0.1663874  )
         5           Ga  tau(   5) = (  0.1333334  0.2666666  0.4997208  )
         6           Ga  tau(   6) = (  0.1333334  0.2666666  0.8330541  )
         7           Ga  tau(   7) = (  0.1333334  0.4666666  0.1663874  )
         8           Ga  tau(   8) = (  0.1333334  0.4666666  0.4997208  )
         9           Ga  tau(   9) = (  0.1333334  0.4666666  0.8330541  )
        10           Ga  tau(  10) = (  0.1333334  0.6666666  0.1663874  )
        11           Ga  tau(  11) = (  0.1333334  0.6666666  0.4997208  )
        12           Ga  tau(  12) = (  0.1333334  0.6666666  0.8330541  )
        13           Ga  tau(  13) = (  0.1333334  0.8666666  0.1663874  )
        14           Ga  tau(  14) = (  0.1333334  0.8666666  0.4997208  )
        15           Ga  tau(  15) = (  0.1333334  0.8666666  0.8330541  )
        16           Ga  tau(  16) = (  0.3333334  0.0666666  0.1663874  )
        17           Ga  tau(  17) = (  0.3333334  0.0666666  0.4997208  )
        18           Ga  tau(  18) = (  0.3333334  0.0666666  0.8330541  )
        19           Ga  tau(  19) = (  0.3333334  0.2666666  0.1663874  )
        20           Ga  tau(  20) = (  0.3333334  0.2666666  0.4997208  )
        21           Ga  tau(  21) = (  0.3333334  0.2666666  0.8330541  )
        22           Ga  tau(  22) = (  0.3333334  0.4666666  0.1663874  )
        23           Ga  tau(  23) = (  0.3333334  0.4666666  0.4997208  )
        24           Ga  tau(  24) = (  0.3333334  0.4666666  0.8330541  )
        25           Ga  tau(  25) = (  0.3333334  0.6666666  0.1663874  )
        26           Ga  tau(  26) = (  0.3333334  0.6666666  0.4997208  )
        27           Ga  tau(  27) = (  0.3333334  0.6666666  0.8330541  )
        28           Ga  tau(  28) = (  0.3333334  0.8666666  0.1663874  )
        29           Ga  tau(  29) = (  0.3333334  0.8666666  0.4997208  )
        30           Ga  tau(  30) = (  0.3333334  0.8666666  0.8330541  )
        31           Ga  tau(  31) = (  0.5333334  0.0666666  0.1663874  )
        32           Ga  tau(  32) = (  0.5333334  0.0666666  0.4997208  )
        33           Ga  tau(  33) = (  0.5333334  0.0666666  0.8330541  )
        34           Ga  tau(  34) = (  0.5333334  0.2666666  0.1663874  )
        35           Ga  tau(  35) = (  0.5333334  0.2666666  0.4997208  )
        36           Ga  tau(  36) = (  0.5333334  0.2666666  0.8330541  )
        37           Ga  tau(  37) = (  0.5333334  0.4666666  0.1663874  )
        38           Ga  tau(  38) = (  0.5333334  0.4666666  0.4997208  )
        39           Ga  tau(  39) = (  0.5333334  0.4666666  0.8330541  )
        40           Ga  tau(  40) = (  0.5333334  0.6666666  0.1663874  )
        41           Ga  tau(  41) = (  0.5333334  0.6666666  0.4997208  )
        42           Ga  tau(  42) = (  0.5333334  0.6666666  0.8330541  )
        43           Ga  tau(  43) = (  0.5333334  0.8666666  0.1663874  )
        44           Ga  tau(  44) = (  0.5333334  0.8666666  0.4997208  )
        45           Ga  tau(  45) = (  0.5333334  0.8666666  0.8330541  )
        46           Ga  tau(  46) = (  0.7333334  0.0666666  0.1663874  )
        47           Ga  tau(  47) = (  0.7333334  0.0666666  0.4997208  )
        48           Ga  tau(  48) = (  0.7333334  0.0666666  0.8330541  )
        49           Ga  tau(  49) = (  0.7333334  0.2666666  0.1663874  )
        50           Ga  tau(  50) = (  0.7333334  0.2666666  0.4997208  )
        51           Ga  tau(  51) = (  0.7333334  0.2666666  0.8330541  )
        52           Ga  tau(  52) = (  0.7333334  0.4666666  0.1663874  )
        53           Ga  tau(  53) = (  0.7333334  0.4666666  0.4997208  )
        54           Ga  tau(  54) = (  0.7333334  0.4666666  0.8330541  )
        55           Ga  tau(  55) = (  0.7333334  0.6666666  0.1663874  )
        56           Ga  tau(  56) = (  0.7333334  0.6666666  0.4997208  )
        57           Ga  tau(  57) = (  0.7333334  0.6666666  0.8330541  )
        58           Ga  tau(  58) = (  0.7333334  0.8666666  0.1663874  )
        59           Ga  tau(  59) = (  0.7333334  0.8666666  0.4997208  )
        60           Ga  tau(  60) = (  0.7333334  0.8666666  0.8330541  )
        61           Ga  tau(  61) = (  0.9333334  0.0666666  0.1663874  )
        62           Ga  tau(  62) = (  0.9333334  0.0666666  0.4997208  )
        63           Ga  tau(  63) = (  0.9333334  0.0666666  0.8330541  )
        64           Ga  tau(  64) = (  0.9333334  0.2666666  0.1663874  )
        65           Ga  tau(  65) = (  0.9333334  0.2666666  0.4997208  )
        66           Ga  tau(  66) = (  0.9333334  0.2666666  0.8330541  )
        67           Ga  tau(  67) = (  0.9333334  0.4666666  0.1663874  )
        68           Ga  tau(  68) = (  0.9333334  0.4666666  0.4997208  )
        69           Ga  tau(  69) = (  0.9333334  0.4666666  0.8330541  )
        70           Ga  tau(  70) = (  0.9333334  0.6666666  0.1663874  )
        71           Ga  tau(  71) = (  0.9333334  0.6666666  0.4997208  )
        72           Ga  tau(  72) = (  0.9333334  0.6666666  0.8330541  )
        73           Ga  tau(  73) = (  0.9333334  0.8666666  0.1663874  )
        74           Ga  tau(  74) = (  0.9333334  0.8666666  0.4997208  )
        75           Ga  tau(  75) = (  0.9333334  0.8666666  0.8330541  )
        76           Ga  tau(  76) = (  0.0666666  0.1333334  0.3330541  )
        77           Ga  tau(  77) = (  0.0666666  0.1333334  0.6663874  )
        78           Ga  tau(  78) = (  0.0666666  0.1333334  0.9997208  )
        79           Ga  tau(  79) = (  0.0666666  0.3333334  0.3330541  )
        80           Ga  tau(  80) = (  0.0666666  0.3333334  0.6663874  )
        81           Ga  tau(  81) = (  0.0666666  0.3333334  0.9997208  )
        82           Ga  tau(  82) = (  0.0666666  0.5333334  0.3330541  )
        83           Ga  tau(  83) = (  0.0666666  0.5333334  0.6663874  )
        84           Ga  tau(  84) = (  0.0666666  0.5333334  0.9997208  )
        85           Ga  tau(  85) = (  0.0666666  0.7333334  0.3330541  )
        86           Ga  tau(  86) = (  0.0666666  0.7333334  0.6663874  )
        87           Ga  tau(  87) = (  0.0666666  0.7333334  0.9997208  )
        88           Ga  tau(  88) = (  0.0666666  0.9333334  0.3330541  )
        89           Ga  tau(  89) = (  0.0666666  0.9333334  0.6663874  )
        90           Ga  tau(  90) = (  0.0666666  0.9333334  0.9997208  )
        91           Ga  tau(  91) = (  0.2666666  0.1333334  0.3330541  )
        92           Ga  tau(  92) = (  0.2666666  0.1333334  0.6663874  )
        93           Ga  tau(  93) = (  0.2666666  0.1333334  0.9997208  )
        94           Ga  tau(  94) = (  0.2666666  0.3333334  0.3330541  )
        95           Ga  tau(  95) = (  0.2666666  0.3333334  0.6663874  )
        96           Ga  tau(  96) = (  0.2666666  0.3333334  0.9997208  )
        97           Ga  tau(  97) = (  0.2666666  0.5333334  0.3330541  )
        98           Ga  tau(  98) = (  0.2666666  0.5333334  0.6663874  )
        99           Ga  tau(  99) = (  0.2666666  0.5333334  0.9997208  )
       100           Ga  tau( 100) = (  0.2666666  0.7333334  0.3330541  )
       101           Ga  tau( 101) = (  0.2666666  0.7333334  0.6663874  )
       102           Ga  tau( 102) = (  0.2666666  0.7333334  0.9997208  )
       103           Ga  tau( 103) = (  0.2666666  0.9333334  0.3330541  )
       104           Ga  tau( 104) = (  0.2666666  0.9333334  0.6663874  )
       105           Ga  tau( 105) = (  0.2666666  0.9333334  0.9997208  )
       106           Ga  tau( 106) = (  0.4666666  0.1333334  0.3330541  )
       107           Ga  tau( 107) = (  0.4666666  0.1333334  0.6663874  )
       108           Ga  tau( 108) = (  0.4666666  0.1333334  0.9997208  )
       109           Ga  tau( 109) = (  0.4666666  0.3333334  0.3330541  )
       110           Ga  tau( 110) = (  0.4666666  0.3333334  0.6663874  )
       111           Ga  tau( 111) = (  0.4666666  0.3333334  0.9997208  )
       112           Ga  tau( 112) = (  0.4666666  0.5333334  0.3330541  )
       113           Ga  tau( 113) = (  0.4666666  0.5333334  0.6663874  )
       114           Ga  tau( 114) = (  0.4666666  0.5333334  0.9997208  )
       115           Ga  tau( 115) = (  0.4666666  0.7333334  0.3330541  )
       116           Ga  tau( 116) = (  0.4666666  0.7333334  0.6663874  )
       117           Ga  tau( 117) = (  0.4666666  0.7333334  0.9997208  )
       118           Ga  tau( 118) = (  0.4666666  0.9333334  0.3330541  )
       119           Ga  tau( 119) = (  0.4666666  0.9333334  0.6663874  )
       120           Ga  tau( 120) = (  0.4666666  0.9333334  0.9997208  )
       121           Ga  tau( 121) = (  0.6666666  0.1333334  0.3330541  )
       122           Ga  tau( 122) = (  0.6666666  0.1333334  0.6663874  )
       123           Ga  tau( 123) = (  0.6666666  0.1333334  0.9997208  )
       124           Ga  tau( 124) = (  0.6666666  0.3333334  0.3330541  )
       125           Ga  tau( 125) = (  0.6666666  0.3333334  0.6663874  )
       126           Ga  tau( 126) = (  0.6666666  0.3333334  0.9997208  )
       127           Ga  tau( 127) = (  0.6666666  0.5333334  0.3330541  )
       128           Ga  tau( 128) = (  0.6666666  0.5333334  0.6663874  )
       129           Ga  tau( 129) = (  0.6666666  0.5333334  0.9997208  )
       130           Ga  tau( 130) = (  0.6666666  0.7333334  0.3330541  )
       131           Ga  tau( 131) = (  0.6666666  0.7333334  0.6663874  )
       132           Ga  tau( 132) = (  0.6666666  0.7333334  0.9997208  )
       133           Ga  tau( 133) = (  0.6666666  0.9333334  0.3330541  )
       134           Ga  tau( 134) = (  0.6666666  0.9333334  0.6663874  )
       135           Ga  tau( 135) = (  0.6666666  0.9333334  0.9997208  )
       136           Ga  tau( 136) = (  0.8666666  0.1333334  0.3330541  )
       137           Ga  tau( 137) = (  0.8666666  0.1333334  0.6663874  )
       138           Ga  tau( 138) = (  0.8666666  0.1333334  0.9997208  )
       139           Ga  tau( 139) = (  0.8666666  0.3333334  0.3330541  )
       140           Ga  tau( 140) = (  0.8666666  0.3333334  0.6663874  )
       141           Ga  tau( 141) = (  0.8666666  0.3333334  0.9997208  )
       142           Ga  tau( 142) = (  0.8666666  0.5333334  0.3330541  )
       143           Ga  tau( 143) = (  0.8666666  0.5333334  0.6663874  )
       144           Ga  tau( 144) = (  0.8666666  0.5333334  0.9997208  )
       145           Ga  tau( 145) = (  0.8666666  0.7333334  0.3330541  )
       146           Ga  tau( 146) = (  0.8666666  0.7333334  0.6663874  )
       147           Ga  tau( 147) = (  0.8666666  0.7333334  0.9997208  )
       148           Ga  tau( 148) = (  0.8666666  0.9333334  0.3330541  )
       149           Ga  tau( 149) = (  0.8666666  0.9333334  0.6663874  )
       150           Ga  tau( 150) = (  0.8666666  0.9333334  0.9997208  )
       151           N   tau( 151) = (  0.1333334  0.0666666  0.6252792  )
       152           N   tau( 152) = (  0.1333334  0.0666666  0.9586126  )
       153           N   tau( 153) = (  0.1333334  0.2666666  0.2919459  )
       154           N   tau( 154) = (  0.1333334  0.2666666  0.6252792  )
       155           N   tau( 155) = (  0.1333334  0.2666666  0.9586126  )
       156           N   tau( 156) = (  0.1333334  0.4666666  0.2919459  )
       157           N   tau( 157) = (  0.1333334  0.4666666  0.6252792  )
       158           N   tau( 158) = (  0.1333334  0.4666666  0.9586126  )
       159           N   tau( 159) = (  0.1333334  0.6666666  0.2919459  )
       160           N   tau( 160) = (  0.1333334  0.6666666  0.6252792  )
       161           N   tau( 161) = (  0.1333334  0.6666666  0.9586126  )
       162           N   tau( 162) = (  0.1333334  0.8666666  0.2919459  )
       163           N   tau( 163) = (  0.1333334  0.8666666  0.6252792  )
       164           N   tau( 164) = (  0.1333334  0.8666666  0.9586126  )
       165           N   tau( 165) = (  0.3333334  0.0666666  0.2919459  )
       166           N   tau( 166) = (  0.3333334  0.0666666  0.6252792  )
       167           N   tau( 167) = (  0.3333334  0.0666666  0.9586126  )
       168           N   tau( 168) = (  0.3333334  0.2666666  0.2919459  )
       169           N   tau( 169) = (  0.3333334  0.2666666  0.6252792  )
       170           N   tau( 170) = (  0.3333334  0.2666666  0.9586126  )
       171           N   tau( 171) = (  0.3333334  0.4666666  0.2919459  )
       172           N   tau( 172) = (  0.3333334  0.4666666  0.6252792  )
       173           N   tau( 173) = (  0.3333334  0.4666666  0.9586126  )
       174           N   tau( 174) = (  0.3333334  0.6666666  0.2919459  )
       175           N   tau( 175) = (  0.3333334  0.6666666  0.6252792  )
       176           N   tau( 176) = (  0.3333334  0.6666666  0.9586126  )
       177           N   tau( 177) = (  0.3333334  0.8666666  0.2919459  )
       178           N   tau( 178) = (  0.3333334  0.8666666  0.6252792  )
       179           N   tau( 179) = (  0.3333334  0.8666666  0.9586126  )
       180           N   tau( 180) = (  0.5333334  0.0666666  0.2919459  )
       181           N   tau( 181) = (  0.5333334  0.0666666  0.6252792  )
       182           N   tau( 182) = (  0.5333334  0.0666666  0.9586126  )
       183           N   tau( 183) = (  0.5333334  0.2666666  0.2919459  )
       184           N   tau( 184) = (  0.5333334  0.2666666  0.6252792  )
       185           N   tau( 185) = (  0.5333334  0.2666666  0.9586126  )
       186           N   tau( 186) = (  0.5333334  0.4666666  0.2919459  )
       187           N   tau( 187) = (  0.5333334  0.4666666  0.6252792  )
       188           N   tau( 188) = (  0.5333334  0.4666666  0.9586126  )
       189           N   tau( 189) = (  0.5333334  0.6666666  0.2919459  )
       190           N   tau( 190) = (  0.5333334  0.6666666  0.6252792  )
       191           N   tau( 191) = (  0.5333334  0.6666666  0.9586126  )
       192           N   tau( 192) = (  0.5333334  0.8666666  0.2919459  )
       193           N   tau( 193) = (  0.5333334  0.8666666  0.6252792  )
       194           N   tau( 194) = (  0.5333334  0.8666666  0.9586126  )
       195           N   tau( 195) = (  0.7333334  0.0666666  0.2919459  )
       196           N   tau( 196) = (  0.7333334  0.0666666  0.6252792  )
       197           N   tau( 197) = (  0.7333334  0.0666666  0.9586126  )
       198           N   tau( 198) = (  0.7333334  0.2666666  0.2919459  )
       199           N   tau( 199) = (  0.7333334  0.2666666  0.6252792  )
       200           N   tau( 200) = (  0.7333334  0.2666666  0.9586126  )
       201           N   tau( 201) = (  0.7333334  0.4666666  0.2919459  )
       202           N   tau( 202) = (  0.7333334  0.4666666  0.6252792  )
       203           N   tau( 203) = (  0.7333334  0.4666666  0.9586126  )
       204           N   tau( 204) = (  0.7333334  0.6666666  0.2919459  )
       205           N   tau( 205) = (  0.7333334  0.6666666  0.6252792  )
       206           N   tau( 206) = (  0.7333334  0.6666666  0.9586126  )
       207           N   tau( 207) = (  0.7333334  0.8666666  0.2919459  )
       208           N   tau( 208) = (  0.7333334  0.8666666  0.6252792  )
       209           N   tau( 209) = (  0.7333334  0.8666666  0.9586126  )
       210           N   tau( 210) = (  0.9333334  0.0666666  0.2919459  )
       211           N   tau( 211) = (  0.9333334  0.0666666  0.6252792  )
       212           N   tau( 212) = (  0.9333334  0.0666666  0.9586126  )
       213           N   tau( 213) = (  0.9333334  0.2666666  0.2919459  )
       214           N   tau( 214) = (  0.9333334  0.2666666  0.6252792  )
       215           N   tau( 215) = (  0.9333334  0.2666666  0.9586126  )
       216           N   tau( 216) = (  0.9333334  0.4666666  0.2919459  )
       217           N   tau( 217) = (  0.9333334  0.4666666  0.6252792  )
       218           N   tau( 218) = (  0.9333334  0.4666666  0.9586126  )
       219           N   tau( 219) = (  0.9333334  0.6666666  0.2919459  )
       220           N   tau( 220) = (  0.9333334  0.6666666  0.6252792  )
       221           N   tau( 221) = (  0.9333334  0.6666666  0.9586126  )
       222           N   tau( 222) = (  0.9333334  0.8666666  0.2919459  )
       223           N   tau( 223) = (  0.9333334  0.8666666  0.6252792  )
       224           N   tau( 224) = (  0.9333334  0.8666666  0.9586126  )
       225           N   tau( 225) = (  0.0666666  0.1333334  0.1252792  )
       226           N   tau( 226) = (  0.0666666  0.1333334  0.4586126  )
       227           N   tau( 227) = (  0.0666666  0.1333334  0.7919459  )
       228           N   tau( 228) = (  0.0666666  0.3333334  0.1252792  )
       229           N   tau( 229) = (  0.0666666  0.3333334  0.4586126  )
       230           N   tau( 230) = (  0.0666666  0.3333334  0.7919459  )
       231           N   tau( 231) = (  0.0666666  0.5333334  0.1252792  )
       232           N   tau( 232) = (  0.0666666  0.5333334  0.4586126  )
       233           N   tau( 233) = (  0.0666666  0.5333334  0.7919459  )
       234           N   tau( 234) = (  0.0666666  0.7333334  0.1252792  )
       235           N   tau( 235) = (  0.0666666  0.7333334  0.4586126  )
       236           N   tau( 236) = (  0.0666666  0.7333334  0.7919459  )
       237           N   tau( 237) = (  0.0666666  0.9333334  0.1252792  )
       238           N   tau( 238) = (  0.0666666  0.9333334  0.4586126  )
       239           N   tau( 239) = (  0.0666666  0.9333334  0.7919459  )
       240           N   tau( 240) = (  0.2666666  0.1333334  0.1252792  )
       241           N   tau( 241) = (  0.2666666  0.1333334  0.4586126  )
       242           N   tau( 242) = (  0.2666666  0.1333334  0.7919459  )
       243           N   tau( 243) = (  0.2666666  0.3333334  0.1252792  )
       244           N   tau( 244) = (  0.2666666  0.3333334  0.4586126  )
       245           N   tau( 245) = (  0.2666666  0.3333334  0.7919459  )
       246           N   tau( 246) = (  0.2666666  0.5333334  0.1252792  )
       247           N   tau( 247) = (  0.2666666  0.5333334  0.4586126  )
       248           N   tau( 248) = (  0.2666666  0.5333334  0.7919459  )
       249           N   tau( 249) = (  0.2666666  0.7333334  0.1252792  )
       250           N   tau( 250) = (  0.2666666  0.7333334  0.4586126  )
       251           N   tau( 251) = (  0.2666666  0.7333334  0.7919459  )
       252           N   tau( 252) = (  0.2666666  0.9333334  0.1252792  )
       253           N   tau( 253) = (  0.2666666  0.9333334  0.4586126  )
       254           N   tau( 254) = (  0.2666666  0.9333334  0.7919459  )
       255           N   tau( 255) = (  0.4666666  0.1333334  0.1252792  )
       256           N   tau( 256) = (  0.4666666  0.1333334  0.4586126  )
       257           N   tau( 257) = (  0.4666666  0.1333334  0.7919459  )
       258           N   tau( 258) = (  0.4666666  0.3333334  0.1252792  )
       259           N   tau( 259) = (  0.4666666  0.3333334  0.4586126  )
       260           N   tau( 260) = (  0.4666666  0.3333334  0.7919459  )
       261           N   tau( 261) = (  0.4666666  0.5333334  0.1252792  )
       262           N   tau( 262) = (  0.4666666  0.5333334  0.4586126  )
       263           N   tau( 263) = (  0.4666666  0.5333334  0.7919459  )
       264           N   tau( 264) = (  0.4666666  0.7333334  0.1252792  )
       265           N   tau( 265) = (  0.4666666  0.7333334  0.4586126  )
       266           N   tau( 266) = (  0.4666666  0.7333334  0.7919459  )
       267           N   tau( 267) = (  0.4666666  0.9333334  0.1252792  )
       268           N   tau( 268) = (  0.4666666  0.9333334  0.4586126  )
       269           N   tau( 269) = (  0.4666666  0.9333334  0.7919459  )
       270           N   tau( 270) = (  0.6666666  0.1333334  0.1252792  )
       271           N   tau( 271) = (  0.6666666  0.1333334  0.4586126  )
       272           N   tau( 272) = (  0.6666666  0.1333334  0.7919459  )
       273           N   tau( 273) = (  0.6666666  0.3333334  0.1252792  )
       274           N   tau( 274) = (  0.6666666  0.3333334  0.4586126  )
       275           N   tau( 275) = (  0.6666666  0.3333334  0.7919459  )
       276           N   tau( 276) = (  0.6666666  0.5333334  0.1252792  )
       277           N   tau( 277) = (  0.6666666  0.5333334  0.4586126  )
       278           N   tau( 278) = (  0.6666666  0.5333334  0.7919459  )
       279           N   tau( 279) = (  0.6666666  0.7333334  0.1252792  )
       280           N   tau( 280) = (  0.6666666  0.7333334  0.4586126  )
       281           N   tau( 281) = (  0.6666666  0.7333334  0.7919459  )
       282           N   tau( 282) = (  0.6666666  0.9333334  0.1252792  )
       283           N   tau( 283) = (  0.6666666  0.9333334  0.4586126  )
       284           N   tau( 284) = (  0.6666666  0.9333334  0.7919459  )
       285           N   tau( 285) = (  0.8666666  0.1333334  0.1252792  )
       286           N   tau( 286) = (  0.8666666  0.1333334  0.4586126  )
       287           N   tau( 287) = (  0.8666666  0.1333334  0.7919459  )
       288           N   tau( 288) = (  0.8666666  0.3333334  0.1252792  )
       289           N   tau( 289) = (  0.8666666  0.3333334  0.4586126  )
       290           N   tau( 290) = (  0.8666666  0.3333334  0.7919459  )
       291           N   tau( 291) = (  0.8666666  0.5333334  0.1252792  )
       292           N   tau( 292) = (  0.8666666  0.5333334  0.4586126  )
       293           N   tau( 293) = (  0.8666666  0.5333334  0.7919459  )
       294           N   tau( 294) = (  0.8666666  0.7333334  0.1252792  )
       295           N   tau( 295) = (  0.8666666  0.7333334  0.4586126  )
       296           N   tau( 296) = (  0.8666666  0.7333334  0.7919459  )
       297           N   tau( 297) = (  0.8666666  0.9333334  0.1252792  )
       298           N   tau( 298) = (  0.8666666  0.9333334  0.4586126  )
       299           N   tau( 299) = (  0.8666666  0.9333334  0.7919459  )
       300           Ga  tau( 300) = (  0.1333334  0.0666666  0.2919459  )

     number of k points=     6  Gaussian smearing, width (Ry)=  0.0100
                       cart. coord. in units 2pi/alat
        k(    1) = (   0.0000000   0.0000000   0.0000000), wk =   0.2500000
        k(    2) = (   0.0000000   0.0000000  -0.5112854), wk =   0.2500000
        k(    3) = (   0.0000000  -0.5773503   0.0000000), wk =   0.5000000
        k(    4) = (   0.0000000  -0.5773503  -0.5112854), wk =   0.5000000
        k(    5) = (  -0.5000000  -0.2886751   0.0000000), wk =   0.2500000
        k(    6) = (  -0.5000000  -0.2886751  -0.5112854), wk =   0.2500000

                       cryst. coord.
        k(    1) = (   0.0000000   0.0000000   0.0000000), wk =   0.2500000
        k(    2) = (   0.0000000   0.0000000  -0.5000000), wk =   0.2500000
        k(    3) = (   0.0000000  -0.5000000   0.0000000), wk =   0.5000000
        k(    4) = (   0.0000000  -0.5000000  -0.5000000), wk =   0.5000000
        k(    5) = (  -0.5000000  -0.0000000   0.0000000), wk =   0.2500000
        k(    6) = (  -0.5000000  -0.0000000  -0.5000000), wk =   0.2500000

     Dense  grid:  2698283 G-vectors     FFT dimensions: ( 192, 192, 180)

     Smooth grid:  1930731 G-vectors     FFT dimensions: ( 180, 180, 160)

     Dynamical RAM for                 wfc:      93.54 MB

     Dynamical RAM for     wfc (w. buffer):     280.61 MB

     Dynamical RAM for           str. fact:       1.29 MB

     Dynamical RAM for           local pot:       0.00 MB

     Dynamical RAM for          nlocal pot:     224.93 MB

     Dynamical RAM for                qrad:       3.00 MB

     Dynamical RAM for          rho,v,vnew:       4.46 MB

     Dynamical RAM for               rhoin:       1.49 MB

     Dynamical RAM for            rho*nmix:      10.29 MB

     Dynamical RAM for           G-vectors:       2.64 MB

     Dynamical RAM for          h,s,v(r/c):    1936.43 MB

     Dynamical RAM for          <psi|beta>:      97.01 MB

     Dynamical RAM for                 psi:     374.15 MB

     Dynamical RAM for                hpsi:     374.15 MB

     Dynamical RAM for                spsi:     374.15 MB

     Dynamical RAM for      wfcinit/wfcrot:     247.60 MB

     Dynamical RAM for           addusdens:      54.68 MB

     Dynamical RAM for          addusforce:     103.36 MB

     Dynamical RAM for         addusstress:      32.57 MB

     Estimated static dynamical RAM per process >     524.56 MB

     Estimated max dynamical RAM per process >       3.60 GB

     Estimated total dynamical RAM >     920.76 GB

     Atomic positions and unit cell read from directory:
     ./GaN.save/
     Atomic positions from file used, from input discarded
 

     Check: negative core charge=   -0.000003

     The initial density is read from file :
     ./GaN.save/charge-density



     %%%%%%%%%%%%%%%%%%%%%%%%%%%%%%%%%%%%%%%%%%%%%%%%%%%%%%%%%%%%%%%%%%%%%%%%
     %                                                                      %
     % You are using vdW-DF, which was implemented by the Thonhauser group. %
     % Please cite the following two papers that made this development      %
     % possible and the two reviews that describe the various versions:     %
     %                                                                      %
     %   T. Thonhauser et al., PRL 115, 136402 (2015).                      %
     %   T. Thonhauser et al., PRB 76, 125112 (2007).                       %
     %   K. Berland et al., Rep. Prog. Phys. 78, 066501 (2015).             %
     %   D.C. Langreth et al., J. Phys.: Condens. Matter 21, 084203 (2009). %
     %                                                                      %
     % If you are calculating stress with vdW-DF, please also cite:         %
     %                                                                      %
     %   R. Sabatini et al., J. Phys.: Condens. Matter 24, 424209 (2012).   %
     %                                                                      %
     %%%%%%%%%%%%%%%%%%%%%%%%%%%%%%%%%%%%%%%%%%%%%%%%%%%%%%%%%%%%%%%%%%%%%%%%

     %%%%%%%%%%%%%%%%%%%%%%%%%%%%%%%%%%%%%%%%%%%%%%%%%%%%%%%%%%%%%%%%%%%%%%%%
     %                                                                      %
     %  vdW-DF NEWS:                                                        %
     %                                                                      %
     %  * vdW-DF3 is now available. DOI: 10.1021/acs.jctc.0c00471           %
     %    use with input_dft = 'vdW-DF3-opt1' or 'vdW-DF3-opt2'             %
     %                                                                      %
     %  * Unscreened and range-separated vdW-DF hybrid functionals          %
     %    DOI: 10.1063/1.4986522 and 10.1088/1361-648X/ac2ad2               %
     %    use with input_dft = 'vdW-DF-cx0' (etc) and 'vdW-DF-ahcx'         %
     %                                                                      %
     %%%%%%%%%%%%%%%%%%%%%%%%%%%%%%%%%%%%%%%%%%%%%%%%%%%%%%%%%%%%%%%%%%%%%%%%


     Carrying out vdW-DF run using the following parameters:
     Nqs    =  20  Npoints =  1024  r_max =  100.000
     q_mesh =  0.00001000  0.04494208  0.09755937  0.15916263
               0.23128650  0.31572767  0.41458969  0.53033537
               0.66584808  0.82450364  1.01025438  1.22772762
               1.48234092  1.78043706  2.12944203  2.53805004
               3.01644009  3.57652955  4.23227104  5.00000000


     -----------------------------------------------
     Non-local corr. energy    =      82.11848770 Ry
     -----------------------------------------------

     Starting wfcs from file
     Checking if some PAW data can be deallocated... 
       PAW data deallocated on  149 nodes for type:  1
       PAW data deallocated on  107 nodes for type:  2

     total cpu time spent up to now is       41.0 secs

     Self-consistent Calculation

     iteration #  1     ecut=    70.00 Ry     beta= 0.70
     Davidson diagonalization with overlap

---- Real-time Memory Report at c_bands before calling an iterative solver
           553 MiB given to the printing process from OS
             0 MiB allocation reported by mallinfo(arena+hblkhd)
       1603402 MiB available memory on the node where the printing process lives
------------------
     ethr =  1.00E-05,  avg # of iterations =  1.0

     Threshold (ethr) on eigenvalues was too large:
     Diagonalizing with lowered threshold

     Davidson diagonalization with overlap

---- Real-time Memory Report at c_bands before calling an iterative solver
          2346 MiB given to the printing process from OS
             0 MiB allocation reported by mallinfo(arena+hblkhd)
       1591336 MiB available memory on the node where the printing process lives
------------------
     ethr =  2.79E-13,  avg # of iterations = 17.8


     -----------------------------------------------
     Non-local corr. energy    =      82.11848758 Ry
     -----------------------------------------------


     total cpu time spent up to now is     3026.1 secs

     End of self-consistent calculation

          k = 0.0000 0.0000 0.0000 (241213 PWs)   bands (ev):

    -6.8384  -6.6351  -6.6248  -6.6144  -6.6142  -6.6120  -6.5984  -6.5982
    -6.5628  -6.4827  -6.4823  -6.4761  -6.4726  -6.4694  -6.4692  -6.4595
    -6.4592  -6.4484  -6.4481  -6.4422  -6.4174  -6.4134  -6.4106  -6.4076
    -6.4070  -6.4055  -6.4052  -6.4045  -6.3945  -6.3923  -6.3914  -6.3906
    -6.3832  -6.3830  -6.3692  -6.3669  -6.3609  -6.3608  -6.3606  -6.3561
    -6.3550  -6.3546  -6.3517  -6.3506  -6.3503  -6.3499  -6.3495  -6.3493
    -6.3476  -6.3475  -6.3462  -6.3457  -6.3456  -6.3434  -6.3432  -6.3424
    -6.3415  -6.3383  -6.3382  -6.3373  -6.3370  -6.3362  -6.3362  -6.3338
    -6.3336  -6.3333  -6.3329  -6.3323  -6.3315  -6.3308  -6.3301  -6.3290
    -6.3288  -6.3244  -6.3241  -6.3236  -6.3223  -6.3222  -6.3219  -6.3210
    -6.3209  -6.3206  -6.3200  -6.3184  -6.3181  -6.3173  -6.3171  -6.3161
    -6.3154  -6.3148  -6.3132  -6.3126  -6.3117  -6.3110  -6.3088  -6.3072
    -6.3059  -6.3057  -6.3036  -6.3036  -6.3029  -6.3022  -6.3015  -6.2995
    -6.2990  -6.2984  -6.2982  -6.2971  -6.2970  -6.2947  -6.2944  -6.2909
    -6.2907  -6.2906  -6.2876  -6.2864  -6.2863  -6.2861  -6.2833  -6.2800
    -6.2799  -6.2749  -6.2740  -6.2735  -6.2725  -6.2685  -6.2681  -6.2629
    -6.2628  -6.2617  -6.2599  -6.2594  -6.2549  -6.2546  -6.2533  -6.2496
    -6.2369  -6.2346  -6.2344  -6.2211  -6.2061  -6.2057  -6.1989  -6.1818
    -6.1818  -6.1639  -6.1622  -6.1171  -6.1166  -5.2457  -5.2438  -5.2437
    -5.2302  -5.2302  -5.2287  -5.2284  -5.2283  -5.2274  -5.2267  -5.2229
    -5.2229  -5.2181  -5.2180  -5.2165  -5.2164  -5.2143  -5.2143  -5.2121
    -5.2101  -5.2100  -5.2088  -5.2088  -5.2084  -5.2083  -5.2081  -5.2068
    -5.2068  -5.2060  -5.2044  -5.2043  -5.2039  -5.2038  -5.2019  -5.2015
    -5.2014  -5.2013  -5.2003  -5.2002  -5.1994  -5.1984  -5.1984  -5.1972
    -5.1972  -5.1969  -5.1962  -5.1952  -5.1926  -5.1926  -5.1924  -5.1923
    -5.1905  -5.1904  -5.1904  -5.1888  -5.1881  -5.1881  -5.1872  -5.1872
    -5.1852  -5.1851  -5.1842  -5.1821  -5.1821  -5.1811  -5.1810  -5.1807
    -5.1797  -5.1792  -5.1781  -5.1780  -5.1780  -5.1773  -5.1768  -5.1767
    -5.1761  -5.1756  -5.1756  -5.1749  -5.1749  -5.1737  -5.1736  -5.1735
    -5.1731  -5.1717  -5.1717  -5.1715  -5.1712  -5.1701  -5.1701  -5.1701
    -5.1691  -5.1691  -5.1683  -5.1683  -5.1674  -5.1673  -5.1670  -5.1662
    -5.1662  -5.1662  -5.1655  -5.1655  -5.1641  -5.1641  -5.1636  -5.1632
    -5.1624  -5.1620  -5.1619  -5.1618  -5.1599  -5.1598  -5.1598  -5.1589
    -5.1589  -5.1585  -5.1585  -5.1569  -5.1561  -5.1558  -5.1557  -5.1550
    -5.1547  -5.1546  -5.1539  -5.1536  -5.1524  -5.1523  -5.1516  -5.1516
    -5.1509  -5.1505  -5.1505  -5.1500  -5.1495  -5.1495  -5.1484  -5.1484
    -5.1480  -5.1473  -5.1467  -5.1467  -5.1452  -5.1451  -5.1451  -5.1448
    -5.1437  -5.1431  -5.1430  -5.1428  -5.1422  -5.1422  -5.1415  -5.1413
    -5.1413  -5.1398  -5.1398  -5.1389  -5.1389  -5.1382  -5.1369  -5.1368
    -5.1362  -5.1360  -5.1360  -5.1359  -5.1348  -5.1347  -5.1347  -5.1323
    -5.1323  -5.1315  -5.1308  -5.1308  -5.1308  -5.1298  -5.1297  -5.1284
    -5.1280  -5.1279  -5.1275  -5.1265  -5.1263  -5.1262  -5.1251  -5.1251
    -5.1228  -5.1220  -5.1219  -5.1210  -5.1209  -5.1207  -5.1182  -5.1174
    -5.1173  -5.1173  -5.1166  -5.1166  -5.1166  -5.1140  -5.1140  -5.1128
    -5.1124  -5.1123  -5.1113  -5.1102  -5.1102  -5.1091  -5.1091  -5.1077
    -5.1073  -5.1056  -5.1052  -5.1052  -5.1045  -5.1044  -5.1031  -5.1030
    -5.1027  -5.1017  -5.0998  -5.0992  -5.0992  -5.0981  -5.0981  -5.0965
    -5.0958  -5.0938  -5.0933  -5.0919  -5.0918  -5.0911  -5.0911  -5.0884
    -5.0883  -5.0862  -5.0862  -5.0858  -5.0843  -5.0831  -5.0831  -5.0807
    -5.0807  -5.0803  -5.0802  -5.0795  -5.0792  -5.0791  -5.0788  -5.0788
    -5.0780  -5.0757  -5.0756  -5.0756  -5.0755  -5.0749  -5.0749  -5.0732
    -5.0731  -5.0726  -5.0724  -5.0721  -5.0721  -5.0716  -5.0715  -5.0706
    -5.0695  -5.0695  -5.0691  -5.0690  -5.0674  -5.0673  -5.0671  -5.0663
    -5.0663  -5.0661  -5.0655  -5.0655  -5.0654  -5.0648  -5.0648  -5.0642
    -5.0642  -5.0641  -5.0641  -5.0629  -5.0628  -5.0624  -5.0618  -5.0618
    -5.0606  -5.0601  -5.0601  -5.0592  -5.0592  -5.0586  -5.0585  -5.0583
    -5.0580  -5.0575  -5.0575  -5.0557  -5.0557  -5.0557  -5.0553  -5.0543
    -5.0543  -5.0542  -5.0526  -5.0525  -5.0520  -5.0520  -5.0513  -5.0509
    -5.0509  -5.0507  -5.0496  -5.0496  -5.0496  -5.0486  -5.0483  -5.0483
    -5.0477  -5.0476  -5.0473  -5.0473  -5.0470  -5.0457  -5.0456  -5.0452
    -5.0449  -5.0442  -5.0441  -5.0441  -5.0437  -5.0437  -5.0422  -5.0404
    -5.0403  -5.0403  -5.0400  -5.0395  -5.0395  -5.0383  -5.0377  -5.0377
    -5.0370  -5.0369  -5.0369  -5.0360  -5.0360  -5.0350  -5.0348  -5.0348
    -5.0343  -5.0340  -5.0340  -5.0334  -5.0333  -5.0327  -5.0317  -5.0317
    -5.0315  -5.0312  -5.0312  -5.0305  -5.0301  -5.0301  -5.0295  -5.0295
    -5.0285  -5.0284  -5.0284  -5.0277  -5.0272  -5.0272  -5.0271  -5.0251
    -5.0251  -5.0243  -5.0242  -5.0239  -5.0238  -5.0230  -5.0230  -5.0224
    -5.0220  -5.0220  -5.0217  -5.0212  -5.0204  -5.0204  -5.0203  -5.0194
    -5.0194  -5.0175  -5.0170  -5.0170  -5.0159  -5.0144  -5.0143  -5.0143
    -5.0143  -5.0133  -5.0124  -5.0123  -5.0118  -5.0118  -5.0111  -5.0111
    -5.0109  -5.0109  -5.0092  -5.0086  -5.0086  -5.0070  -5.0069  -5.0067
    -5.0066  -5.0063  -5.0052  -5.0050  -5.0049  -5.0049  -5.0048  -5.0047
    -5.0041  -5.0026  -5.0026  -5.0025  -5.0019  -5.0018  -5.0015  -5.0012
    -4.9997  -4.9997  -4.9991  -4.9990  -4.9988  -4.9984  -4.9978  -4.9978
    -4.9976  -4.9975  -4.9975  -4.9959  -4.9958  -4.9958  -4.9946  -4.9942
    -4.9942  -4.9941  -4.9932  -4.9932  -4.9925  -4.9919  -4.9918  -4.9915
    -4.9909  -4.9908  -4.9903  -4.9903  -4.9888  -4.9887  -4.9887  -4.9886
    -4.9883  -4.9882  -4.9878  -4.9858  -4.9857  -4.9851  -4.9851  -4.9833
    -4.9833  -4.9829  -4.9825  -4.9824  -4.9817  -4.9809  -4.9808  -4.9808
    -4.9801  -4.9799  -4.9796  -4.9793  -4.9793  -4.9790  -4.9790  -4.9772
    -4.9772  -4.9767  -4.9757  -4.9757  -4.9750  -4.9750  -4.9748  -4.9738
    -4.9729  -4.9726  -4.9725  -4.9707  -4.9707  -4.9707  -4.9704  -4.9704
    -4.9700  -4.9698  -4.9687  -4.9687  -4.9681  -4.9681  -4.9669  -4.9669
    -4.9667  -4.9659  -4.9655  -4.9650  -4.9649  -4.9635  -4.9634  -4.9628
    -4.9628  -4.9628  -4.9610  -4.9610  -4.9606  -4.9594  -4.9587  -4.9587
    -4.9586  -4.9582  -4.9580  -4.9575  -4.9574  -4.9574  -4.9567  -4.9545
    -4.9544  -4.9533  -4.9532  -4.9508  -4.9492  -4.9492  -4.9491  -4.9489
    -4.9488  -4.9487  -4.9472  -4.9471  -4.9452  -4.9452  -4.9449  -4.9448
    -4.9425  -4.9423  -4.9400  -4.9400  -4.9396  -4.9386  -4.9386  -4.9365
    -4.9364  -4.9360  -4.9344  -4.9312  -4.9312  -4.9293  -4.9274  -4.9274
    -4.9246  -4.9245  -4.9225  -4.9216  -4.9198  -4.9195  -4.9178  -4.9170
    -4.9168  -4.9167  -4.9107  -4.9099  -4.9097  -4.9013  -4.9010  -4.8873
    -4.8794  -4.8794  -4.8707  -4.8704  -4.8691  -4.8472  -4.8252  -4.8233
    -4.8233  -4.8129  -4.8125  -4.7783  -4.7743  -4.7473  -4.7445  -4.7443
    -4.7419  -4.7393  -4.7392  -4.7281  -4.7279  -4.7063  -4.7056  -4.6939
    -4.6935  -4.6847  -4.6783  -4.6767  -4.6752  -4.6561  -4.5789  -4.5789
    -4.5630  -4.4572  -4.4571  -4.2848  -4.2844  -4.2843  -4.2725  -4.2723
    -4.2601  -4.2428  -4.2279  -4.0609  -4.0609  -4.0444  -4.0426  -4.0426
    -4.0368  -4.0363  -4.0362  -4.0316  -4.0222  -4.0220  -4.0113  -3.9808
    -3.9807  -3.9748  -3.9611  -3.9609  -3.9467  -3.9265  -3.9248  -3.9226
    -3.9225  -3.9181  -3.9180  -3.9026  -3.9025  -3.8966  -3.8966  -3.8682
    -3.8493  -3.8492  -3.8188  -3.8186  -3.8174  -3.7744  -3.7681  -3.7680
    -3.7660  -3.7505  -3.7448  -3.7446  -3.7196  -3.7195  -3.6848  -3.6847
    -3.6762  -3.5601  -3.4594  -3.3515  -3.3499  -3.3497  -3.3493  -3.3492
    -3.3486  -3.3480  -3.3480  -3.3393  -3.3392  -3.3355  -3.3344  -3.3342
    -3.3304  -3.3235  -3.3235  -3.3175  -3.3053  -3.2502  -3.2501  -3.2437
    -3.2437  -3.2402  -3.2402  -3.2375  -3.2370  -3.2312  -3.2290  -3.2287
    -3.2286  -3.2284  -3.2245  -3.2242  -3.2239  -3.2175  -3.2175  -3.2156
    -3.2081  -3.2079  -3.1907  -3.1907  -3.1783  -3.1781  -3.1704  -3.1638
    -3.1635  -3.1179  -3.0624  -3.0210  -3.0206  -3.0205  -3.0189  -3.0189
    -3.0088  -3.0088  -3.0083  -2.9950  -2.9597  -2.9596  -2.9148  -2.9007
    -2.9006  -2.8887  -2.8885  -2.8871  -2.8851  -2.8835  -2.8833  -2.8739
    -2.8668  -2.8667  -2.8514  -2.8423  -2.8309  -2.8307  -2.8026  -2.8024
     2.0375   2.1186   2.5721   2.5722   2.5740   2.5996   2.5996   2.6332
     2.6335   2.6367   2.6370   2.6395   2.6426   2.6429   2.6453   2.6463
     2.6467   2.6504   2.6506   2.6524   2.6527   2.6533   2.6597   2.6598
     2.6663   2.6788   2.6891   2.6891   2.6937   2.7365   2.7371   2.7588
     2.8209   2.8216   2.8344   2.8487   2.8491   2.8506   2.9639   2.9714
     2.9714   2.9914   2.9960   2.9962   3.0194   3.0255   3.0257   3.0273
     3.0275   3.0424   3.0437   3.0438   3.0515   3.0765   3.1206   3.1207
     3.1566   3.1608   3.1610   3.1897   3.1897   3.2135   3.2646   3.2646
     3.2679   3.2680   3.2709   3.2819   3.2888   3.2910   3.2911   3.2973
     3.2976   3.3064   3.3112   3.3235   3.3315   3.3319   3.3342   3.3346
     3.3623   3.3629   3.4482   3.4841   3.4844   3.4877   3.6268   3.6368
     3.7234   3.7236   3.7257   3.7306   3.7329   3.7330   3.7351   3.7376
     3.7378   3.7432   3.7628   3.7629   3.7674   3.7674   3.7945   3.7947
     3.8703   3.9029   3.9750   3.9757   3.9967   3.9980   3.9985   4.0016
     4.0210   4.0211   4.0267   4.0336   4.0336   4.0412   4.0555   4.0557
     4.0982   4.0983   4.1045   4.4231   4.5695   4.5698   4.5797   4.5802
     4.5804   4.6159   4.6253   4.6271   4.6278   4.6457   4.6463   4.6482
     4.6740   4.6740   4.6817   4.6824   4.7127   4.7429   4.7431   4.7432
     4.8075   4.8077   4.8544   4.9337   5.0252   5.0313   5.0314   5.0496
     5.0522   5.0524   5.0586   5.0586   5.0690   5.1041   5.1412   5.1414
     5.5026   5.5027   5.5032   5.5120   5.5147   5.5149   5.5203   5.5246
     5.5248   5.5274   5.5275   5.5470   5.5520   5.5522   5.5587   5.5588
     5.6024   5.6799   5.7197   5.7200   5.7350   5.7511   5.7516   5.8789
     5.8878   5.9143   5.9144   5.9198   5.9199   5.9332   5.9376   5.9380
     5.9512   5.9536   5.9538   5.9542   5.9649   5.9652   5.9710   5.9711
     5.9821   6.0142   6.0159   6.0187   6.0258   6.0258   6.0315   6.0316
     6.0339   6.0339   6.0348   6.0416   6.0417   6.0424   6.0581   6.0582
     6.0590   6.0644   6.0644   6.0671   6.0675   6.0773   6.0807   6.0816
     6.0817   6.0891   6.0893   6.0930   6.0935   6.1065   6.1275   6.1280
     6.1335   6.1336   6.2052   6.2258   6.2264   6.2511   6.3282   6.3343
     6.3348   6.3704   6.3707   6.3789   6.3801   6.3804   6.3816   6.3943
     6.4019   6.4021   6.4065   6.4066   6.4475   6.4746   6.4748   6.5004
     6.5232   6.5256   6.5356   6.5356   6.5473   6.5558   6.5559   6.5934
     6.5985   6.6029   6.6032   6.6200   6.6203   6.6531   6.6770   6.6843
     6.6846   6.6867   6.6867   6.6890   6.6892   6.6924   6.6963   6.6970
     6.7089   6.7091   6.7145   6.7219   6.7224   6.7237   6.7302   6.7511
     6.7512   6.7795   6.7863   6.7940   6.7950   6.7950   6.7962   6.7966
     6.8377   6.8380   6.8865   6.8886   6.9171   6.9181   6.9182   6.9226
     6.9302   6.9386   6.9387   6.9438   6.9439   7.0763   7.0765   7.1593
     7.1701   7.1722   7.1724   7.1929   7.1931   7.1963   7.1977   7.1980
     7.2275   7.2460   7.2461   7.2565   7.3318   7.3319   7.3369   7.3417
     7.3420   7.3501   7.3523   7.3524   7.3602   7.3605   7.3801   7.4120
     7.4302   7.4302   7.4303   7.4334   7.4336   7.4356   7.4442   7.4443
     7.4444   7.4505   7.4537   7.4537   7.4599   7.4687   7.4703   7.4706
     7.4708   7.4739   7.4742   7.4771   7.4771   7.4847   7.4875   7.4895
     7.4896   7.4928   7.4948   7.4951   7.4966   7.4971   7.5029   7.5030
     7.5220   7.5226   7.5279   7.5321   7.5410   7.5416   7.5508   7.5645
     7.6153   7.6154   7.6286   7.6359   7.6360   7.6635   7.6714   7.6716
     7.6733   7.6779   7.6781   7.6788   7.6895   7.6896   7.6930   7.7069
     7.7070   7.7245   7.7247   7.7556   7.7616   7.7618   7.7633   7.7634
     7.7677   7.7805   7.7850   7.7852   7.8340   7.8341   7.8762   7.9025
     7.9035   7.9248   7.9310   7.9315   7.9941   8.0417   8.0417   8.0608
     8.0610   8.0871   8.0874   8.1072   8.1247   8.1395   8.1405   8.1406
     8.1504   8.1505   8.1535   8.1548   8.1550   8.3141   8.3626   8.3715
     8.3715   8.3945   8.3945   8.4297   8.4297   8.4766   8.5012   8.5018
     8.5019   8.5389   8.5390   8.5749   8.5752   8.7525   8.7969   8.7971
    10.2596  10.3743  10.4194  10.4198  12.0860  12.0889  12.2621  12.2759
    12.2759  12.3230  12.3231  12.3397  12.7132  12.8393  12.8549  12.9064
    12.9229  12.9233  12.9460  12.9461  12.9516  12.9631  12.9686  12.9689
    12.9880  12.9882  13.0038  13.0236  13.0374  13.0376  13.0380  13.0452
    13.0452  13.0525  13.0529  13.0701  13.0704  13.1388  13.2715  13.6719
    13.7033  13.7036  13.7098  13.7105  13.7453  13.8467  13.8473  13.8547
    13.8753  13.8756  13.8952  13.8960  13.8964  13.9079  13.9081  13.9216
    13.9355  13.9391  13.9395  13.9407  13.9477  13.9478  13.9551  13.9553
    13.9655  13.9697  13.9720  13.9721  13.9944  14.0263  14.0331  14.0332
    14.0451  14.0453  14.0532  14.0596  14.0646  14.0650  14.0743  14.0942
    14.0945  14.0978  14.1056  14.1059  14.1077  14.1368  14.1442  14.1442
    14.1721  14.1865  14.1867  14.1952  14.1953  14.2137  14.2182  14.2183
    14.2370  14.2371  14.2397  14.2460  14.2519  14.2524  14.2606  14.2607
    14.2901  14.2989  14.2993  14.3036  14.3805  14.3810  14.5335  14.5336
    14.5343  14.5363  14.5670  14.5678  14.8161  14.8635  14.8637  14.9338
    14.9344  14.9407  14.9608  14.9610  14.9707  14.9824  14.9830  14.9893
    15.0050  15.0601  15.0603  15.0764  15.1119  15.1140  15.1141  15.1363
    15.1368  15.1596  15.1611  15.1675  15.1710  15.1772  15.1773  15.1812
    15.2110  15.2113  15.2491  15.2492  15.2688  15.3139  15.3183  15.3186
    15.4222  15.4224  15.4448  15.4480  15.4483  15.5097  15.6140  15.6522
    15.7101  15.7102  15.7920  15.8021  15.8028  15.8150  15.8760  15.8761
    15.9060  15.9063  15.9399  15.9426  15.9682  15.9867  15.9872  15.9925
    15.9929  16.0295  16.0297  16.0474  16.0499  16.0507  16.0508  16.1030
    16.1432  16.1533  16.1537  16.1654  16.1655  16.1757  16.1768  16.1772
    16.1835  16.1836  16.1894  16.1896  16.1940  16.2026  16.2061  16.2066
    16.2070  16.2085  16.2130  16.2133  16.2138  16.2143  16.2222  16.2466
    16.2468  16.2522  16.2529  16.2597  16.2621  16.2629  16.2666  16.2902
    16.2938  16.2946  16.3142  16.3216  16.3218  16.3356  16.3400  16.3457
    16.3462  16.3652  16.3746  16.3748  16.3918  16.3925  16.4067  16.4069
    16.4087  16.4158  16.4163  16.4218  16.4235  16.4398  16.4398  16.4405
    16.4440  16.4445  16.4641  16.4715  16.4717  16.4888  16.4890  16.4980
    16.5029  16.5033  16.5208  16.5208  16.5210  16.5353  16.5355  16.5356
    16.5446  16.5580  16.5734  16.5963  16.5966  16.6172  16.6176  16.6569
    16.6817  16.6825  16.6826  16.7099  16.7162  16.7163  16.7204  16.7205
    16.7496  16.7553

     occupation numbers 
     1.0000   1.0000   1.0000   1.0000   1.0000   1.0000   1.0000   1.0000
     1.0000   1.0000   1.0000   1.0000   1.0000   1.0000   1.0000   1.0000
     1.0000   1.0000   1.0000   1.0000   1.0000   1.0000   1.0000   1.0000
     1.0000   1.0000   1.0000   1.0000   1.0000   1.0000   1.0000   1.0000
     1.0000   1.0000   1.0000   1.0000   1.0000   1.0000   1.0000   1.0000
     1.0000   1.0000   1.0000   1.0000   1.0000   1.0000   1.0000   1.0000
     1.0000   1.0000   1.0000   1.0000   1.0000   1.0000   1.0000   1.0000
     1.0000   1.0000   1.0000   1.0000   1.0000   1.0000   1.0000   1.0000
     1.0000   1.0000   1.0000   1.0000   1.0000   1.0000   1.0000   1.0000
     1.0000   1.0000   1.0000   1.0000   1.0000   1.0000   1.0000   1.0000
     1.0000   1.0000   1.0000   1.0000   1.0000   1.0000   1.0000   1.0000
     1.0000   1.0000   1.0000   1.0000   1.0000   1.0000   1.0000   1.0000
     1.0000   1.0000   1.0000   1.0000   1.0000   1.0000   1.0000   1.0000
     1.0000   1.0000   1.0000   1.0000   1.0000   1.0000   1.0000   1.0000
     1.0000   1.0000   1.0000   1.0000   1.0000   1.0000   1.0000   1.0000
     1.0000   1.0000   1.0000   1.0000   1.0000   1.0000   1.0000   1.0000
     1.0000   1.0000   1.0000   1.0000   1.0000   1.0000   1.0000   1.0000
     1.0000   1.0000   1.0000   1.0000   1.0000   1.0000   1.0000   1.0000
     1.0000   1.0000   1.0000   1.0000   1.0000   1.0000   1.0000   1.0000
     1.0000   1.0000   1.0000   1.0000   1.0000   1.0000   1.0000   1.0000
     1.0000   1.0000   1.0000   1.0000   1.0000   1.0000   1.0000   1.0000
     1.0000   1.0000   1.0000   1.0000   1.0000   1.0000   1.0000   1.0000
     1.0000   1.0000   1.0000   1.0000   1.0000   1.0000   1.0000   1.0000
     1.0000   1.0000   1.0000   1.0000   1.0000   1.0000   1.0000   1.0000
     1.0000   1.0000   1.0000   1.0000   1.0000   1.0000   1.0000   1.0000
     1.0000   1.0000   1.0000   1.0000   1.0000   1.0000   1.0000   1.0000
     1.0000   1.0000   1.0000   1.0000   1.0000   1.0000   1.0000   1.0000
     1.0000   1.0000   1.0000   1.0000   1.0000   1.0000   1.0000   1.0000
     1.0000   1.0000   1.0000   1.0000   1.0000   1.0000   1.0000   1.0000
     1.0000   1.0000   1.0000   1.0000   1.0000   1.0000   1.0000   1.0000
     1.0000   1.0000   1.0000   1.0000   1.0000   1.0000   1.0000   1.0000
     1.0000   1.0000   1.0000   1.0000   1.0000   1.0000   1.0000   1.0000
     1.0000   1.0000   1.0000   1.0000   1.0000   1.0000   1.0000   1.0000
     1.0000   1.0000   1.0000   1.0000   1.0000   1.0000   1.0000   1.0000
     1.0000   1.0000   1.0000   1.0000   1.0000   1.0000   1.0000   1.0000
     1.0000   1.0000   1.0000   1.0000   1.0000   1.0000   1.0000   1.0000
     1.0000   1.0000   1.0000   1.0000   1.0000   1.0000   1.0000   1.0000
     1.0000   1.0000   1.0000   1.0000   1.0000   1.0000   1.0000   1.0000
     1.0000   1.0000   1.0000   1.0000   1.0000   1.0000   1.0000   1.0000
     1.0000   1.0000   1.0000   1.0000   1.0000   1.0000   1.0000   1.0000
     1.0000   1.0000   1.0000   1.0000   1.0000   1.0000   1.0000   1.0000
     1.0000   1.0000   1.0000   1.0000   1.0000   1.0000   1.0000   1.0000
     1.0000   1.0000   1.0000   1.0000   1.0000   1.0000   1.0000   1.0000
     1.0000   1.0000   1.0000   1.0000   1.0000   1.0000   1.0000   1.0000
     1.0000   1.0000   1.0000   1.0000   1.0000   1.0000   1.0000   1.0000
     1.0000   1.0000   1.0000   1.0000   1.0000   1.0000   1.0000   1.0000
     1.0000   1.0000   1.0000   1.0000   1.0000   1.0000   1.0000   1.0000
     1.0000   1.0000   1.0000   1.0000   1.0000   1.0000   1.0000   1.0000
     1.0000   1.0000   1.0000   1.0000   1.0000   1.0000   1.0000   1.0000
     1.0000   1.0000   1.0000   1.0000   1.0000   1.0000   1.0000   1.0000
     1.0000   1.0000   1.0000   1.0000   1.0000   1.0000   1.0000   1.0000
     1.0000   1.0000   1.0000   1.0000   1.0000   1.0000   1.0000   1.0000
     1.0000   1.0000   1.0000   1.0000   1.0000   1.0000   1.0000   1.0000
     1.0000   1.0000   1.0000   1.0000   1.0000   1.0000   1.0000   1.0000
     1.0000   1.0000   1.0000   1.0000   1.0000   1.0000   1.0000   1.0000
     1.0000   1.0000   1.0000   1.0000   1.0000   1.0000   1.0000   1.0000
     1.0000   1.0000   1.0000   1.0000   1.0000   1.0000   1.0000   1.0000
     1.0000   1.0000   1.0000   1.0000   1.0000   1.0000   1.0000   1.0000
     1.0000   1.0000   1.0000   1.0000   1.0000   1.0000   1.0000   1.0000
     1.0000   1.0000   1.0000   1.0000   1.0000   1.0000   1.0000   1.0000
     1.0000   1.0000   1.0000   1.0000   1.0000   1.0000   1.0000   1.0000
     1.0000   1.0000   1.0000   1.0000   1.0000   1.0000   1.0000   1.0000
     1.0000   1.0000   1.0000   1.0000   1.0000   1.0000   1.0000   1.0000
     1.0000   1.0000   1.0000   1.0000   1.0000   1.0000   1.0000   1.0000
     1.0000   1.0000   1.0000   1.0000   1.0000   1.0000   1.0000   1.0000
[...]
Ga            4.8770255611       12.1819550599        2.6442054686
Ga            4.8612083157       12.1728229690        7.9248027246
Ga            4.8614147727       12.1729421670       13.2261273178
Ga           14.6136235126        0.9508348583        2.6317843409
Ga           14.5629026403        0.9263072585        7.9750499568
Ga           14.5899515421        0.9326862848       13.1902834288
Ga           12.9794794527        3.7467112405        2.6358468562
Ga           12.9737320373        3.7495324352        7.9342319739
Ga           12.9743418514        3.7496475507       13.2209669561
Ga           11.3566894350        6.5567862317        2.6376749939
Ga           11.3552811473        6.5559731564        7.9312571857
Ga           11.3558185027        6.5562833987       13.2191962044
Ga            9.7344881151        9.3672011076        2.6358468562
Ga            9.7340576337        9.3608131025        7.9342319739
Ga            9.7344622336        9.3612836593       13.2209669561
Ga            8.1302601722       12.1803495680        2.6317843409
Ga            8.0836582116       12.1486878040        7.9750499568
Ga            8.1027070613       12.1689233269       13.1902834288
Ga           -0.2057734691        1.9918966021        5.4130834362
Ga            0.0013086752        1.8718447161       10.5544802452
Ga           -0.0329331028        1.8920214131       15.7691924924
Ga           -1.6574674584        4.7309078597        5.2894424132
Ga           -1.6323789699        4.6922029618       10.5835321727
Ga           -1.6221288946        4.6858375616       15.8576083848
Ga           -3.2457121978        7.4922943780        5.2853166643
Ga           -3.2443305613        7.4930920662       10.5787827476
Ga           -3.2447262986        7.4928635871       15.8609395068
Ga           -4.8430207025       10.2484479288        5.2894424132
Ga           -4.8639958830       10.2895276461       10.5835321727
Ga           -4.8643834437       10.3015871718       15.8576083848
Ga           -6.4892270380       12.8751574308        5.4130834362
Ga           -6.4896539489       13.1145217715       10.5544802452
Ga           -6.4893013058       13.0747791734       15.7691924924
Ga            3.4492844444        1.9914479814        5.4122335986
Ga            3.2430258140        1.8723645056       10.5549164493
Ga            3.2753412293        1.8910218193       15.7692285227
Ga            1.6234541100        4.6678996617        5.2873013007
Ga            1.6226617855        4.7023563705       10.5867191081
Ga            1.6231084656        4.6800194589       15.8523025226
Ga            0.0017876591        7.4945997019        5.2801243247
Ga            0.0008009170        7.4972351551       10.5756877546
Ga            0.0008085017        7.4944079321       15.8655749072
Ga           -1.6199658002       10.3035590908        5.2801243247
Ga           -1.6181768019       10.3013868205       10.5756877546
Ga           -1.6206214565       10.3028070006       15.8655749072
Ga           -3.2571266184       13.1213134540        5.2873013007
Ga           -3.2276823956       13.1033989264       10.5867191081
Ga           -3.2468033883       13.1149542186       15.8523025226
Ga            6.5494934014        1.8803788575        5.2896466577
Ga            6.5014877641        1.8768824706       10.5837301028
Ga            6.4905589721        1.8716741340       15.8577513264
Ga            4.9032002400        4.7318422573        5.2896466577
Ga            4.8761694616        4.6920163493       10.5837301028
Ga            4.8661945137        4.6851559061       15.8577513264
Ga            3.2431491005        7.4940420730        5.2797148071
Ga            3.2441390083        7.4965490953       10.5755640840
Ga            3.2444051821        7.4937413632       15.8655122895
Ga            1.6216460864       10.3024649936        5.2816268595
Ga            1.6219560207       10.3026439343       10.5729894415
Ga            1.6221195272       10.3027383348       15.8632711297
Ga            0.0002319996       13.1109392565        5.2797148071
Ga            0.0028980985       13.1105430306       10.5755640840
Ga            0.0005996181       13.1121774099       15.8655122895
Ga            9.7336688695        1.8748597944        5.2855996470
Ga            9.7337927376        1.8731126839       10.5791262366
Ga            9.7337370162        1.8736312126       15.8609793550
Ga            8.1207604208        4.6885258939        5.2839766954
Ga            8.1138191153        4.6845183294       10.5762757361
Ga            8.1116857364        4.6832866225       15.8619375095
Ga            6.4905083252        7.4921786344        5.2855996470
Ga            6.4890572172        7.4931594625       10.5791262366
Ga            6.4894784155        7.4928519420       15.8609793550
Ga            4.8643754248       10.3026820722        5.2797633475
Ga            4.8633311321       10.3008014647       10.5757204974
Ga            4.8662825372       10.3023845093       15.8654431358
Ga            3.2431987512       13.1106424391        5.2797633475
Ga            3.2410479510       13.1106783588       10.5757204974
Ga            3.2438946104       13.1124428283       15.8654431358
Ga           12.9171630915        1.8784953671        5.2897907990
Ga           12.9658139376        1.8775038059       10.5840731048
Ga           12.9763454428        1.8721242389       15.8577751257
Ga           11.3494530264        4.6879636476        5.2839520094
Ga           11.3545497770        4.6845483816       10.5763367152
Ga           11.3565077959        4.6833859363       15.8622081486
Ga            9.7346198040        7.4849368348        5.2839520094
Ga            9.7342104722        7.4910583833       10.5763367152
Ga            9.7341827745        7.4933353000       15.8622081486
Ga            8.0854039346       10.2473477170        5.2897907990
Ga            8.1088706404       10.2899763663       10.5840731048
Ga            8.1094775514       10.3017867009       15.8577751257
Ga            6.5010682367       13.1196006857        5.2869177528
Ga            6.4729006856       13.1033381425       10.5870366454
Ga            6.4922797506       13.1145266509       15.8525103360
N             1.6221386323        0.9365407051        9.9005173201
N             1.6214010246        0.9361148471       15.1721256886
N            -0.0548913867        3.8281162553        4.6301173163
N            -0.0022364494        3.7675799180        9.9550786519
N            -0.0023061743        3.7731482294       15.1675077823
N            -1.6319413689        6.5841715671        4.6259082438
N            -1.6228267187        6.5625787666        9.9250450319
N            -1.6222343370        6.5613324995       15.2088570726
N            -3.2252806134        9.3439160923        4.6259082438
N            -3.2394232021        9.3626060112        9.9250450319
N            -3.2402063102        9.3637421625       15.2088570726
N            -4.8235695365       12.0877090959        4.6301173163
N            -4.8496680738       12.1635777778        9.9550786519
N            -4.8448806371       12.1607332386       15.1675077823
N             4.9659604235        0.9446987502        4.6300758887
N             4.8862263310        0.9280783449        9.9547865217
N             4.8905259004        0.9258648048       15.1674849203
N             3.3011146021        3.8282962995        4.6300758887
N             3.2468538627        3.7675547525        9.9547865217
N             3.2470866655        3.7723850589       15.1674849203
N             1.6224101092        6.5560409520        4.6361524018
N             1.6224206092        6.5672776740        9.9181007724
N             1.6225620163        6.5614729555       15.2126415348
N             0.0029496213        9.3679060039        4.6311924042
N             0.0014319242        9.3670297611        9.9195657959
N             0.0010824569        9.3668279960       15.2100426049
N            -1.6224667018       12.1763324529        4.6361524018
N            -1.6127301650       12.1707231851        9.9181007724
N            -1.6176864952       12.1737480066       15.2126415348
N             8.1407799355        0.9313384612        4.6256242833
N             8.1170167456        0.9343231227        9.9251155285
N             8.1154488690        0.9346724746       15.2088583508
N             6.5058696907        3.7561641464        4.6335380021
N             6.4926072720        3.7485070854        9.9252681600
N             6.4910139415        3.7475871756       15.2071937686
N             4.8769540086        6.5844507939        4.6256242833
N             4.8676572063        6.5623789371        9.9251155285
N             4.8671758156        6.5608464402       15.2088583508
N             3.2409878616        9.3677303173        4.6311996031
N             3.2431561292        9.3667988207        9.9197347057
N             3.2439083628        9.3666636993       15.2102745288
N             1.6218165924       12.1722172219        4.6311996031
N             1.6220940265       12.1745607449        9.9197347057
N             1.6223531247       12.1752797591       15.2102745288
N            11.3258024832        0.9306782587        4.6253779107
N            11.3502660443        0.9343595798        9.9253491538
N            11.3517723281        0.9347547995       15.2088495504
N             9.7346124208        3.7474738473        4.6308031697
N             9.7340459749        3.7461805309        9.9234080286
N             9.7340254443        3.7473338954       15.2079434337
N             8.1127150359        6.5566825225        4.6308031697
N             8.1113117681        6.5568386242        9.9234080286
N             8.1123003457        6.5562441620       15.2079434337
N             6.4688935302        9.3430913332        4.6253779107
N             6.4843134285        9.3624367380        9.9253491538
N             6.4854088407        9.3635436082       15.2088495504
N             4.8661162060       12.1756565408        4.6360388072
N             4.8572105526       12.1705148594        9.9185369539
N             4.8626123829       12.1736336076       15.2129036556
N            14.5009745567        0.9435917616        4.6302492453
N            14.5806873307        0.9277953914        9.9547940781
N            14.5761501994        0.9256133003       15.1674480310
N            12.9631222071        3.7547816734        4.6334928416
N            12.9750047320        3.7484701195        9.9248040005
N            12.9767039198        3.7477439989       15.2070932447
N            11.3557229526        6.5562282328        4.6305485590
N            11.3566219632        6.5567472768        9.9231189294
N            11.3556891940        6.5562087423       15.2077676218
N             9.7332986922        9.3490001009        4.6334928416
N             9.7337739887        9.3624464463        9.9248040005
N             9.7339947436        9.3642810464       15.2070932447
N             8.0676629885       12.0864142589        4.6302492453
N             8.0938393176       12.1633457312        9.9547940781
N             8.0896810056       12.1605075058       15.1674480310
N            -0.0673712850        1.9120444645        1.8511596111
N            -0.0679698944        1.9109879421        7.3955824854
N            -0.0055679180        1.8762971632       12.5493283738
N            -1.6268504745        4.6898975095        1.9808583921
N            -1.6341972145        4.6980104855        7.2850435760
N            -1.6335399159        4.6911361680       12.5652335149
N            -3.2458660359        7.4922055595        1.9831873781
N            -3.2473388764        7.4913552147        7.2780179586
N            -3.2449476407        7.4927357952       12.5675430317
N            -4.8632282156       10.2954681897        1.9808583921
N            -4.8598755423       10.2850492382        7.2850435760
N            -4.8655002267       10.2890556343       12.5652335149
N            -6.4891799257       13.0349433071        1.8511596111
N            -6.4903942056       13.0349531573        7.3955824854
N            -6.4892363132       13.1063402436       12.5493283738
N             3.3107232451        1.9114496356        1.8513420865
N             3.3102283640        1.9111639159        7.3951982641
N             3.2498730233        1.8763177437       12.5497146354
N             1.6227921493        4.6742669098        1.9837385450
N             1.6221719774        4.6829958851        7.2888618340
N             1.6224524306        4.6979314840       12.5627483476
N             0.0018667137        7.4927924491        1.9898030521
N            -0.0021154527        7.4949558462        7.2750047753
N             0.0001613437        7.4951335331       12.5665751215
N            -1.6214913998       10.3045311805        1.9898030521
N            -1.6216089261       10.3000008248        7.2750047753
N            -1.6203166465       10.3018837448       12.5665751215
N            -3.2519434002       13.1175565552        1.9837385450
N            -3.2446939717       13.1126549829        7.2888618340
N            -3.2316191370       13.1054300630       12.5627483476
N             6.4973772479        1.8746946682        1.9809238335
N             6.5078903810        1.8763212584        7.2852433311
N             6.5018098694        1.8794050321       12.5654093021
N             4.8722195109        4.6895504390        1.9809238335
N             4.8788847460        4.6978417843        7.2852433311
N             4.8785151165        4.6910340199       12.5654093021
N             3.2429746614        7.4927245966        1.9897245576
N             3.2467882324        7.4948640997        7.2746834346
N             3.2449791849        7.4951586612       12.5664263384
N             1.6225142058       10.3029662026        1.9875059895
N             1.6222808123       10.3028314528        7.2751384931
N             1.6226069605       10.3030197545       12.5650386023
N            -0.0009961880       13.1114469260        1.9897245576
N             0.0027634616       13.1136798238        7.2746834346
N             0.0021140356       13.1119658620       12.5664263384
N             9.7334388897        1.8753963565        1.9831802436
N             9.7329085963        1.8767602074        7.2782756022
N             9.7335575701        1.8742477299       12.5678193381
N             8.1140084737        4.6846276555        1.9861102084
N             8.1150205758        4.6852119929        7.2776743991
N             8.1142877178        4.6847888771       12.5656501224
N             6.4908580117        7.4917111850        1.9831802436
N             6.4917739945        7.4905700120        7.2782756022
N             6.4899226121        7.4923882785       12.5678193381
N             4.8663047027       10.3045938338        1.9896122068
N             4.8657175035       10.2994026158        7.2747569644
N             4.8651343781       10.3016512563       12.5665609590
N             3.2458190243       13.1113573619        1.9896122068
N             3.2410296980       13.1134444416        7.2747569644
N             3.2426855151       13.1118151199       12.5665609590
N            12.9695509245        1.8745709725        1.9809300431
N            12.9578152835        1.8759126478        7.2853764505
N            12.9655935520        1.8794571599       12.5657047925
N            11.3542101536        4.6845656311        1.9863462717
N            11.3524793177        4.6853164902        7.2776609997
N            11.3533416875        4.6849439943       12.5657201148
N             9.7340555989        7.4907556360        1.9863462717
N             9.7338404441        7.4888812586        7.2776609997
N             9.7339490380        7.4898143407       12.5657201148
N             8.1081992257       10.2946791086        1.9809300431
N             8.1034933301       10.2838449077        7.2853764505
N             8.1104521019       10.2888088298       12.5657047925
N             6.4969919442       13.1172472371        1.9838558713
N             6.4874745278       13.1117523542        7.2885890198
N             6.4761709267       13.1052262171       12.5629321388
Ga            1.6208673267        0.9358067164        4.5791368064
End final coordinates



     Writing all to output data dir ./GaN.save/
 
     init_run     :     13.49s CPU     38.90s WALL (       1 calls)
     electrons    :   2948.75s CPU   2987.35s WALL (       1 calls)
     forces       :     65.58s CPU     66.53s WALL (       1 calls)
     stress       :   1316.28s CPU   1331.83s WALL (       1 calls)

     Called by init_run:
     wfcinit      :      8.81s CPU     33.72s WALL (       1 calls)
     potinit      :      1.68s CPU      1.94s WALL (       1 calls)
     hinit0       :      1.39s CPU      1.50s WALL (       1 calls)

     Called by electrons:
     c_bands      :   2900.42s CPU   2937.49s WALL (       2 calls)
     sum_band     :     43.03s CPU     43.56s WALL (       2 calls)
     v_of_rho     :      1.95s CPU      2.08s WALL (       2 calls)
     v_h          :      0.02s CPU      0.02s WALL (       2 calls)
     v_xc         :      3.69s CPU      3.90s WALL (       4 calls)
     newd         :      0.35s CPU      0.41s WALL (       2 calls)
     PAW_pot      :      1.11s CPU      1.12s WALL (       2 calls)
     mix_rho      :      0.01s CPU      0.01s WALL (       2 calls)
     vdW_kernel   :      0.16s CPU      0.17s WALL (       1 calls)

     Called by c_bands:
     init_us_2    :      2.71s CPU      2.83s WALL (      12 calls)
     init_us_2:cp :      2.71s CPU      2.83s WALL (      12 calls)
     cegterg      :   2387.04s CPU   2419.88s WALL (       4 calls)

     Called by sum_band:
     sum_band:wei :      0.01s CPU      0.01s WALL (       2 calls)
     sum_band:loo :     42.42s CPU     42.76s WALL (       2 calls)
     sum_band:buf :      0.50s CPU      0.51s WALL (       4 calls)
     sum_band:ini :      1.06s CPU      1.08s WALL (       4 calls)
     sum_band:cal :     29.09s CPU     29.29s WALL (       4 calls)
     sum_band:bec :      0.25s CPU      0.26s WALL (       4 calls)
     addusdens    :      0.36s CPU      0.39s WALL (       2 calls)
     addusd:skk   :      0.06s CPU      0.06s WALL (       4 calls)
     addusd:dgemm :      0.19s CPU      0.22s WALL (       4 calls)
     addusd:qvan2 :      0.05s CPU      0.05s WALL (       4 calls)

     Called by *egterg:
     cdiaghg      :   1921.07s CPU   1942.84s WALL (      34 calls)
     cegterg:over :     86.49s CPU     88.68s WALL (      34 calls)
     cegterg:upda :     52.70s CPU     53.56s WALL (      34 calls)
     cegterg:last :     28.42s CPU     28.62s WALL (       4 calls)
     h_psi        :    197.65s CPU    200.66s WALL (      38 calls)
     s_psi        :     70.93s CPU     72.11s WALL (      38 calls)
     g_psi        :      0.15s CPU      0.15s WALL (      34 calls)

     Called by h_psi:
     h_psi:calbec :     74.05s CPU     74.62s WALL (      38 calls)
     vloc_psi     :     51.91s CPU     52.46s WALL (      38 calls)
     add_vuspsi   :     70.84s CPU     72.06s WALL (      38 calls)

     General routines
     calbec       :    198.93s CPU    200.36s WALL (      52 calls)
     fft          :      1.75s CPU      1.79s WALL (     294 calls)
     ffts         :      0.03s CPU      0.03s WALL (       4 calls)
     fftw         :     58.22s CPU     58.83s WALL (   38534 calls)
     interpolate  :      0.02s CPU      0.03s WALL (       2 calls)
 
     Parallel routines

     PAW routines
     PAW_pot      :      1.11s CPU      1.12s WALL (       2 calls)
     PAW_symme    :      0.01s CPU      0.01s WALL (       3 calls)
 
     PWSCF        :      1h12m CPU      1h14m WALL

 
   This run was terminated on:  15:55:20   1May2024            

=------------------------------------------------------------------------------=
   JOB DONE.
=------------------------------------------------------------------------------=
