
     Program PWSCF v.7.2 starts on 30Sep2023 at  7:13:36 

     This program is part of the open-source Quantum ESPRESSO suite
     for quantum simulation of materials; please cite
         "P. Giannozzi et al., J. Phys.:Condens. Matter 21 395502 (2009);
         "P. Giannozzi et al., J. Phys.:Condens. Matter 29 465901 (2017);
         "P. Giannozzi et al., J. Chem. Phys. 152 154105 (2020);
          URL http://www.quantum-espresso.org", 
     in publications or presentations arising from this work. More details at
     http://www.quantum-espresso.org/quote

     Parallel version (MPI & OpenMP), running on     256 processor cores
     Number of MPI processes:               256
     Threads/MPI process:                     1

     MPI processes distributed on     2 nodes
     1718639 MiB available memory on the printing compute node when the environment starts
 
     Reading input from espresso.pwi

     Current dimensions of program PWSCF are:
     Max number of different atomic species (ntypx) = 10
     Max number of k-points (npk) =  40000
     Max angular momentum in pseudopotentials (lmaxx) =  4
     file C.pbe-n-kjpaw_psl.1.0.0.UPF: wavefunction(s)  2S 2P renormalized

     **************************************************************************
     Initializing libbeef V0.1.2 with the BEEF-vdW functional.
     Citation: Wellendorff et al., PRB 85, 235149 (2012).
     **************************************************************************


     IMPORTANT: XC functional enforced from input :
     Exchange-correlation= BEEF-VDW
                           (   1   4  43  14   2   0   0)
     Any further DFT definition will be discarded
     Please, verify this is what you really want

     Found identity + (  0.0000 -0.5000  0.5000) symmetry
     This is a supercell, fractional translations are disabled
 
     K-points division:     npool     =       8
     R & G space division:  proc/nbgrp/npool/nimage =      32
     Subspace diagonalization in iterative solution of the eigenvalue problem:
     a serial algorithm will be used

 
     Parallelization info
     --------------------
     sticks:   dense  smooth     PW     G-vecs:    dense   smooth      PW
     Min          39      31      9                 1063      757     123
     Max          41      32     10                 1066      762     126
     Sum        1273    1005    301                34049    24303    3959
 
     Using Slab Decomposition
 


     bravais-lattice index     =            1
     lattice parameter (alat)  =       6.7533  a.u.
     unit-cell volume          =     308.0027 (a.u.)^3
     number of atoms/cell      =            8
     number of atomic types    =            1
     number of electrons       =        32.00
     number of Kohn-Sham states=           20
     kinetic-energy cutoff     =      70.0000  Ry
     charge density cutoff     =     350.0000  Ry
     scf convergence threshold =      1.0E-08
     mixing beta               =       0.7000
     number of iterations used =            8  plain     mixing
     energy convergence thresh.=      1.0E-04
     force convergence thresh. =      1.0E-03
     press convergence thresh. =      5.0E-01
     Exchange-correlation= BEEF-VDW
                           (   1   4  43  14   2   0   0)
     nstep                     =           50


     celldm(1)=   6.753333  celldm(2)=   0.000000  celldm(3)=   0.000000
     celldm(4)=   0.000000  celldm(5)=   0.000000  celldm(6)=   0.000000

     crystal axes: (cart. coord. in units of alat)
               a(1) = (   1.000000   0.000000   0.000000 )  
               a(2) = (   0.000000   1.000000   0.000000 )  
               a(3) = (   0.000000   0.000000   1.000000 )  

     reciprocal axes: (cart. coord. in units 2 pi/alat)
               b(1) = (  1.000000  0.000000  0.000000 )  
               b(2) = (  0.000000  1.000000  0.000000 )  
               b(3) = (  0.000000  0.000000  1.000000 )  


     PseudoPot. # 1 for C  read from file:
     //group///packages/espresso/pseudo/psl_1.0.0/pslibrary.1.0.0/pbe/PSEUDOPOTENTIALS/C.pbe-n-kjpaw_psl.1.0.0.UPF
     MD5 check sum: 5459cf7f2c8c37df2f7cde8914797f4d
     Pseudo is Projector augmented-wave + core cor, Zval =  4.0
     Generated using 'atomic' code by A. Dal Corso  v.7.1
     Shape of augmentation charge: PSQ
     Using radial grid of 1073 points,  4 beta functions with: 
                l(1) =   0
                l(2) =   0
                l(3) =   1
                l(4) =   1
     Q(r) pseudized with 0 coefficients 


     atomic species   valence    mass     pseudopotential
        C              4.00    12.01100     C ( 1.00)

     24 Sym. Ops. (no inversion) found


                                    s                        frac. trans.

      isym =  1     identity                                     

 cryst.   s( 1) = (     1          0          0      )
                  (     0          1          0      )
                  (     0          0          1      )

 cart.    s( 1) = (  1.0000000  0.0000000  0.0000000 )
                  (  0.0000000  1.0000000  0.0000000 )
                  (  0.0000000  0.0000000  1.0000000 )


      isym =  2     180 deg rotation - cart. axis [0,0,1]        

 cryst.   s( 2) = (    -1          0          0      )
                  (     0         -1          0      )
                  (     0          0          1      )

 cart.    s( 2) = ( -1.0000000  0.0000000  0.0000000 )
                  (  0.0000000 -1.0000000  0.0000000 )
                  (  0.0000000  0.0000000  1.0000000 )


      isym =  3     180 deg rotation - cart. axis [0,1,0]        

 cryst.   s( 3) = (    -1          0          0      )
                  (     0          1          0      )
                  (     0          0         -1      )

 cart.    s( 3) = ( -1.0000000  0.0000000  0.0000000 )
                  (  0.0000000  1.0000000  0.0000000 )
                  (  0.0000000  0.0000000 -1.0000000 )


      isym =  4     180 deg rotation - cart. axis [1,0,0]        

 cryst.   s( 4) = (     1          0          0      )
                  (     0         -1          0      )
                  (     0          0         -1      )

 cart.    s( 4) = (  1.0000000  0.0000000  0.0000000 )
                  (  0.0000000 -1.0000000  0.0000000 )
                  (  0.0000000  0.0000000 -1.0000000 )


      isym =  5     120 deg rotation - cart. axis [-1,-1,-1]     

 cryst.   s( 5) = (     0          0          1      )
                  (     1          0          0      )
                  (     0          1          0      )

 cart.    s( 5) = (  0.0000000  1.0000000  0.0000000 )
                  (  0.0000000  0.0000000  1.0000000 )
                  (  1.0000000  0.0000000  0.0000000 )


      isym =  6     120 deg rotation - cart. axis [-1,1,1]       

 cryst.   s( 6) = (     0          0         -1      )
                  (    -1          0          0      )
                  (     0          1          0      )

 cart.    s( 6) = (  0.0000000 -1.0000000  0.0000000 )
                  (  0.0000000  0.0000000  1.0000000 )
                  ( -1.0000000  0.0000000  0.0000000 )


      isym =  7     120 deg rotation - cart. axis [1,1,-1]       

 cryst.   s( 7) = (     0          0         -1      )
                  (     1          0          0      )
                  (     0         -1          0      )

 cart.    s( 7) = (  0.0000000  1.0000000  0.0000000 )
                  (  0.0000000  0.0000000 -1.0000000 )
                  ( -1.0000000  0.0000000  0.0000000 )


      isym =  8     120 deg rotation - cart. axis [1,-1,1]       

 cryst.   s( 8) = (     0          0          1      )
                  (    -1          0          0      )
                  (     0         -1          0      )

 cart.    s( 8) = (  0.0000000 -1.0000000  0.0000000 )
                  (  0.0000000  0.0000000 -1.0000000 )
                  (  1.0000000  0.0000000  0.0000000 )


      isym =  9     120 deg rotation - cart. axis [1,1,1]        

 cryst.   s( 9) = (     0          1          0      )
                  (     0          0          1      )
                  (     1          0          0      )

 cart.    s( 9) = (  0.0000000  0.0000000  1.0000000 )
                  (  1.0000000  0.0000000  0.0000000 )
                  (  0.0000000  1.0000000  0.0000000 )


      isym = 10     120 deg rotation - cart. axis [-1,1,-1]      

 cryst.   s(10) = (     0         -1          0      )
                  (     0          0         -1      )
                  (     1          0          0      )

 cart.    s(10) = (  0.0000000  0.0000000  1.0000000 )
                  ( -1.0000000  0.0000000  0.0000000 )
                  (  0.0000000 -1.0000000  0.0000000 )


      isym = 11     120 deg rotation - cart. axis [1,-1,-1]      

 cryst.   s(11) = (     0         -1          0      )
                  (     0          0          1      )
                  (    -1          0          0      )

 cart.    s(11) = (  0.0000000  0.0000000 -1.0000000 )
                  ( -1.0000000  0.0000000  0.0000000 )
                  (  0.0000000  1.0000000  0.0000000 )


      isym = 12     120 deg rotation - cart. axis [-1,-1,1]      

 cryst.   s(12) = (     0          1          0      )
                  (     0          0         -1      )
                  (    -1          0          0      )

 cart.    s(12) = (  0.0000000  0.0000000 -1.0000000 )
                  (  1.0000000  0.0000000  0.0000000 )
                  (  0.0000000 -1.0000000  0.0000000 )


      isym = 13     inv. 180 deg rotation - cart. axis [1,1,0]   

 cryst.   s(13) = (     0         -1          0      )
                  (    -1          0          0      )
                  (     0          0          1      )

 cart.    s(13) = (  0.0000000 -1.0000000  0.0000000 )
                  ( -1.0000000  0.0000000  0.0000000 )
                  (  0.0000000  0.0000000  1.0000000 )


      isym = 14     inv. 180 deg rotation - cart. axis [1,-1,0]  

 cryst.   s(14) = (     0          1          0      )
                  (     1          0          0      )
                  (     0          0          1      )

 cart.    s(14) = (  0.0000000  1.0000000  0.0000000 )
                  (  1.0000000  0.0000000  0.0000000 )
                  (  0.0000000  0.0000000  1.0000000 )


      isym = 15     inv.  90 deg rotation - cart. axis [0,0,-1]  

 cryst.   s(15) = (     0          1          0      )
                  (    -1          0          0      )
                  (     0          0         -1      )

 cart.    s(15) = (  0.0000000 -1.0000000  0.0000000 )
                  (  1.0000000  0.0000000  0.0000000 )
                  (  0.0000000  0.0000000 -1.0000000 )


      isym = 16     inv.  90 deg rotation - cart. axis [0,0,1]   

 cryst.   s(16) = (     0         -1          0      )
                  (     1          0          0      )
                  (     0          0         -1      )

 cart.    s(16) = (  0.0000000  1.0000000  0.0000000 )
                  ( -1.0000000  0.0000000  0.0000000 )
                  (  0.0000000  0.0000000 -1.0000000 )


      isym = 17     inv. 180 deg rotation - cart. axis [1,0,1]   

 cryst.   s(17) = (     0          0         -1      )
                  (     0          1          0      )
                  (    -1          0          0      )

 cart.    s(17) = (  0.0000000  0.0000000 -1.0000000 )
                  (  0.0000000  1.0000000  0.0000000 )
                  ( -1.0000000  0.0000000  0.0000000 )


      isym = 18     inv. 180 deg rotation - cart. axis [-1,0,1]  

 cryst.   s(18) = (     0          0          1      )
                  (     0          1          0      )
                  (     1          0          0      )

 cart.    s(18) = (  0.0000000  0.0000000  1.0000000 )
                  (  0.0000000  1.0000000  0.0000000 )
                  (  1.0000000  0.0000000  0.0000000 )


      isym = 19     inv.  90 deg rotation - cart. axis [0,1,0]   

 cryst.   s(19) = (     0          0          1      )
                  (     0         -1          0      )
                  (    -1          0          0      )

 cart.    s(19) = (  0.0000000  0.0000000 -1.0000000 )
                  (  0.0000000 -1.0000000  0.0000000 )
                  (  1.0000000  0.0000000  0.0000000 )


      isym = 20     inv.  90 deg rotation - cart. axis [0,-1,0]  

 cryst.   s(20) = (     0          0         -1      )
                  (     0         -1          0      )
                  (     1          0          0      )

 cart.    s(20) = (  0.0000000  0.0000000  1.0000000 )
                  (  0.0000000 -1.0000000  0.0000000 )
                  ( -1.0000000  0.0000000  0.0000000 )


      isym = 21     inv. 180 deg rotation - cart. axis [0,1,1]   

 cryst.   s(21) = (     1          0          0      )
                  (     0          0         -1      )
                  (     0         -1          0      )

 cart.    s(21) = (  1.0000000  0.0000000  0.0000000 )
                  (  0.0000000  0.0000000 -1.0000000 )
                  (  0.0000000 -1.0000000  0.0000000 )


      isym = 22     inv. 180 deg rotation - cart. axis [0,1,-1]  

 cryst.   s(22) = (     1          0          0      )
                  (     0          0          1      )
                  (     0          1          0      )

 cart.    s(22) = (  1.0000000  0.0000000  0.0000000 )
                  (  0.0000000  0.0000000  1.0000000 )
                  (  0.0000000  1.0000000  0.0000000 )


      isym = 23     inv.  90 deg rotation - cart. axis [-1,0,0]  

 cryst.   s(23) = (    -1          0          0      )
                  (     0          0          1      )
                  (     0         -1          0      )

 cart.    s(23) = ( -1.0000000  0.0000000  0.0000000 )
                  (  0.0000000  0.0000000 -1.0000000 )
                  (  0.0000000  1.0000000  0.0000000 )


      isym = 24     inv.  90 deg rotation - cart. axis [1,0,0]   

 cryst.   s(24) = (    -1          0          0      )
                  (     0          0         -1      )
                  (     0          1          0      )

 cart.    s(24) = ( -1.0000000  0.0000000  0.0000000 )
                  (  0.0000000  0.0000000  1.0000000 )
                  (  0.0000000 -1.0000000  0.0000000 )


     point group T_d (-43m) 
     there are  5 classes
     the character table:

       E     8C3   3C2   6S4   6s_d 
A_1    1.00  1.00  1.00  1.00  1.00
A_2    1.00  1.00  1.00 -1.00 -1.00
E      2.00 -1.00  2.00  0.00  0.00
T_1    3.00  0.00 -1.00  1.00 -1.00
T_2    3.00  0.00 -1.00 -1.00  1.00

     the symmetry operations in each class and the name of the first element:

     E        1
          identity                                               
     8C3      5    7    8    6   12    9   10   11
          120 deg rotation - cart. axis [-1,-1,-1]               
     3C2      2    3    4
          180 deg rotation - cart. axis [0,0,1]                  
     6S4     15   16   20   19   23   24
          inv.  90 deg rotation - cart. axis [0,0,-1]            
     6s_d    13   14   17   18   21   22
          inv. 180 deg rotation - cart. axis [1,1,0]             

   Cartesian axes

     site n.     atom                  positions (alat units)
         1           C   tau(   1) = (   0.2500000   0.7500000   0.2500000  )
         2           C   tau(   2) = (   0.0000000   0.0000000   0.5000000  )
         3           C   tau(   3) = (   0.2500000   0.2500000   0.7500000  )
         4           C   tau(   4) = (   0.0000000   0.5000000   0.0000000  )
         5           C   tau(   5) = (   0.7500000   0.7500000   0.7500000  )
         6           C   tau(   6) = (   0.5000000   0.0000000   0.0000000  )
         7           C   tau(   7) = (   0.7500000   0.2500000   0.2500000  )
         8           C   tau(   8) = (   0.5000000   0.5000000   0.5000000  )

   Crystallographic axes

     site n.     atom                  positions (cryst. coord.)
         1           C   tau(   1) = (  0.2500000  0.7500000  0.2500000  )
         2           C   tau(   2) = (  0.0000000  0.0000000  0.5000000  )
         3           C   tau(   3) = (  0.2500000  0.2500000  0.7500000  )
         4           C   tau(   4) = (  0.0000000  0.5000000  0.0000000  )
         5           C   tau(   5) = (  0.7500000  0.7500000  0.7500000  )
         6           C   tau(   6) = (  0.5000000  0.0000000  0.0000000  )
         7           C   tau(   7) = (  0.7500000  0.2500000  0.2500000  )
         8           C   tau(   8) = (  0.5000000  0.5000000  0.5000000  )

     number of k points=    10  Gaussian smearing, width (Ry)=  0.0100
                       cart. coord. in units 2pi/alat
        k(    1) = (   0.0000000   0.0000000   0.0000000), wk =   0.0312500
        k(    2) = (   0.0000000   0.0000000   0.2500000), wk =   0.1875000
        k(    3) = (   0.0000000   0.0000000  -0.5000000), wk =   0.0937500
        k(    4) = (   0.0000000   0.2500000   0.2500000), wk =   0.3750000
        k(    5) = (   0.0000000   0.2500000  -0.5000000), wk =   0.3750000
        k(    6) = (   0.0000000  -0.5000000  -0.5000000), wk =   0.0937500
        k(    7) = (   0.2500000   0.2500000   0.2500000), wk =   0.2500000
        k(    8) = (   0.2500000   0.2500000  -0.5000000), wk =   0.3750000
        k(    9) = (   0.2500000  -0.5000000  -0.5000000), wk =   0.1875000
        k(   10) = (  -0.5000000  -0.5000000  -0.5000000), wk =   0.0312500

                       cryst. coord.
        k(    1) = (   0.0000000   0.0000000   0.0000000), wk =   0.0312500
        k(    2) = (   0.0000000   0.0000000   0.2500000), wk =   0.1875000
        k(    3) = (   0.0000000   0.0000000  -0.5000000), wk =   0.0937500
        k(    4) = (   0.0000000   0.2500000   0.2500000), wk =   0.3750000
        k(    5) = (   0.0000000   0.2500000  -0.5000000), wk =   0.3750000
        k(    6) = (   0.0000000  -0.5000000  -0.5000000), wk =   0.0937500
        k(    7) = (   0.2500000   0.2500000   0.2500000), wk =   0.2500000
        k(    8) = (   0.2500000   0.2500000  -0.5000000), wk =   0.3750000
        k(    9) = (   0.2500000  -0.5000000  -0.5000000), wk =   0.1875000
        k(   10) = (  -0.5000000  -0.5000000  -0.5000000), wk =   0.0312500

     Dense  grid:    34049 G-vectors     FFT dimensions: (  45,  45,  45)

     Smooth grid:    24303 G-vectors     FFT dimensions: (  36,  36,  36)

     Dynamical RAM for                 wfc:       0.03 MB

     Dynamical RAM for     wfc (w. buffer):       0.09 MB

     Dynamical RAM for           str. fact:       0.02 MB

     Dynamical RAM for           local pot:       0.00 MB

     Dynamical RAM for          nlocal pot:       0.09 MB

     Dynamical RAM for                qrad:       0.86 MB

     Dynamical RAM for          rho,v,vnew:       0.14 MB

     Dynamical RAM for               rhoin:       0.05 MB

     Dynamical RAM for            rho*nmix:       0.26 MB

     Dynamical RAM for           G-vectors:       0.07 MB

     Dynamical RAM for          h,s,v(r/c):       0.29 MB

     Dynamical RAM for          <psi|beta>:       0.02 MB

     Dynamical RAM for                 psi:       0.12 MB

     Dynamical RAM for                hpsi:       0.12 MB

     Dynamical RAM for                spsi:       0.12 MB

     Dynamical RAM for      wfcinit/wfcrot:       0.12 MB

     Dynamical RAM for           addusdens:       0.12 MB

     Dynamical RAM for          addusforce:       0.15 MB

     Dynamical RAM for         addusstress:       0.11 MB

     Estimated static dynamical RAM per process >       1.50 MB

     Estimated max dynamical RAM per process >       2.42 MB

     Estimated total dynamical RAM >     560.41 MB

     Check: negative core charge=   -0.000014

     Initial potential from superposition of free atoms

     starting charge      31.9997, renormalised to      32.0000


     %%%%%%%%%%%%%%%%%%%%%%%%%%%%%%%%%%%%%%%%%%%%%%%%%%%%%%%%%%%%%%%%%%%%%%%%
     %                                                                      %
     % You are using vdW-DF, which was implemented by the Thonhauser group. %
     % Please cite the following two papers that made this development      %
     % possible and the two reviews that describe the various versions:     %
     %                                                                      %
     %   T. Thonhauser et al., PRL 115, 136402 (2015).                      %
     %   T. Thonhauser et al., PRB 76, 125112 (2007).                       %
     %   K. Berland et al., Rep. Prog. Phys. 78, 066501 (2015).             %
     %   D.C. Langreth et al., J. Phys.: Condens. Matter 21, 084203 (2009). %
     %                                                                      %
     % If you are calculating stress with vdW-DF, please also cite:         %
     %                                                                      %
     %   R. Sabatini et al., J. Phys.: Condens. Matter 24, 424209 (2012).   %
     %                                                                      %
     %%%%%%%%%%%%%%%%%%%%%%%%%%%%%%%%%%%%%%%%%%%%%%%%%%%%%%%%%%%%%%%%%%%%%%%%

     %%%%%%%%%%%%%%%%%%%%%%%%%%%%%%%%%%%%%%%%%%%%%%%%%%%%%%%%%%%%%%%%%%%%%%%%
     %                                                                      %
     %  vdW-DF NEWS:                                                        %
     %                                                                      %
     %  * vdW-DF3 is now available. DOI: 10.1021/acs.jctc.0c00471           %
     %    use with input_dft = 'vdW-DF3-opt1' or 'vdW-DF3-opt2'             %
     %                                                                      %
     %  * Unscreened and range-separated hybrid vdW-DF-cx functionals       %
     %    DOI: 10.1063/1.4986522 and 10.1088/1361-648X/ac2ad2               %
     %    use with input_dft = 'vdW-DF-cx0'    and 'vdW-DF-ahcx'            %
     %  * Unscreened and range-separated hybrid vdW-DF2-b86r functionals    %
     %    DOI: 10.1063/1.4986522 and DOI: 10.1103/PhysRevX.12.041003        %
     %    use with input_dft = 'vdW-DF2-br0' and 'vdW-DF2-ahbr'             %
     %                                                                      %
     %%%%%%%%%%%%%%%%%%%%%%%%%%%%%%%%%%%%%%%%%%%%%%%%%%%%%%%%%%%%%%%%%%%%%%%%


     Carrying out vdW-DF run using the following parameters:
     Nqs    =  20  Npoints =  1024  r_max =  100.000
     q_mesh =  0.00001000  0.04494208  0.09755937  0.15916263
               0.23128650  0.31572767  0.41458969  0.53033537
               0.66584808  0.82450364  1.01025438  1.22772762
               1.48234092  1.78043706  2.12944203  2.53805004
               3.01644009  3.57652955  4.23227104  5.00000000


     -----------------------------------------------
     Non-local corr. energy    =       0.20134561 Ry
     -----------------------------------------------

     Starting wfcs are   32 randomized atomic wfcs
     Checking if some PAW data can be deallocated... 

     total cpu time spent up to now is        0.9 secs

     Self-consistent Calculation

     iteration #  1     ecut=    70.00 Ry     beta= 0.70
     Davidson diagonalization with overlap

---- Real-time Memory Report at c_bands before calling an iterative solver
           162 MiB given to the printing process from OS
             0 MiB allocation reported by mallinfo(arena+hblkhd)
       1715701 MiB available memory on the node where the printing process lives
------------------
     ethr =  1.00E-02,  avg # of iterations =  3.1


     -----------------------------------------------
     Non-local corr. energy    =       0.25825204 Ry
     -----------------------------------------------


     total cpu time spent up to now is        1.0 secs

     total energy              =    -151.91496964 Ry
     estimated scf accuracy    <       0.47281021 Ry

     iteration #  2     ecut=    70.00 Ry     beta= 0.70
     Davidson diagonalization with overlap

---- Real-time Memory Report at c_bands before calling an iterative solver
           165 MiB given to the printing process from OS
             0 MiB allocation reported by mallinfo(arena+hblkhd)
       1715607 MiB available memory on the node where the printing process lives
------------------
     ethr =  1.48E-03,  avg # of iterations =  3.6


     -----------------------------------------------
     Non-local corr. energy    =       0.27207159 Ry
     -----------------------------------------------


     total cpu time spent up to now is        1.1 secs

     total energy              =    -151.93993281 Ry
     estimated scf accuracy    <       0.01430293 Ry

     iteration #  3     ecut=    70.00 Ry     beta= 0.70
     Davidson diagonalization with overlap

---- Real-time Memory Report at c_bands before calling an iterative solver
           168 MiB given to the printing process from OS
             0 MiB allocation reported by mallinfo(arena+hblkhd)
       1715596 MiB available memory on the node where the printing process lives
------------------
     ethr =  4.47E-05,  avg # of iterations =  6.4


     -----------------------------------------------
     Non-local corr. energy    =       0.27343031 Ry
     -----------------------------------------------


     total cpu time spent up to now is        1.2 secs

     total energy              =    -151.94212620 Ry
     estimated scf accuracy    <       0.00029011 Ry

     iteration #  4     ecut=    70.00 Ry     beta= 0.70
     Davidson diagonalization with overlap

---- Real-time Memory Report at c_bands before calling an iterative solver
           168 MiB given to the printing process from OS
             0 MiB allocation reported by mallinfo(arena+hblkhd)
       1715579 MiB available memory on the node where the printing process lives
------------------
     ethr =  9.07E-07,  avg # of iterations =  8.8


     -----------------------------------------------
     Non-local corr. energy    =       0.27359061 Ry
     -----------------------------------------------


     total cpu time spent up to now is        1.3 secs

     total energy              =    -151.94218379 Ry
     estimated scf accuracy    <       0.00000585 Ry

     iteration #  5     ecut=    70.00 Ry     beta= 0.70
     Davidson diagonalization with overlap

---- Real-time Memory Report at c_bands before calling an iterative solver
           169 MiB given to the printing process from OS
             0 MiB allocation reported by mallinfo(arena+hblkhd)
       1715586 MiB available memory on the node where the printing process lives
------------------
     ethr =  1.83E-08,  avg # of iterations =  7.0


     -----------------------------------------------
     Non-local corr. energy    =       0.27361998 Ry
     -----------------------------------------------


     total cpu time spent up to now is        1.5 secs

     total energy              =    -151.94218572 Ry
     estimated scf accuracy    <       0.00000072 Ry

     iteration #  6     ecut=    70.00 Ry     beta= 0.70
     Davidson diagonalization with overlap

---- Real-time Memory Report at c_bands before calling an iterative solver
           169 MiB given to the printing process from OS
             0 MiB allocation reported by mallinfo(arena+hblkhd)
       1715547 MiB available memory on the node where the printing process lives
------------------
     ethr =  2.26E-09,  avg # of iterations =  7.3


     -----------------------------------------------
     Non-local corr. energy    =       0.27363916 Ry
     -----------------------------------------------


     total cpu time spent up to now is        1.6 secs

     total energy              =    -151.94218599 Ry
     estimated scf accuracy    <       0.00000004 Ry

     iteration #  7     ecut=    70.00 Ry     beta= 0.70
     Davidson diagonalization with overlap

---- Real-time Memory Report at c_bands before calling an iterative solver
           170 MiB given to the printing process from OS
             0 MiB allocation reported by mallinfo(arena+hblkhd)
       1715477 MiB available memory on the node where the printing process lives
------------------
     ethr =  1.24E-10,  avg # of iterations =  6.2


     -----------------------------------------------
     Non-local corr. energy    =       0.27364028 Ry
     -----------------------------------------------


     total cpu time spent up to now is        1.7 secs

     End of self-consistent calculation

          k = 0.0000 0.0000 0.0000 (  2969 PWs)   bands (ev):

    -8.4674   0.1691   0.1691   0.1691   0.1691   0.1691   0.1692   6.7035
     6.7035   6.7035   6.7039   6.7039   6.7039  12.9364  12.9364  12.9364
    17.9102  17.9102  17.9102  17.9102

     occupation numbers 
     1.0000   1.0000   1.0000   1.0000   1.0000   1.0000   1.0000   1.0000
     1.0000   1.0000   1.0000   1.0000   1.0000   1.0000   1.0000   1.0000
     0.0000   0.0000   0.0000   0.0000

          k = 0.0000 0.0000 0.2500 (  3042 PWs)   bands (ev):

    -7.8958  -3.4552   0.4886   0.4886   0.4886   0.4887   4.3126   5.7287
     5.7289   5.7289   5.7291   7.2588   7.2588  11.2378  11.2378  11.5860
    17.2405  18.2060  19.9078  19.9947

     occupation numbers 
     1.0000   1.0000   1.0000   1.0000   1.0000   1.0000   1.0000   1.0000
     1.0000   1.0000   1.0000   1.0000   1.0000   1.0000   1.0000   1.0000
     0.0000   0.0000   0.0000   0.0000

          k = 0.0000 0.0000-0.5000 (  3026 PWs)   bands (ev):

    -6.2009  -6.2008   0.9072   0.9072   0.9072   0.9073   4.7698   4.7700
     4.7700   4.7701   8.3683   8.3688   8.8638   8.8638   8.8640   8.8640
    17.5079  17.5083  23.3685  23.3685

     occupation numbers 
     1.0000   1.0000   1.0000   1.0000   1.0000   1.0000   1.0000   1.0000
     1.0000   1.0000   1.0000   1.0000   1.0000   1.0000   1.0000   1.0000
     0.0000   0.0000   0.0000   0.0000

          k = 0.0000 0.2500 0.2500 (  3031 PWs)   bands (ev):

    -7.3285  -2.9560  -2.9560  -0.0997   1.2005   3.7974   3.8792   3.8793
     6.0352   6.0355   7.0853   7.0856   7.6275   8.9560   9.7352  12.1804
    18.8170  19.4006  19.4006  19.7503

     occupation numbers 
     1.0000   1.0000   1.0000   1.0000   1.0000   1.0000   1.0000   1.0000
     1.0000   1.0000   1.0000   1.0000   1.0000   1.0000   1.0000   1.0000
     0.0000   0.0000   0.0000   0.0000

          k = 0.0000 0.2500-0.5000 (  3040 PWs)   bands (ev):

    -5.6507  -5.6506  -1.5896  -1.5894   2.5123   2.5123   4.2092   4.2095
     6.4185   6.4186   7.5094   7.5097   7.5374   7.5375  10.0682  10.0683
    19.6073  19.6077  21.4879  21.4882

     occupation numbers 
     1.0000   1.0000   1.0000   1.0000   1.0000   1.0000   1.0000   1.0000
     1.0000   1.0000   1.0000   1.0000   1.0000   1.0000   1.0000   1.0000
     0.0000   0.0000   0.0000   0.0000

          k = 0.0000-0.5000-0.5000 (  3048 PWs)   bands (ev):

    -4.0442  -4.0442  -4.0442  -4.0440   4.2340   4.2341   4.2341   4.2342
     5.4351   5.4351   5.4352   5.4356   9.9498   9.9500   9.9502   9.9502
    20.9907  20.9907  20.9908  20.9912

     occupation numbers 
     1.0000   1.0000   1.0000   1.0000   1.0000   1.0000   1.0000   1.0000
     1.0000   1.0000   1.0000   1.0000   1.0000   1.0000   1.0000   1.0000
     0.0000   0.0000   0.0000   0.0000

          k = 0.2500 0.2500 0.2500 (  3058 PWs)   bands (ev):

    -6.7665  -2.5137  -2.5137  -2.5136   2.1947   2.1948   2.1948   6.2537
     6.2537   6.2540   6.3850   8.1097   8.1100   8.1100  11.2058  11.2058
    19.1916  19.1916  19.1917  20.7921

     occupation numbers 
     1.0000   1.0000   1.0000   1.0000   1.0000   1.0000   1.0000   1.0000
     1.0000   1.0000   1.0000   1.0000   1.0000   1.0000   1.0000   1.0000
     0.0000   0.0000   0.0000   0.0000

          k = 0.2500 0.2500-0.5000 (  3050 PWs)   bands (ev):

    -5.1121  -5.1120  -1.8001  -1.8000   0.6925   0.6925   3.8737   3.8738
     6.6571   6.6574   8.3108   8.3110   9.4496   9.4499   9.7478   9.7480
    20.0524  20.0527  21.4367  21.4369

     occupation numbers 
     1.0000   1.0000   1.0000   1.0000   1.0000   1.0000   1.0000   1.0000
     1.0000   1.0000   1.0000   1.0000   1.0000   1.0000   1.0000   1.0000
     0.0000   0.0000   0.0000   0.0000

          k = 0.2500-0.5000-0.5000 (  3060 PWs)   bands (ev):

    -3.5793  -3.5792  -3.5792  -3.5790   1.4728   1.4728   1.4728   1.4730
     8.3862   8.3862   8.3862   8.3865  10.0490  10.0492  10.0494  10.0494
    21.2470  21.2470  21.2472  21.2476

     occupation numbers 
     1.0000   1.0000   1.0000   1.0000   1.0000   1.0000   1.0000   1.0000
     1.0000   1.0000   1.0000   1.0000   1.0000   1.0000   1.0000   1.0000
     0.0000   0.0000   0.0000   0.0000

          k =-0.5000-0.5000-0.5000 (  3112 PWs)   bands (ev):

    -2.8092  -2.8092  -2.8092  -2.8090  -0.2831  -0.2830  -0.2830  -0.2830
    10.1529  10.1529  10.1529  10.1531  10.1531  10.1534  10.1534  10.1534
    21.5023  21.5023  21.5024  21.5026

     occupation numbers 
     1.0000   1.0000   1.0000   1.0000   1.0000   1.0000   1.0000   1.0000
     1.0000   1.0000   1.0000   1.0000   1.0000   1.0000   1.0000   1.0000
     0.0000   0.0000   0.0000   0.0000

     the Fermi energy is    16.0898 ev

!    total energy              =    -151.94218602 Ry
     total all-electron energy =      -614.054963 Ry
     estimated scf accuracy    <          9.1E-10 Ry
     smearing contrib. (-TS)   =      -0.00000000 Ry
     internal energy E=F+TS    =    -151.94218602 Ry

     The total energy is F=E-TS. E is the sum of the following terms:
     one-electron contribution =      33.52703089 Ry
     hartree contribution      =       7.95536935 Ry
     xc contribution           =     -38.99632635 Ry
     ewald contribution        =    -102.09923472 Ry
     one-center paw contrib.   =     -52.32902518 Ry
      -> PAW hartree energy AE =       8.96796725 Ry
      -> PAW hartree energy PS =      -8.95966238 Ry
      -> PAW xc energy AE      =     -11.10800979 Ry
      -> PAW xc energy PS      =       4.55857603 Ry
      -> total E_H with PAW    =       7.96367422 Ry
      -> total E_XC with PAW   =     -45.54576010 Ry

     convergence has been achieved in   7 iterations


     -----------------------------------------------
     Non-local corr. energy    =       0.27364028 Ry
     -----------------------------------------------


     Forces acting on atoms (cartesian axes, Ry/au):

     atom    1 type  1   force =     0.00008861   -0.00008861    0.00008861
     atom    2 type  1   force =     0.00000000    0.00000000    0.00000000
     atom    3 type  1   force =     0.00008861    0.00008861   -0.00008861
     atom    4 type  1   force =     0.00000000    0.00000000    0.00000000
     atom    5 type  1   force =    -0.00008861   -0.00008861   -0.00008861
     atom    6 type  1   force =     0.00000000    0.00000000    0.00000000
     atom    7 type  1   force =    -0.00008861    0.00008861    0.00008861
     atom    8 type  1   force =     0.00000000    0.00000000    0.00000000
     The non-local contrib.  to forces
     atom    1 type  1   force =     0.00013835   -0.00013835    0.00013835
     atom    2 type  1   force =     0.00000000    0.00000000    0.00000000
     atom    3 type  1   force =     0.00013835    0.00013835   -0.00013835
     atom    4 type  1   force =     0.00000000    0.00000000    0.00000000
     atom    5 type  1   force =    -0.00013835   -0.00013835   -0.00013835
     atom    6 type  1   force =     0.00000000    0.00000000    0.00000000
     atom    7 type  1   force =    -0.00013835    0.00013835    0.00013835
     atom    8 type  1   force =     0.00000000    0.00000000    0.00000000
     The ionic contribution  to forces
     atom    1 type  1   force =    -0.00000003    0.00000006   -0.00000003
     atom    2 type  1   force =    -0.00000006   -0.00000006    0.00000003
     atom    3 type  1   force =    -0.00000003   -0.00000003    0.00000006
     atom    4 type  1   force =    -0.00000006    0.00000003   -0.00000006
     atom    5 type  1   force =     0.00000006    0.00000006    0.00000006
     atom    6 type  1   force =     0.00000003   -0.00000006   -0.00000006
     atom    7 type  1   force =     0.00000006   -0.00000003   -0.00000003
     atom    8 type  1   force =     0.00000003    0.00000003    0.00000003
     The local contribution  to forces
     atom    1 type  1   force =    -0.00016366    0.00016381   -0.00016366
     atom    2 type  1   force =    -0.00000000    0.00000000    0.00000007
     atom    3 type  1   force =    -0.00016366   -0.00016366    0.00016381
     atom    4 type  1   force =     0.00000000    0.00000007    0.00000000
     atom    5 type  1   force =     0.00016381    0.00016381    0.00016381
     atom    6 type  1   force =     0.00000007   -0.00000000    0.00000000
     atom    7 type  1   force =     0.00016381   -0.00016366   -0.00016366
     atom    8 type  1   force =     0.00000007    0.00000007    0.00000007
     The core correction contribution to forces
     atom    1 type  1   force =     0.00011405   -0.00011406    0.00011405
     atom    2 type  1   force =    -0.00000000   -0.00000000   -0.00000000
     atom    3 type  1   force =     0.00011405    0.00011405   -0.00011406
     atom    4 type  1   force =    -0.00000000   -0.00000000   -0.00000000
     atom    5 type  1   force =    -0.00011406   -0.00011406   -0.00011406
     atom    6 type  1   force =    -0.00000000   -0.00000000   -0.00000000
     atom    7 type  1   force =    -0.00011406    0.00011405    0.00011405
     atom    8 type  1   force =    -0.00000000   -0.00000000   -0.00000000
     The Hubbard contrib.    to forces
     atom    1 type  1   force =     0.00000000    0.00000000    0.00000000
     atom    2 type  1   force =     0.00000000    0.00000000    0.00000000
     atom    3 type  1   force =     0.00000000    0.00000000    0.00000000
     atom    4 type  1   force =     0.00000000    0.00000000    0.00000000
     atom    5 type  1   force =     0.00000000    0.00000000    0.00000000
     atom    6 type  1   force =     0.00000000    0.00000000    0.00000000
     atom    7 type  1   force =     0.00000000    0.00000000    0.00000000
     atom    8 type  1   force =     0.00000000    0.00000000    0.00000000
     The SCF correction term to forces
     atom    1 type  1   force =    -0.00000002    0.00000002   -0.00000002
     atom    2 type  1   force =     0.00000000    0.00000000   -0.00000000
     atom    3 type  1   force =    -0.00000002   -0.00000002    0.00000002
     atom    4 type  1   force =     0.00000000   -0.00000000    0.00000000
     atom    5 type  1   force =     0.00000002    0.00000002    0.00000002
     atom    6 type  1   force =    -0.00000000    0.00000000    0.00000000
     atom    7 type  1   force =     0.00000002   -0.00000002   -0.00000002
     atom    8 type  1   force =    -0.00000000   -0.00000000   -0.00000000

     Total force =     0.000307     Total SCF correction =     0.000000


     Computing stress (Cartesian axis) and pressure



     -----------------------------------------------
     Non-local corr. energy    =       0.27364028 Ry
     -----------------------------------------------

          total   stress  (Ry/bohr**3)                   (kbar)     P=       -5.05
  -0.00003434   0.00000000   0.00000000           -5.05        0.00        0.00
   0.00000000  -0.00003434   0.00000000            0.00       -5.05        0.00
   0.00000000   0.00000000  -0.00003434            0.00        0.00       -5.05

     kinetic stress (kbar)  18968.96      0.00      0.00
                                0.00  18968.96      0.00
                                0.00      0.00  18968.96

     local   stress (kbar)  -3485.15     -0.00     -0.00
                               -0.00  -3485.15     -0.00
                               -0.00     -0.00  -3485.15

     nonloc. stress (kbar)   4317.00      0.00      0.00
                                0.00   4317.00      0.00
                                0.00      0.00   4317.00

     hartree stress (kbar)   1266.52     -0.00     -0.00
                               -0.00   1266.52     -0.00
                               -0.00     -0.00   1266.52

     exc-cor stress (kbar)   -412.95      0.00      0.00
                                0.00   -412.95      0.00
                                0.00      0.00   -412.95

     corecor stress (kbar)  -4429.71     -0.00     -0.00
                               -0.00  -4429.71     -0.00
                               -0.00     -0.00  -4429.71

     ewald   stress (kbar) -16254.53      0.00      0.00
                                0.00 -16254.53      0.00
                                0.00      0.00 -16254.53

     hubbard stress (kbar)      0.00      0.00      0.00
                                0.00      0.00      0.00
                                0.00      0.00      0.00

     DFT-D   stress (kbar)      0.00      0.00      0.00
                                0.00      0.00      0.00
                                0.00      0.00      0.00

     XDM     stress (kbar)      0.00      0.00      0.00
                                0.00      0.00      0.00
                                0.00      0.00      0.00

     dft-nl  stress (kbar)     24.80     -0.00     -0.00
                               -0.00     24.80     -0.00
                               -0.00     -0.00     24.80

     TS-vdW  stress (kbar)      0.00      0.00      0.00
                                0.00      0.00      0.00
                                0.00      0.00      0.00

     MDB     stress (kbar)      0.00      0.00      0.00
                                0.00      0.00      0.00
                                0.00      0.00      0.00

     3D-RISM stress (kbar)      0.00      0.00      0.00
                                0.00      0.00      0.00
                                0.00      0.00      0.00


     BFGS Geometry Optimization
     Energy error            =      0.0E+00 Ry
     Gradient error          =      8.9E-05 Ry/Bohr
     Cell gradient error     =      5.1E+00 kbar

     number of scf cycles    =   1
     number of bfgs steps    =   0

     enthalpy           new  =    -151.9421860224 Ry

     new trust radius        =       0.0030135191 bohr
     new conv_thr            =       0.0000000100 Ry

     new unit-cell volume =    307.21008 a.u.^3 (    45.52384 Ang^3 )
     density =      3.50493 g/cm^3

CELL_PARAMETERS (alat=  6.75333318)
   0.999141448   0.000000000   0.000000000
   0.000000000   0.999141448   0.000000000
   0.000000000   0.000000000   0.999141448

ATOMIC_POSITIONS (angstrom)
C             0.8927072957        2.6779344879        0.8927072957
C             0.0000000000        0.0000000000        1.7853208918
C             0.8927072957        0.8927072957        2.6779344879
C             0.0000000000        1.7853208918        0.0000000000
C             2.6779344879        2.6779344879        2.6779344879
C             1.7853208918        0.0000000000        0.0000000000
C             2.6779344879        0.8927072957        0.8927072957
C             1.7853208918        1.7853208918        1.7853208918



     Writing config-only to output data dir ./diamond.save/
     NEW-OLD atomic charge density approx. for the potential

     Check: negative core charge=   -0.000014


     -----------------------------------------------
     Non-local corr. energy    =       0.27291168 Ry
     -----------------------------------------------

     extrapolated charge   31.91744, renormalised to   32.00000

     total cpu time spent up to now is        2.0 secs

     Self-consistent Calculation

     iteration #  1     ecut=    70.00 Ry     beta= 0.70
     Davidson diagonalization with overlap

---- Real-time Memory Report at c_bands before calling an iterative solver
           179 MiB given to the printing process from OS
             0 MiB allocation reported by mallinfo(arena+hblkhd)
       1715349 MiB available memory on the node where the printing process lives
------------------
     ethr =  1.00E-06,  avg # of iterations =  2.0

     Threshold (ethr) on eigenvalues was too large:
     Diagonalizing with lowered threshold

     Davidson diagonalization with overlap

---- Real-time Memory Report at c_bands before calling an iterative solver
           179 MiB given to the printing process from OS
             0 MiB allocation reported by mallinfo(arena+hblkhd)
       1715349 MiB available memory on the node where the printing process lives
------------------
     ethr =  3.73E-08,  avg # of iterations =  2.0


     -----------------------------------------------
     Non-local corr. energy    =       0.27362988 Ry
     -----------------------------------------------


     total cpu time spent up to now is        2.1 secs

     total energy              =    -151.94215611 Ry
     estimated scf accuracy    <       0.00001226 Ry

     iteration #  2     ecut=    70.00 Ry     beta= 0.70
     Davidson diagonalization with overlap

---- Real-time Memory Report at c_bands before calling an iterative solver
           179 MiB given to the printing process from OS
             0 MiB allocation reported by mallinfo(arena+hblkhd)
       1715328 MiB available memory on the node where the printing process lives
------------------
     ethr =  3.83E-08,  avg # of iterations =  4.0


     -----------------------------------------------
     Non-local corr. energy    =       0.27348098 Ry
     -----------------------------------------------


     total cpu time spent up to now is        2.2 secs

     total energy              =    -151.94218431 Ry
     estimated scf accuracy    <       0.00000863 Ry

     iteration #  3     ecut=    70.00 Ry     beta= 0.70
     Davidson diagonalization with overlap

---- Real-time Memory Report at c_bands before calling an iterative solver
           179 MiB given to the printing process from OS
             0 MiB allocation reported by mallinfo(arena+hblkhd)
       1715274 MiB available memory on the node where the printing process lives
------------------
     ethr =  2.70E-08,  avg # of iterations =  1.0


     -----------------------------------------------
     Non-local corr. energy    =       0.27327489 Ry
     -----------------------------------------------


     total cpu time spent up to now is        2.3 secs

     total energy              =    -151.94218327 Ry
     estimated scf accuracy    <       0.00000244 Ry

     iteration #  4     ecut=    70.00 Ry     beta= 0.70
     Davidson diagonalization with overlap

---- Real-time Memory Report at c_bands before calling an iterative solver
           179 MiB given to the printing process from OS
             0 MiB allocation reported by mallinfo(arena+hblkhd)
       1715272 MiB available memory on the node where the printing process lives
------------------
     ethr =  7.63E-09,  avg # of iterations =  4.0


     -----------------------------------------------
     Non-local corr. energy    =       0.27330478 Ry
     -----------------------------------------------


     total cpu time spent up to now is        2.4 secs

     total energy              =    -151.94218354 Ry
     estimated scf accuracy    <       0.00000012 Ry

     iteration #  5     ecut=    70.00 Ry     beta= 0.70
     Davidson diagonalization with overlap

---- Real-time Memory Report at c_bands before calling an iterative solver
           179 MiB given to the printing process from OS
             0 MiB allocation reported by mallinfo(arena+hblkhd)
       1715251 MiB available memory on the node where the printing process lives
------------------
     ethr =  3.74E-10,  avg # of iterations =  5.4


     -----------------------------------------------
     Non-local corr. energy    =       0.27331360 Ry
     -----------------------------------------------


     total cpu time spent up to now is        2.5 secs

     End of self-consistent calculation

          k = 0.0000 0.0000 0.0000 (  2969 PWs)   bands (ev):

    -8.4559   0.1964   0.1969   0.1969   0.1969   0.1973   0.1973   6.7339
     6.7339   6.7339   6.7339   6.7339   6.7339  12.9822  12.9822  12.9822
    17.9611  17.9611  17.9618  17.9618

     occupation numbers 
     1.0000   1.0000   1.0000   1.0000   1.0000   1.0000   1.0000   1.0000
     1.0000   1.0000   1.0000   1.0000   1.0000   1.0000   1.0000   1.0000
     0.0000   0.0000   0.0000   0.0000

          k = 0.0000 0.0000 0.2502 (  3042 PWs)   bands (ev):

    -7.8833  -3.4345   0.5176   0.5180   0.5180   0.5184   4.3487   5.7562
     5.7562   5.7562   5.7563   7.2903   7.2903  11.2786  11.2786  11.6319
    17.2922  18.2588  19.9618  20.0506

     occupation numbers 
     1.0000   1.0000   1.0000   1.0000   1.0000   1.0000   1.0000   1.0000
     1.0000   1.0000   1.0000   1.0000   1.0000   1.0000   1.0000   1.0000
     0.0000   0.0000   0.0000   0.0000

          k = 0.0000 0.0000-0.5004 (  3026 PWs)   bands (ev):

    -6.1856  -6.1849   0.9387   0.9390   0.9390   0.9395   4.7935   4.7937
     4.7937   4.7939   8.4112   8.4118   8.8985   8.8985   8.8995   8.8995
    17.5603  17.5604  23.4334  23.4337

     occupation numbers 
     1.0000   1.0000   1.0000   1.0000   1.0000   1.0000   1.0000   1.0000
     1.0000   1.0000   1.0000   1.0000   1.0000   1.0000   1.0000   1.0000
     0.0000   0.0000   0.0000   0.0000

          k = 0.0000 0.2502 0.2502 (  3031 PWs)   bands (ev):

    -7.3149  -2.9341  -2.9339  -0.0691   1.2297   3.8187   3.9146   3.9148
     6.0640   6.0645   7.1156   7.1161   7.6600   8.9955   9.7725  12.2246
    18.8702  19.4564  19.4568  19.8059

     occupation numbers 
     1.0000   1.0000   1.0000   1.0000   1.0000   1.0000   1.0000   1.0000
     1.0000   1.0000   1.0000   1.0000   1.0000   1.0000   1.0000   1.0000
     0.0000   0.0000   0.0000   0.0000

          k = 0.0000 0.2502-0.5004 (  3040 PWs)   bands (ev):

    -5.6343  -5.6337  -1.5639  -1.5633   2.5440   2.5442   4.2334   4.2334
     6.4550   6.4553   7.5419   7.5420   7.5692   7.5697  10.1075  10.1081
    19.6640  19.6640  21.5453  21.5464

     occupation numbers 
     1.0000   1.0000   1.0000   1.0000   1.0000   1.0000   1.0000   1.0000
     1.0000   1.0000   1.0000   1.0000   1.0000   1.0000   1.0000   1.0000
     0.0000   0.0000   0.0000   0.0000

          k = 0.0000-0.5004-0.5004 (  3048 PWs)   bands (ev):

    -4.0248  -4.0239  -4.0239  -4.0235   4.2670   4.2673   4.2674   4.2674
     5.4629   5.4629   5.4634   5.4636   9.9880   9.9880   9.9882   9.9893
    21.0497  21.0509  21.0509  21.0516

     occupation numbers 
     1.0000   1.0000   1.0000   1.0000   1.0000   1.0000   1.0000   1.0000
     1.0000   1.0000   1.0000   1.0000   1.0000   1.0000   1.0000   1.0000
     0.0000   0.0000   0.0000   0.0000

          k = 0.2502 0.2502 0.2502 (  3058 PWs)   bands (ev):

    -6.7519  -2.4904  -2.4900  -2.4900   2.2222   2.2222   2.2223   6.2855
     6.2860   6.2860   6.4187   8.1435   8.1435   8.1435  11.2472  11.2472
    19.2456  19.2456  19.2466  20.8500

     occupation numbers 
     1.0000   1.0000   1.0000   1.0000   1.0000   1.0000   1.0000   1.0000
     1.0000   1.0000   1.0000   1.0000   1.0000   1.0000   1.0000   1.0000
     0.0000   0.0000   0.0000   0.0000

          k = 0.2502 0.2502-0.5004 (  3050 PWs)   bands (ev):

    -5.0945  -5.0939  -1.7728  -1.7723   0.7134   0.7137   3.9028   3.9034
     6.6909   6.6915   8.3445   8.3448   9.4861   9.4871   9.7877   9.7882
    20.1092  20.1095  21.4909  21.4922

     occupation numbers 
     1.0000   1.0000   1.0000   1.0000   1.0000   1.0000   1.0000   1.0000
     1.0000   1.0000   1.0000   1.0000   1.0000   1.0000   1.0000   1.0000
     0.0000   0.0000   0.0000   0.0000

          k = 0.2502-0.5004-0.5004 (  3060 PWs)   bands (ev):

    -3.5583  -3.5573  -3.5573  -3.5570   1.4963   1.4968   1.4968   1.4976
     8.4220   8.4224   8.4224   8.4234  10.0876  10.0876  10.0879  10.0889
    21.3065  21.3077  21.3077  21.3082

     occupation numbers 
     1.0000   1.0000   1.0000   1.0000   1.0000   1.0000   1.0000   1.0000
     1.0000   1.0000   1.0000   1.0000   1.0000   1.0000   1.0000   1.0000
     0.0000   0.0000   0.0000   0.0000

          k =-0.5004-0.5004-0.5004 (  3112 PWs)   bands (ev):

    -2.7839  -2.7829  -2.7829  -2.7829  -0.2656  -0.2656  -0.2656  -0.2649
    10.1918  10.1918  10.1918  10.1922  10.1922  10.1922  10.1931  10.1931
    21.5580  21.5591  21.5593  21.5593

     occupation numbers 
     1.0000   1.0000   1.0000   1.0000   1.0000   1.0000   1.0000   1.0000
     1.0000   1.0000   1.0000   1.0000   1.0000   1.0000   1.0000   1.0000
     0.0000   0.0000   0.0000   0.0000

     the Fermi energy is    16.1416 ev

!    total energy              =    -151.94218355 Ry
     total all-electron energy =      -614.054960 Ry
     estimated scf accuracy    <          4.9E-09 Ry
     smearing contrib. (-TS)   =      -0.00000000 Ry
     internal energy E=F+TS    =    -151.94218355 Ry

     The total energy is F=E-TS. E is the sum of the following terms:
     one-electron contribution =      33.64337544 Ry
     hartree contribution      =       7.94458727 Ry
     xc contribution           =     -39.01384856 Ry
     ewald contribution        =    -102.18696732 Ry
     one-center paw contrib.   =     -52.32933038 Ry
      -> PAW hartree energy AE =       8.99090699 Ry
      -> PAW hartree energy PS =      -8.98259185 Ry
      -> PAW xc energy AE      =     -11.11374700 Ry
      -> PAW xc energy PS      =       4.56426439 Ry
      -> total E_H with PAW    =       7.95290241 Ry
      -> total E_XC with PAW   =     -45.56333117 Ry

     convergence has been achieved in   5 iterations


     -----------------------------------------------
     Non-local corr. energy    =       0.27331360 Ry
     -----------------------------------------------


     Forces acting on atoms (cartesian axes, Ry/au):

     atom    1 type  1   force =    -0.00004041    0.00004041   -0.00004041
     atom    2 type  1   force =     0.00000000    0.00000000    0.00000000
     atom    3 type  1   force =    -0.00004041   -0.00004041    0.00004041
     atom    4 type  1   force =     0.00000000    0.00000000    0.00000000
     atom    5 type  1   force =     0.00004041    0.00004041    0.00004041
     atom    6 type  1   force =     0.00000000    0.00000000    0.00000000
     atom    7 type  1   force =     0.00004041   -0.00004041   -0.00004041
     atom    8 type  1   force =     0.00000000    0.00000000    0.00000000
     The non-local contrib.  to forces
     atom    1 type  1   force =     0.00004489   -0.00004489    0.00004489
     atom    2 type  1   force =     0.00000000    0.00000000    0.00000000
     atom    3 type  1   force =     0.00004489    0.00004489   -0.00004489
     atom    4 type  1   force =     0.00000000    0.00000000    0.00000000
     atom    5 type  1   force =    -0.00004489   -0.00004489   -0.00004489
     atom    6 type  1   force =     0.00000000    0.00000000    0.00000000
     atom    7 type  1   force =    -0.00004489    0.00004489    0.00004489
     atom    8 type  1   force =     0.00000000    0.00000000    0.00000000
     The ionic contribution  to forces
     atom    1 type  1   force =    -0.00046896    0.00046899   -0.00046896
     atom    2 type  1   force =    -0.00000006   -0.00000006    0.00000003
     atom    3 type  1   force =    -0.00046896   -0.00046896    0.00046899
     atom    4 type  1   force =    -0.00000006    0.00000003   -0.00000006
     atom    5 type  1   force =     0.00046899    0.00046899    0.00046899
     atom    6 type  1   force =     0.00000003   -0.00000006   -0.00000006
     atom    7 type  1   force =     0.00046899   -0.00046896   -0.00046896
     atom    8 type  1   force =     0.00000003    0.00000003    0.00000003
     The local contribution  to forces
     atom    1 type  1   force =     0.00028496   -0.00028482    0.00028496
     atom    2 type  1   force =     0.00000000   -0.00000000    0.00000007
     atom    3 type  1   force =     0.00028496    0.00028496   -0.00028482
     atom    4 type  1   force =    -0.00000000    0.00000007    0.00000000
     atom    5 type  1   force =    -0.00028482   -0.00028482   -0.00028482
     atom    6 type  1   force =     0.00000007   -0.00000000   -0.00000000
     atom    7 type  1   force =    -0.00028482    0.00028496    0.00028496
     atom    8 type  1   force =     0.00000007    0.00000007    0.00000007
     The core correction contribution to forces
     atom    1 type  1   force =     0.00010193   -0.00010194    0.00010193
     atom    2 type  1   force =    -0.00000000   -0.00000000   -0.00000000
     atom    3 type  1   force =     0.00010193    0.00010193   -0.00010194
     atom    4 type  1   force =    -0.00000000   -0.00000000   -0.00000000
     atom    5 type  1   force =    -0.00010194   -0.00010194   -0.00010194
     atom    6 type  1   force =    -0.00000000   -0.00000000   -0.00000000
     atom    7 type  1   force =    -0.00010194    0.00010193    0.00010193
     atom    8 type  1   force =    -0.00000000   -0.00000000   -0.00000000
     The Hubbard contrib.    to forces
     atom    1 type  1   force =     0.00000000    0.00000000    0.00000000
     atom    2 type  1   force =     0.00000000    0.00000000    0.00000000
     atom    3 type  1   force =     0.00000000    0.00000000    0.00000000
     atom    4 type  1   force =     0.00000000    0.00000000    0.00000000
     atom    5 type  1   force =     0.00000000    0.00000000    0.00000000
     atom    6 type  1   force =     0.00000000    0.00000000    0.00000000
     atom    7 type  1   force =     0.00000000    0.00000000    0.00000000
     atom    8 type  1   force =     0.00000000    0.00000000    0.00000000
     The SCF correction term to forces
     atom    1 type  1   force =    -0.00000314    0.00000314   -0.00000314
     atom    2 type  1   force =     0.00000000    0.00000000   -0.00000000
     atom    3 type  1   force =    -0.00000314   -0.00000314    0.00000314
     atom    4 type  1   force =     0.00000000   -0.00000000    0.00000000
     atom    5 type  1   force =     0.00000314    0.00000314    0.00000314
     atom    6 type  1   force =    -0.00000000    0.00000000    0.00000000
     atom    7 type  1   force =     0.00000314   -0.00000314   -0.00000314
     atom    8 type  1   force =    -0.00000000   -0.00000000   -0.00000000

     Total force =     0.000140     Total SCF correction =     0.000011


     Computing stress (Cartesian axis) and pressure



     -----------------------------------------------
     Non-local corr. energy    =       0.27331360 Ry
     -----------------------------------------------

          total   stress  (Ry/bohr**3)                   (kbar)     P=        6.08
   0.00004131   0.00000000   0.00000000            6.08        0.00        0.00
   0.00000000   0.00004131   0.00000000            0.00        6.08        0.00
   0.00000000   0.00000000   0.00004131            0.00        0.00        6.08

     kinetic stress (kbar)  19036.42      0.00      0.00
                                0.00  19036.42      0.00
                                0.00      0.00  19036.42

     local   stress (kbar)  -3482.99     -0.00     -0.00
                               -0.00  -3482.99     -0.00
                               -0.00     -0.00  -3482.99

     nonloc. stress (kbar)   4328.22      0.00      0.00
                                0.00   4328.22      0.00
                                0.00      0.00   4328.22

     hartree stress (kbar)   1268.07      0.00     -0.00
                                0.00   1268.07      0.00
                               -0.00      0.00   1268.07

     exc-cor stress (kbar)   -416.32      0.00      0.00
                                0.00   -416.32      0.00
                                0.00      0.00   -416.32

     corecor stress (kbar)  -4441.69     -0.00     -0.00
                               -0.00  -4441.69     -0.00
                               -0.00     -0.00  -4441.69

     ewald   stress (kbar) -16310.47      0.00      0.00
                                0.00 -16310.47      0.00
                                0.00      0.00 -16310.47

     hubbard stress (kbar)      0.00      0.00      0.00
                                0.00      0.00      0.00
                                0.00      0.00      0.00

     DFT-D   stress (kbar)      0.00      0.00      0.00
                                0.00      0.00      0.00
                                0.00      0.00      0.00

     XDM     stress (kbar)      0.00      0.00      0.00
                                0.00      0.00      0.00
                                0.00      0.00      0.00

     dft-nl  stress (kbar)     24.84     -0.00     -0.00
                               -0.00     24.84     -0.00
                               -0.00     -0.00     24.84

     TS-vdW  stress (kbar)      0.00      0.00      0.00
                                0.00      0.00      0.00
                                0.00      0.00      0.00

     MDB     stress (kbar)      0.00      0.00      0.00
                                0.00      0.00      0.00
                                0.00      0.00      0.00

     3D-RISM stress (kbar)      0.00      0.00      0.00
                                0.00      0.00      0.00
                                0.00      0.00      0.00

     Energy error            =      2.5E-06 Ry
     Gradient error          =      4.0E-05 Ry/Bohr
     Cell gradient error     =      6.1E+00 kbar

     number of scf cycles    =   2
     number of bfgs steps    =   1

     enthalpy           old  =    -151.9421860224 Ry
     enthalpy           new  =    -151.9421835489 Ry

     CASE: enthalpy          _new > enthalpy          _old

     new trust radius        =       0.0013811502 bohr
     new conv_thr            =       0.0000000100 Ry

     new unit-cell volume =    307.63910 a.u.^3 (    45.58741 Ang^3 )
     density =      3.50004 g/cm^3

CELL_PARAMETERS (alat=  6.75333318)
   0.999606341   0.000000000   0.000000000
   0.000000000   0.999606341   0.000000000
   0.000000000   0.000000000   0.999606341

ATOMIC_POSITIONS (angstrom)
C             0.8930972856        2.6792058914        0.8930972856
C             0.0000000000        0.0000000000        1.7861515885
C             0.8930972856        0.8930972856        2.6792058914
C             0.0000000000        1.7861515885        0.0000000000
C             2.6792058914        2.6792058914        2.6792058914
C             1.7861515885        0.0000000000        0.0000000000
C             2.6792058914        0.8930972856        0.8930972856
C             1.7861515885        1.7861515885        1.7861515885



     Writing config-only to output data dir ./diamond.save/
     NEW-OLD atomic charge density approx. for the potential

     Check: negative core charge=   -0.000014


     -----------------------------------------------
     Non-local corr. energy    =       0.27370683 Ry
     -----------------------------------------------

     extrapolated charge   32.04463, renormalised to   32.00000

     total cpu time spent up to now is        2.8 secs

     Self-consistent Calculation

     iteration #  1     ecut=    70.00 Ry     beta= 0.70
     Davidson diagonalization with overlap

---- Real-time Memory Report at c_bands before calling an iterative solver
           180 MiB given to the printing process from OS
             0 MiB allocation reported by mallinfo(arena+hblkhd)
       1714461 MiB available memory on the node where the printing process lives
------------------
     ethr =  1.00E-06,  avg # of iterations =  2.0

     Threshold (ethr) on eigenvalues was too large:
     Diagonalizing with lowered threshold

     Davidson diagonalization with overlap

---- Real-time Memory Report at c_bands before calling an iterative solver
           180 MiB given to the printing process from OS
             0 MiB allocation reported by mallinfo(arena+hblkhd)
       1714461 MiB available memory on the node where the printing process lives
------------------
     ethr =  1.10E-08,  avg # of iterations =  2.0


     -----------------------------------------------
     Non-local corr. energy    =       0.27331780 Ry
     -----------------------------------------------


     total cpu time spent up to now is        2.9 secs

     total energy              =    -151.94218416 Ry
     estimated scf accuracy    <       0.00000362 Ry

     iteration #  2     ecut=    70.00 Ry     beta= 0.70
     Davidson diagonalization with overlap

---- Real-time Memory Report at c_bands before calling an iterative solver
           180 MiB given to the printing process from OS
             0 MiB allocation reported by mallinfo(arena+hblkhd)
       1714461 MiB available memory on the node where the printing process lives
------------------
     ethr =  1.13E-08,  avg # of iterations =  4.0


     -----------------------------------------------
     Non-local corr. energy    =       0.27339845 Ry
     -----------------------------------------------


     total cpu time spent up to now is        3.0 secs

     total energy              =    -151.94219246 Ry
     estimated scf accuracy    <       0.00000252 Ry

     iteration #  3     ecut=    70.00 Ry     beta= 0.70
     Davidson diagonalization with overlap

---- Real-time Memory Report at c_bands before calling an iterative solver
           180 MiB given to the printing process from OS
             0 MiB allocation reported by mallinfo(arena+hblkhd)
       1714461 MiB available memory on the node where the printing process lives
------------------
     ethr =  7.87E-09,  avg # of iterations =  1.0


     -----------------------------------------------
     Non-local corr. energy    =       0.27350980 Ry
     -----------------------------------------------


     total cpu time spent up to now is        3.1 secs

     total energy              =    -151.94219223 Ry
     estimated scf accuracy    <       0.00000071 Ry

     iteration #  4     ecut=    70.00 Ry     beta= 0.70
     Davidson diagonalization with overlap

---- Real-time Memory Report at c_bands before calling an iterative solver
           180 MiB given to the printing process from OS
             0 MiB allocation reported by mallinfo(arena+hblkhd)
       1714462 MiB available memory on the node where the printing process lives
------------------
     ethr =  2.22E-09,  avg # of iterations =  2.9


     -----------------------------------------------
     Non-local corr. energy    =       0.27349368 Ry
     -----------------------------------------------


     total cpu time spent up to now is        3.2 secs

     total energy              =    -151.94219230 Ry
     estimated scf accuracy    <       0.00000004 Ry

     iteration #  5     ecut=    70.00 Ry     beta= 0.70
     Davidson diagonalization with overlap

---- Real-time Memory Report at c_bands before calling an iterative solver
           180 MiB given to the printing process from OS
             0 MiB allocation reported by mallinfo(arena+hblkhd)
       1714455 MiB available memory on the node where the printing process lives
------------------
     ethr =  1.10E-10,  avg # of iterations =  5.8


     -----------------------------------------------
     Non-local corr. energy    =       0.27348880 Ry
     -----------------------------------------------


     total cpu time spent up to now is        3.3 secs

     End of self-consistent calculation

          k = 0.0000 0.0000 0.0000 (  2969 PWs)   bands (ev):

    -8.4620   0.1818   0.1820   0.1820   0.1820   0.1821   0.1821   6.7176
     6.7176   6.7176   6.7178   6.7178   6.7178  12.9575  12.9575  12.9575
    17.9336  17.9336  17.9339  17.9339

     occupation numbers 
     1.0000   1.0000   1.0000   1.0000   1.0000   1.0000   1.0000   1.0000
     1.0000   1.0000   1.0000   1.0000   1.0000   1.0000   1.0000   1.0000
     0.0000   0.0000   0.0000   0.0000

          k = 0.0000 0.0000 0.2501 (  3042 PWs)   bands (ev):

    -7.8899  -3.4456   0.5021   0.5022   0.5022   0.5023   4.3292   5.7414
     5.7415   5.7415   5.7417   7.2733   7.2733  11.2566  11.2566  11.6072
    17.2643  18.2303  19.9327  20.0204

     occupation numbers 
     1.0000   1.0000   1.0000   1.0000   1.0000   1.0000   1.0000   1.0000
     1.0000   1.0000   1.0000   1.0000   1.0000   1.0000   1.0000   1.0000
     0.0000   0.0000   0.0000   0.0000

          k = 0.0000 0.0000-0.5002 (  3026 PWs)   bands (ev):

    -6.1937  -6.1935   0.9218   0.9219   0.9219   0.9221   4.7808   4.7809
     4.7809   4.7811   8.3881   8.3886   8.8799   8.8799   8.8803   8.8803
    17.5321  17.5322  23.3984  23.3984

     occupation numbers 
     1.0000   1.0000   1.0000   1.0000   1.0000   1.0000   1.0000   1.0000
     1.0000   1.0000   1.0000   1.0000   1.0000   1.0000   1.0000   1.0000
     0.0000   0.0000   0.0000   0.0000

          k = 0.0000 0.2501 0.2501 (  3031 PWs)   bands (ev):

    -7.3222  -2.9459  -2.9458  -0.0856   1.2140   3.8072   3.8955   3.8957
     6.0485   6.0489   7.0994   7.0995   7.6425   8.9742   9.7524  12.2008
    18.8415  19.4263  19.4264  19.7759

     occupation numbers 
     1.0000   1.0000   1.0000   1.0000   1.0000   1.0000   1.0000   1.0000
     1.0000   1.0000   1.0000   1.0000   1.0000   1.0000   1.0000   1.0000
     0.0000   0.0000   0.0000   0.0000

          k = 0.0000 0.2501-0.5002 (  3040 PWs)   bands (ev):

    -5.6430  -5.6428  -1.5776  -1.5774   2.5269   2.5270   4.2204   4.2205
     6.4353   6.4355   7.5244   7.5245   7.5521   7.5524  10.0864  10.0867
    19.6334  19.6336  21.5144  21.5150

     occupation numbers 
     1.0000   1.0000   1.0000   1.0000   1.0000   1.0000   1.0000   1.0000
     1.0000   1.0000   1.0000   1.0000   1.0000   1.0000   1.0000   1.0000
     0.0000   0.0000   0.0000   0.0000

          k = 0.0000-0.5002-0.5002 (  3048 PWs)   bands (ev):

    -4.0351  -4.0348  -4.0348  -4.0346   4.2492   4.2495   4.2495   4.2495
     5.4479   5.4479   5.4483   5.4485   9.9675   9.9677   9.9677   9.9681
    21.0179  21.0184  21.0184  21.0190

     occupation numbers 
     1.0000   1.0000   1.0000   1.0000   1.0000   1.0000   1.0000   1.0000
     1.0000   1.0000   1.0000   1.0000   1.0000   1.0000   1.0000   1.0000
     0.0000   0.0000   0.0000   0.0000

          k = 0.2501 0.2501 0.2501 (  3058 PWs)   bands (ev):

    -6.7597  -2.5029  -2.5027  -2.5027   2.2075   2.2075   2.2075   6.2686
     6.2686   6.2686   6.4005   8.1253   8.1255   8.1255  11.2249  11.2249
    19.2165  19.2165  19.2169  20.8187

     occupation numbers 
     1.0000   1.0000   1.0000   1.0000   1.0000   1.0000   1.0000   1.0000
     1.0000   1.0000   1.0000   1.0000   1.0000   1.0000   1.0000   1.0000
     0.0000   0.0000   0.0000   0.0000

          k = 0.2501 0.2501-0.5002 (  3050 PWs)   bands (ev):

    -5.1039  -5.1037  -1.7874  -1.7873   0.7022   0.7023   3.8872   3.8874
     6.6728   6.6730   8.3264   8.3266   9.4666   9.4670   9.7662   9.7666
    20.0786  20.0788  21.4616  21.4623

     occupation numbers 
     1.0000   1.0000   1.0000   1.0000   1.0000   1.0000   1.0000   1.0000
     1.0000   1.0000   1.0000   1.0000   1.0000   1.0000   1.0000   1.0000
     0.0000   0.0000   0.0000   0.0000

          k = 0.2501-0.5002-0.5002 (  3060 PWs)   bands (ev):

    -3.5694  -3.5691  -3.5691  -3.5690   1.4838   1.4839   1.4839   1.4842
     8.4029   8.4029   8.4029   8.4034  10.0670  10.0671  10.0671  10.0675
    21.2745  21.2749  21.2749  21.2755

     occupation numbers 
     1.0000   1.0000   1.0000   1.0000   1.0000   1.0000   1.0000   1.0000
     1.0000   1.0000   1.0000   1.0000   1.0000   1.0000   1.0000   1.0000
     0.0000   0.0000   0.0000   0.0000

          k =-0.5002-0.5002-0.5002 (  3112 PWs)   bands (ev):

    -2.7974  -2.7970  -2.7970  -2.7970  -0.2750  -0.2750  -0.2750  -0.2747
    10.1710  10.1710  10.1710  10.1711  10.1711  10.1711  10.1716  10.1716
    21.5281  21.5284  21.5285  21.5285

     occupation numbers 
     1.0000   1.0000   1.0000   1.0000   1.0000   1.0000   1.0000   1.0000
     1.0000   1.0000   1.0000   1.0000   1.0000   1.0000   1.0000   1.0000
     0.0000   0.0000   0.0000   0.0000

     the Fermi energy is    16.1136 ev

!    total energy              =    -151.94219230 Ry
     total all-electron energy =      -614.054969 Ry
     estimated scf accuracy    <          1.5E-09 Ry
     smearing contrib. (-TS)   =      -0.00000000 Ry
     internal energy E=F+TS    =    -151.94219230 Ry

     The total energy is F=E-TS. E is the sum of the following terms:
     one-electron contribution =      33.58038486 Ry
     hartree contribution      =       7.95034431 Ry
     xc contribution           =     -39.00431922 Ry
     ewald contribution        =    -102.13944278 Ry
     one-center paw contrib.   =     -52.32915947 Ry
      -> PAW hartree energy AE =       8.97845389 Ry
      -> PAW hartree energy PS =      -8.97014436 Ry
      -> PAW xc energy AE      =     -11.11063260 Ry
      -> PAW xc energy PS      =       4.56117700 Ry
      -> total E_H with PAW    =       7.95865384 Ry
      -> total E_XC with PAW   =     -45.55377483 Ry

     convergence has been achieved in   5 iterations


     -----------------------------------------------
     Non-local corr. energy    =       0.27348880 Ry
     -----------------------------------------------


     Forces acting on atoms (cartesian axes, Ry/au):

     atom    1 type  1   force =     0.00003001   -0.00003001    0.00003001
     atom    2 type  1   force =     0.00000000    0.00000000    0.00000000
     atom    3 type  1   force =     0.00003001    0.00003001   -0.00003001
     atom    4 type  1   force =     0.00000000    0.00000000    0.00000000
     atom    5 type  1   force =    -0.00003001   -0.00003001   -0.00003001
     atom    6 type  1   force =     0.00000000    0.00000000    0.00000000
     atom    7 type  1   force =    -0.00003001    0.00003001    0.00003001
     atom    8 type  1   force =     0.00000000    0.00000000    0.00000000
     The non-local contrib.  to forces
     atom    1 type  1   force =     0.00009706   -0.00009706    0.00009706
     atom    2 type  1   force =     0.00000000    0.00000000    0.00000000
     atom    3 type  1   force =     0.00009706    0.00009706   -0.00009706
     atom    4 type  1   force =     0.00000000    0.00000000    0.00000000
     atom    5 type  1   force =    -0.00009706   -0.00009706   -0.00009706
     atom    6 type  1   force =     0.00000000    0.00000000    0.00000000
     atom    7 type  1   force =    -0.00009706    0.00009706    0.00009706
     atom    8 type  1   force =     0.00000000    0.00000000    0.00000000
     The ionic contribution  to forces
     atom    1 type  1   force =    -0.00021483    0.00021486   -0.00021483
     atom    2 type  1   force =    -0.00000006   -0.00000006    0.00000003
     atom    3 type  1   force =    -0.00021483   -0.00021483    0.00021486
     atom    4 type  1   force =    -0.00000006    0.00000003   -0.00000006
     atom    5 type  1   force =     0.00021486    0.00021486    0.00021486
     atom    6 type  1   force =     0.00000003   -0.00000006   -0.00000006
     atom    7 type  1   force =     0.00021486   -0.00021483   -0.00021483
     atom    8 type  1   force =     0.00000003    0.00000003    0.00000003
     The local contribution  to forces
     atom    1 type  1   force =     0.00003763   -0.00003748    0.00003763
     atom    2 type  1   force =     0.00000000    0.00000000    0.00000007
     atom    3 type  1   force =     0.00003763    0.00003763   -0.00003748
     atom    4 type  1   force =    -0.00000000    0.00000007    0.00000000
     atom    5 type  1   force =    -0.00003748   -0.00003748   -0.00003748
     atom    6 type  1   force =     0.00000007   -0.00000000    0.00000000
     atom    7 type  1   force =    -0.00003748    0.00003763    0.00003763
     atom    8 type  1   force =     0.00000007    0.00000007    0.00000007
     The core correction contribution to forces
     atom    1 type  1   force =     0.00010846   -0.00010847    0.00010846
     atom    2 type  1   force =    -0.00000000   -0.00000000   -0.00000000
     atom    3 type  1   force =     0.00010846    0.00010846   -0.00010847
     atom    4 type  1   force =    -0.00000000   -0.00000000   -0.00000000
     atom    5 type  1   force =    -0.00010846   -0.00010846   -0.00010846
     atom    6 type  1   force =    -0.00000000   -0.00000000   -0.00000000
     atom    7 type  1   force =    -0.00010847    0.00010846    0.00010846
     atom    8 type  1   force =    -0.00000000   -0.00000000   -0.00000000
     The Hubbard contrib.    to forces
     atom    1 type  1   force =     0.00000000    0.00000000    0.00000000
     atom    2 type  1   force =     0.00000000    0.00000000    0.00000000
     atom    3 type  1   force =     0.00000000    0.00000000    0.00000000
     atom    4 type  1   force =     0.00000000    0.00000000    0.00000000
     atom    5 type  1   force =     0.00000000    0.00000000    0.00000000
     atom    6 type  1   force =     0.00000000    0.00000000    0.00000000
     atom    7 type  1   force =     0.00000000    0.00000000    0.00000000
     atom    8 type  1   force =     0.00000000    0.00000000    0.00000000
     The SCF correction term to forces
     atom    1 type  1   force =     0.00000178   -0.00000178    0.00000178
     atom    2 type  1   force =    -0.00000000   -0.00000000    0.00000000
     atom    3 type  1   force =     0.00000178    0.00000178   -0.00000178
     atom    4 type  1   force =    -0.00000000    0.00000000   -0.00000000
     atom    5 type  1   force =    -0.00000178   -0.00000178   -0.00000178
     atom    6 type  1   force =     0.00000000   -0.00000000   -0.00000000
     atom    7 type  1   force =    -0.00000178    0.00000178    0.00000178
     atom    8 type  1   force =     0.00000000    0.00000000    0.00000000

     Total force =     0.000104     Total SCF correction =     0.000006


     Computing stress (Cartesian axis) and pressure



     -----------------------------------------------
     Non-local corr. energy    =       0.27348880 Ry
     -----------------------------------------------

          total   stress  (Ry/bohr**3)                   (kbar)     P=       -0.03
  -0.00000017   0.00000000   0.00000000           -0.03        0.00        0.00
   0.00000000  -0.00000017   0.00000000            0.00       -0.03        0.00
   0.00000000   0.00000000  -0.00000017            0.00        0.00       -0.03

     kinetic stress (kbar)  18999.79      0.00      0.00
                                0.00  18999.79      0.00
                                0.00      0.00  18999.79

     local   stress (kbar)  -3484.14     -0.00     -0.00
                               -0.00  -3484.14     -0.00
                               -0.00     -0.00  -3484.14

     nonloc. stress (kbar)   4322.11      0.00      0.00
                                0.00   4322.11      0.00
                                0.00      0.00   4322.11

     hartree stress (kbar)   1267.22     -0.00      0.00
                               -0.00   1267.22      0.00
                                0.00      0.00   1267.22

     exc-cor stress (kbar)   -414.49      0.00      0.00
                                0.00   -414.49      0.00
                                0.00      0.00   -414.49

     corecor stress (kbar)  -4435.19     -0.00     -0.00
                               -0.00  -4435.19     -0.00
                               -0.00     -0.00  -4435.19

     ewald   stress (kbar) -16280.15      0.00      0.00
                                0.00 -16280.15      0.00
                                0.00      0.00 -16280.15

     hubbard stress (kbar)      0.00      0.00      0.00
                                0.00      0.00      0.00
                                0.00      0.00      0.00

     DFT-D   stress (kbar)      0.00      0.00      0.00
[...]


     total cpu time spent up to now is        3.9 secs

     total energy              =    -151.94210612 Ry
     estimated scf accuracy    <       0.00029067 Ry

     iteration #  4     ecut=    70.00 Ry     beta= 0.70
     Davidson diagonalization with overlap

---- Real-time Memory Report at c_bands before calling an iterative solver
           180 MiB given to the printing process from OS
             0 MiB allocation reported by mallinfo(arena+hblkhd)
       1714329 MiB available memory on the node where the printing process lives
------------------
     ethr =  9.08E-07,  avg # of iterations =  4.6


     -----------------------------------------------
     Non-local corr. energy    =       0.27349746 Ry
     -----------------------------------------------


     total cpu time spent up to now is        4.0 secs

     total energy              =    -151.94218632 Ry
     estimated scf accuracy    <       0.00000525 Ry

     iteration #  5     ecut=    70.00 Ry     beta= 0.70
     Davidson diagonalization with overlap

---- Real-time Memory Report at c_bands before calling an iterative solver
           180 MiB given to the printing process from OS
             0 MiB allocation reported by mallinfo(arena+hblkhd)
       1714329 MiB available memory on the node where the printing process lives
------------------
     c_bands:  2 eigenvalues not converged
     ethr =  1.64E-08,  avg # of iterations =  6.0


     -----------------------------------------------
     Non-local corr. energy    =       0.27348384 Ry
     -----------------------------------------------


     total cpu time spent up to now is        4.1 secs

     total energy              =    -151.94218850 Ry
     estimated scf accuracy    <       0.00000022 Ry

     iteration #  6     ecut=    70.00 Ry     beta= 0.70
     Davidson diagonalization with overlap

---- Real-time Memory Report at c_bands before calling an iterative solver
           180 MiB given to the printing process from OS
             0 MiB allocation reported by mallinfo(arena+hblkhd)
       1714332 MiB available memory on the node where the printing process lives
------------------
     c_bands:  1 eigenvalues not converged
     c_bands:  1 eigenvalues not converged
     ethr =  6.99E-10,  avg # of iterations =  9.4


     -----------------------------------------------
     Non-local corr. energy    =       0.27348890 Ry
     -----------------------------------------------


     total cpu time spent up to now is        4.2 secs

     End of self-consistent calculation

          k = 0.0000 0.0000 0.0000 (  2969 PWs)   bands (ev):

    -8.4621   0.1818   0.1819   0.1819   0.1819   0.1820   0.1820   6.7175
     6.7175   6.7175   6.7177   6.7177   6.7177  12.9574  12.9574  12.9574
    17.9335  17.9336  17.9338  17.9338

     occupation numbers 
     1.0000   1.0000   1.0000   1.0000   1.0000   1.0000   1.0000   1.0000
     1.0000   1.0000   1.0000   1.0000   1.0000   1.0000   1.0000   1.0000
     0.0000   0.0000   0.0000   0.0000

          k = 0.0000 0.0000 0.2501 (  3042 PWs)   bands (ev):

    -7.8900  -3.4457   0.5021   0.5021   0.5021   0.5022   4.3292   5.7413
     5.7414   5.7414   5.7416   7.2733   7.2733  11.2565  11.2565  11.6071
    17.2642  18.2303  19.9325  20.0201

     occupation numbers 
     1.0000   1.0000   1.0000   1.0000   1.0000   1.0000   1.0000   1.0000
     1.0000   1.0000   1.0000   1.0000   1.0000   1.0000   1.0000   1.0000
     0.0000   0.0000   0.0000   0.0000

          k = 0.0000 0.0000-0.5002 (  3026 PWs)   bands (ev):

    -6.1938  -6.1936   0.9218   0.9218   0.9218   0.9220   4.7807   4.7809
     4.7809   4.7810   8.3880   8.3886   8.8799   8.8799   8.8802   8.8802
    17.5319  17.5322  23.3982  23.3983

     occupation numbers 
     1.0000   1.0000   1.0000   1.0000   1.0000   1.0000   1.0000   1.0000
     1.0000   1.0000   1.0000   1.0000   1.0000   1.0000   1.0000   1.0000
     0.0000   0.0000   0.0000   0.0000

          k = 0.0000 0.2501 0.2501 (  3031 PWs)   bands (ev):

    -7.3223  -2.9459  -2.9459  -0.0857   1.2139   3.8071   3.8955   3.8956
     6.0484   6.0488   7.0994   7.0994   7.6424   8.9741   9.7523  12.2007
    18.8413  19.4261  19.4263  19.7759

     occupation numbers 
     1.0000   1.0000   1.0000   1.0000   1.0000   1.0000   1.0000   1.0000
     1.0000   1.0000   1.0000   1.0000   1.0000   1.0000   1.0000   1.0000
     0.0000   0.0000   0.0000   0.0000

          k = 0.0000 0.2501-0.5002 (  3016 PWs)   bands (ev):

    -5.6431  -5.6429  -1.5777  -1.5775   2.5268   2.5270   4.2203   4.2205
     6.4353   6.4355   7.5244   7.5245   7.5521   7.5523  10.0863  10.0866
    19.6333  19.6335  21.5142  21.5149

     occupation numbers 
     1.0000   1.0000   1.0000   1.0000   1.0000   1.0000   1.0000   1.0000
     1.0000   1.0000   1.0000   1.0000   1.0000   1.0000   1.0000   1.0000
     0.0000   0.0000   0.0000   0.0000

          k = 0.0000-0.5002-0.5002 (  3048 PWs)   bands (ev):

    -4.0351  -4.0349  -4.0349  -4.0348   4.2491   4.2494   4.2494   4.2494
     5.4479   5.4479   5.4482   5.4484   9.9674   9.9676   9.9676   9.9680
    21.0178  21.0183  21.0183  21.0189

     occupation numbers 
     1.0000   1.0000   1.0000   1.0000   1.0000   1.0000   1.0000   1.0000
     1.0000   1.0000   1.0000   1.0000   1.0000   1.0000   1.0000   1.0000
     0.0000   0.0000   0.0000   0.0000

          k = 0.2501 0.2501 0.2501 (  3058 PWs)   bands (ev):

    -6.7598  -2.5029  -2.5028  -2.5028   2.2074   2.2074   2.2074   6.2685
     6.2685   6.2685   6.4005   8.1252   8.1254   8.1254  11.2248  11.2248
    19.2163  19.2163  19.2168  20.8187

     occupation numbers 
     1.0000   1.0000   1.0000   1.0000   1.0000   1.0000   1.0000   1.0000
     1.0000   1.0000   1.0000   1.0000   1.0000   1.0000   1.0000   1.0000
     0.0000   0.0000   0.0000   0.0000

          k = 0.2501 0.2501-0.5002 (  3050 PWs)   bands (ev):

    -5.1039  -5.1038  -1.7875  -1.7874   0.7021   0.7022   3.8871   3.8873
     6.6728   6.6729   8.3263   8.3265   9.4666   9.4668   9.7661   9.7665
    20.0785  20.0787  21.4615  21.4622

     occupation numbers 
     1.0000   1.0000   1.0000   1.0000   1.0000   1.0000   1.0000   1.0000
     1.0000   1.0000   1.0000   1.0000   1.0000   1.0000   1.0000   1.0000
     0.0000   0.0000   0.0000   0.0000

          k = 0.2501-0.5002-0.5002 (  3060 PWs)   bands (ev):

    -3.5694  -3.5692  -3.5692  -3.5691   1.4837   1.4838   1.4838   1.4841
     8.4028   8.4028   8.4029   8.4033  10.0669  10.0670  10.0670  10.0674
    21.2744  21.2748  21.2748  21.2754

     occupation numbers 
     1.0000   1.0000   1.0000   1.0000   1.0000   1.0000   1.0000   1.0000
     1.0000   1.0000   1.0000   1.0000   1.0000   1.0000   1.0000   1.0000
     0.0000   0.0000   0.0000   0.0000

          k =-0.5002-0.5002-0.5002 (  3112 PWs)   bands (ev):

    -2.7974  -2.7971  -2.7971  -2.7971  -0.2750  -0.2750  -0.2750  -0.2748
    10.1709  10.1709  10.1709  10.1711  10.1711  10.1711  10.1714  10.1714
    21.5280  21.5281  21.5284  21.5284

     occupation numbers 
     1.0000   1.0000   1.0000   1.0000   1.0000   1.0000   1.0000   1.0000
     1.0000   1.0000   1.0000   1.0000   1.0000   1.0000   1.0000   1.0000
     0.0000   0.0000   0.0000   0.0000

     the Fermi energy is    16.1135 ev

!    total energy              =    -151.94218856 Ry
     total all-electron energy =      -614.054965 Ry
     estimated scf accuracy    <          2.2E-09 Ry
     smearing contrib. (-TS)   =      -0.00000000 Ry
     internal energy E=F+TS    =    -151.94218856 Ry

     The total energy is F=E-TS. E is the sum of the following terms:
     one-electron contribution =      33.58037038 Ry
     hartree contribution      =       7.95038026 Ry
     xc contribution           =     -39.00433361 Ry
     ewald contribution        =    -102.13944278 Ry
     one-center paw contrib.   =     -52.32916282 Ry
      -> PAW hartree energy AE =       8.97860778 Ry
      -> PAW hartree energy PS =      -8.97029823 Ry
      -> PAW xc energy AE      =     -11.11067017 Ry
      -> PAW xc energy PS      =       4.56121404 Ry
      -> total E_H with PAW    =       7.95868982 Ry
      -> total E_XC with PAW   =     -45.55378973 Ry

     convergence has been achieved in   6 iterations


     -----------------------------------------------
     Non-local corr. energy    =       0.27348890 Ry
     -----------------------------------------------


     Forces acting on atoms (cartesian axes, Ry/au):

     atom    1 type  1   force =     0.00002903   -0.00002903    0.00002903
     atom    2 type  1   force =     0.00000000    0.00000000    0.00000000
     atom    3 type  1   force =     0.00002903    0.00002903   -0.00002903
     atom    4 type  1   force =     0.00000000    0.00000000    0.00000000
     atom    5 type  1   force =    -0.00002903   -0.00002903   -0.00002903
     atom    6 type  1   force =     0.00000000    0.00000000    0.00000000
     atom    7 type  1   force =    -0.00002903    0.00002903    0.00002903
     atom    8 type  1   force =     0.00000000    0.00000000    0.00000000
     The non-local contrib.  to forces
     atom    1 type  1   force =     0.00009084   -0.00009084    0.00009084
     atom    2 type  1   force =     0.00000000    0.00000000    0.00000000
     atom    3 type  1   force =     0.00009084    0.00009084   -0.00009084
     atom    4 type  1   force =     0.00000000    0.00000000    0.00000000
     atom    5 type  1   force =    -0.00009084   -0.00009084   -0.00009084
     atom    6 type  1   force =     0.00000000    0.00000000    0.00000000
     atom    7 type  1   force =    -0.00009084    0.00009084    0.00009084
     atom    8 type  1   force =     0.00000000    0.00000000    0.00000000
     The ionic contribution  to forces
     atom    1 type  1   force =    -0.00021483    0.00021486   -0.00021483
     atom    2 type  1   force =    -0.00000006   -0.00000006    0.00000003
     atom    3 type  1   force =    -0.00021483   -0.00021483    0.00021486
     atom    4 type  1   force =    -0.00000006    0.00000003   -0.00000006
     atom    5 type  1   force =     0.00021486    0.00021486    0.00021486
     atom    6 type  1   force =     0.00000003   -0.00000006   -0.00000006
     atom    7 type  1   force =     0.00021486   -0.00021483   -0.00021483
     atom    8 type  1   force =     0.00000003    0.00000003    0.00000003
     The local contribution  to forces
     atom    1 type  1   force =     0.00002262   -0.00002247    0.00002262
     atom    2 type  1   force =     0.00000000    0.00000000    0.00000007
     atom    3 type  1   force =     0.00002262    0.00002262   -0.00002247
     atom    4 type  1   force =    -0.00000000    0.00000007    0.00000000
     atom    5 type  1   force =    -0.00002247   -0.00002247   -0.00002247
     atom    6 type  1   force =     0.00000007   -0.00000000   -0.00000000
     atom    7 type  1   force =    -0.00002247    0.00002262    0.00002262
     atom    8 type  1   force =     0.00000007    0.00000007    0.00000007
     The core correction contribution to forces
     atom    1 type  1   force =     0.00010854   -0.00010855    0.00010854
     atom    2 type  1   force =    -0.00000000   -0.00000000   -0.00000000
     atom    3 type  1   force =     0.00010854    0.00010854   -0.00010855
     atom    4 type  1   force =    -0.00000000   -0.00000000   -0.00000000
     atom    5 type  1   force =    -0.00010855   -0.00010855   -0.00010855
     atom    6 type  1   force =    -0.00000000   -0.00000000   -0.00000000
     atom    7 type  1   force =    -0.00010855    0.00010854    0.00010854
     atom    8 type  1   force =    -0.00000000   -0.00000000   -0.00000000
     The Hubbard contrib.    to forces
     atom    1 type  1   force =     0.00000000    0.00000000    0.00000000
     atom    2 type  1   force =     0.00000000    0.00000000    0.00000000
     atom    3 type  1   force =     0.00000000    0.00000000    0.00000000
     atom    4 type  1   force =     0.00000000    0.00000000    0.00000000
     atom    5 type  1   force =     0.00000000    0.00000000    0.00000000
     atom    6 type  1   force =     0.00000000    0.00000000    0.00000000
     atom    7 type  1   force =     0.00000000    0.00000000    0.00000000
     atom    8 type  1   force =     0.00000000    0.00000000    0.00000000
     The SCF correction term to forces
     atom    1 type  1   force =     0.00002195   -0.00002195    0.00002195
     atom    2 type  1   force =     0.00000000    0.00000000   -0.00000000
     atom    3 type  1   force =     0.00002195    0.00002195   -0.00002195
     atom    4 type  1   force =     0.00000000   -0.00000000    0.00000000
     atom    5 type  1   force =    -0.00002195   -0.00002195   -0.00002195
     atom    6 type  1   force =    -0.00000000    0.00000000    0.00000000
     atom    7 type  1   force =    -0.00002195    0.00002195    0.00002195
     atom    8 type  1   force =    -0.00000000   -0.00000000   -0.00000000

     Total force =     0.000101     Total SCF correction =     0.000076
     SCF correction compared to forces is large: reduce conv_thr to get better values


     Computing stress (Cartesian axis) and pressure



     -----------------------------------------------
     Non-local corr. energy    =       0.27348890 Ry
     -----------------------------------------------

          total   stress  (Ry/bohr**3)                   (kbar)     P=       -0.01
  -0.00000004   0.00000000   0.00000000           -0.01        0.00        0.00
   0.00000000  -0.00000004   0.00000000            0.00       -0.01        0.00
   0.00000000   0.00000000  -0.00000004            0.00        0.00       -0.01

     kinetic stress (kbar)  18999.85      0.00      0.00
                                0.00  18999.85      0.00
                                0.00      0.00  18999.85

     local   stress (kbar)  -3484.15     -0.00     -0.00
                               -0.00  -3484.15     -0.00
                               -0.00     -0.00  -3484.15

     nonloc. stress (kbar)   4322.09      0.00      0.00
                                0.00   4322.09      0.00
                                0.00      0.00   4322.09

     hartree stress (kbar)   1267.22     -0.00      0.00
                               -0.00   1267.22      0.00
                                0.00      0.00   1267.22

     exc-cor stress (kbar)   -414.49      0.00      0.00
                                0.00   -414.49      0.00
                                0.00      0.00   -414.49

     corecor stress (kbar)  -4435.19     -0.00     -0.00
                               -0.00  -4435.19     -0.00
                               -0.00     -0.00  -4435.19

     ewald   stress (kbar) -16280.15      0.00      0.00
                                0.00 -16280.15      0.00
                                0.00      0.00 -16280.15

     hubbard stress (kbar)      0.00      0.00      0.00
                                0.00      0.00      0.00
                                0.00      0.00      0.00

     DFT-D   stress (kbar)      0.00      0.00      0.00
                                0.00      0.00      0.00
                                0.00      0.00      0.00

     XDM     stress (kbar)      0.00      0.00      0.00
                                0.00      0.00      0.00
                                0.00      0.00      0.00

     dft-nl  stress (kbar)     24.82     -0.00     -0.00
                               -0.00     24.82     -0.00
                               -0.00     -0.00     24.82

     TS-vdW  stress (kbar)      0.00      0.00      0.00
                                0.00      0.00      0.00
                                0.00      0.00      0.00

     MDB     stress (kbar)      0.00      0.00      0.00
                                0.00      0.00      0.00
                                0.00      0.00      0.00

     3D-RISM stress (kbar)      0.00      0.00      0.00
                                0.00      0.00      0.00
                                0.00      0.00      0.00


     Writing all to output data dir ./diamond.save/
 
     init_run     :      0.37s CPU      0.58s WALL (       2 calls)
     electrons    :      2.40s CPU      2.62s WALL (       4 calls)
     update_pot   :      0.16s CPU      0.17s WALL (       2 calls)
     forces       :      0.13s CPU      0.16s WALL (       4 calls)
     stress       :      0.34s CPU      0.37s WALL (       4 calls)

     Called by init_run:
     wfcinit      :      0.03s CPU      0.10s WALL (       2 calls)
     wfcinit:atom :      0.00s CPU      0.00s WALL (       4 calls)
     wfcinit:wfcr :      0.03s CPU      0.09s WALL (       4 calls)
     potinit      :      0.28s CPU      0.33s WALL (       2 calls)
     hinit0       :      0.03s CPU      0.09s WALL (       2 calls)

     Called by electrons:
     c_bands      :      1.26s CPU      1.32s WALL (      25 calls)
     sum_band     :      0.23s CPU      0.23s WALL (      25 calls)
     v_of_rho     :      0.66s CPU      0.70s WALL (      27 calls)
     v_h          :      0.01s CPU      0.01s WALL (      27 calls)
     v_xc         :      0.79s CPU      0.84s WALL (      35 calls)
     newd         :      0.03s CPU      0.04s WALL (      27 calls)
     PAW_pot      :      0.45s CPU      0.49s WALL (      29 calls)
     mix_rho      :      0.01s CPU      0.02s WALL (      25 calls)
     vdW_kernel   :      0.16s CPU      0.16s WALL (       1 calls)

     Called by c_bands:
     init_us_2    :      0.01s CPU      0.01s WALL (     124 calls)
     init_us_2:cp :      0.01s CPU      0.01s WALL (     124 calls)
     cegterg      :      0.98s CPU      1.02s WALL (      50 calls)

     Called by sum_band:
     sum_band:wei :      0.01s CPU      0.01s WALL (      25 calls)
     sum_band:loo :      0.10s CPU      0.10s WALL (      25 calls)
     sum_band:buf :      0.00s CPU      0.00s WALL (      50 calls)
     sum_band:ini :      0.00s CPU      0.00s WALL (      50 calls)
     sum_band:cal :      0.01s CPU      0.01s WALL (      54 calls)
     sum_band:bec :      0.00s CPU      0.00s WALL (      54 calls)
     addusdens    :      0.03s CPU      0.03s WALL (      25 calls)
                                        0.00s GPU  (      25 calls)
     addusd:skk   :      0.00s CPU      0.00s WALL (      25 calls)
                                        0.00s GPU  (      25 calls)

     Called by *egterg:
     cdiaghg      :      0.28s CPU      0.35s WALL (     324 calls)
     cegterg:over :      0.06s CPU      0.06s WALL (     282 calls)
     cegterg:upda :      0.01s CPU      0.01s WALL (     282 calls)
     cegterg:last :      0.00s CPU      0.00s WALL (      60 calls)
     h_psi        :      0.60s CPU      0.63s WALL (     336 calls)
     s_psi        :      0.01s CPU      0.01s WALL (     336 calls)
     g_psi        :      0.00s CPU      0.00s WALL (     282 calls)

     Called by h_psi:
     h_psi:calbec :      0.04s CPU      0.05s WALL (     336 calls)
     vloc_psi     :      0.54s CPU      0.56s WALL (     336 calls)
     add_vuspsi   :      0.02s CPU      0.02s WALL (     336 calls)

     General routines
     calbec       :      0.06s CPU      0.07s WALL (     430 calls)
     fft          :      0.31s CPU      0.38s WALL (    2373 calls)
     ffts         :      0.01s CPU      0.01s WALL (      52 calls)
     fftw         :      0.59s CPU      0.61s WALL (    7528 calls)
     interpolate  :      0.01s CPU      0.02s WALL (      27 calls)
 
     Parallel routines

     PAW routines
     PAW_pot      :      0.45s CPU      0.49s WALL (      29 calls)
     PAW_symme    :      0.06s CPU      0.06s WALL (      54 calls)
 
     PWSCF        :      3.71s CPU      4.99s WALL

 
   This run was terminated on:   7:13:41  30Sep2023            

=------------------------------------------------------------------------------=
   JOB DONE.
=------------------------------------------------------------------------------=
