
     Program PWSCF v.7.1 starts on  6Mar2024 at 22: 8:58 

     This program is part of the open-source Quantum ESPRESSO suite
     for quantum simulation of materials; please cite
         "P. Giannozzi et al., J. Phys.:Condens. Matter 21 395502 (2009);
         "P. Giannozzi et al., J. Phys.:Condens. Matter 29 465901 (2017);
         "P. Giannozzi et al., J. Chem. Phys. 152 154105 (2020);
          URL http://www.quantum-espresso.org", 
     in publications or presentations arising from this work. More details at
     http://www.quantum-espresso.org/quote

     Parallel version (MPI & OpenMP), running on     256 processor cores
     Number of MPI processes:               256
     Threads/MPI process:                     1

     MPI processes distributed on     2 nodes
     1841646 MiB available memory on the printing compute node when the environment starts
 
     Reading input from espresso.pwi
Warning: card &CELL ignored
Warning: card    CELL_DYNAMICS    = 'BFGS' ignored
Warning: card / ignored

     Current dimensions of program PWSCF are:
     Max number of different atomic species (ntypx) = 10
     Max number of k-points (npk) =  40000
     Max angular momentum in pseudopotentials (lmaxx) =  4
     file Ga.pbe-dn-kjpaw_psl.1.0.0.UPF: wavefunction(s)  4S renormalized
     file N.pbe-n-kjpaw_psl.1.0.0.UPF: wavefunction(s)  2S renormalized

     **************************************************************************
     Initializing libbeef V0.1.2 with the BEEF-vdW functional.
     Citation: Wellendorff et al., PRB 85, 235149 (2012).
     **************************************************************************


     IMPORTANT: XC functional enforced from input :
     Exchange-correlation= BEEF-VDW
                           (   1   4  43  14   2   0   0)
     Any further DFT definition will be discarded
     Please, verify this is what you really want

 
     K-points division:     npool     =       4
     R & G space division:  proc/nbgrp/npool/nimage =      64
     Subspace diagonalization in iterative solution of the eigenvalue problem:
     a serial algorithm will be used

 
     Parallelization info
     --------------------
     sticks:   dense  smooth     PW     G-vecs:    dense   smooth      PW
     Min         226     181     47                26979    19303    2571
     Max         228     182     48                26983    19308    2576
     Sum       14527   11629   3037              1726709  1235535  164709
 
     Using Slab Decomposition
 


     bravais-lattice index     =            4
     lattice parameter (alat)  =      24.5252  a.u.
     unit-cell volume          =   15616.6055 (a.u.)^3
     number of atoms/cell      =          191
     number of atomic types    =            2
     number of electrons       =      1723.00
     number of Kohn-Sham states=         1034
     kinetic-energy cutoff     =      70.0000  Ry
     charge density cutoff     =     350.0000  Ry
     scf convergence threshold =      1.0E-07
     mixing beta               =       0.7000
     number of iterations used =            8  plain     mixing
     energy convergence thresh.=      1.0E-04
     force convergence thresh. =      1.0E-03
     Exchange-correlation= BEEF-VDW
                           (   1   4  43  14   2   0   0)
     nstep                     =           50


     celldm(1)=  24.525232  celldm(2)=   0.000000  celldm(3)=   1.222409
     celldm(4)=   0.000000  celldm(5)=   0.000000  celldm(6)=   0.000000

     crystal axes: (cart. coord. in units of alat)
               a(1) = (   1.000000   0.000000   0.000000 )  
               a(2) = (  -0.500000   0.866025   0.000000 )  
               a(3) = (   0.000000   0.000000   1.222409 )  

     reciprocal axes: (cart. coord. in units 2 pi/alat)
               b(1) = (  1.000000  0.577350 -0.000000 )  
               b(2) = (  0.000000  1.154701  0.000000 )  
               b(3) = (  0.000000 -0.000000  0.818057 )  


     PseudoPot. # 1 for Ga read from file:
     /trace/group/acmegroup/atimmins/packages/espresso/pseudo/psl_1.0.0/pslibrary.1.0.0/pbe/PSEUDOPOTENTIALS/Ga.pbe-dn-kjpaw_psl.1.0.0.UPF
     MD5 check sum: cd2a01e492f15b435d17032472d8505c
     Pseudo is Projector augmented-wave + core cor, Zval = 13.0
     Generated using 'atomic' code by A. Dal Corso  v.7.1
     Shape of augmentation charge: PSQ
     Using radial grid of 1205 points,  6 beta functions with: 
                l(1) =   0
                l(2) =   0
                l(3) =   1
                l(4) =   1
                l(5) =   2
                l(6) =   2
     Q(r) pseudized with 0 coefficients 


     PseudoPot. # 2 for N  read from file:
     /trace/group/acmegroup/atimmins/packages/espresso/pseudo/psl_1.0.0/pslibrary.1.0.0/pbe/PSEUDOPOTENTIALS/N.pbe-n-kjpaw_psl.1.0.0.UPF
     MD5 check sum: f77f775694dac7e2c3fe1c82443d1a16
     Pseudo is Projector augmented-wave + core cor, Zval =  5.0
     Generated using 'atomic' code by A. Dal Corso  v.7.1
     Shape of augmentation charge: PSQ
     Using radial grid of 1085 points,  4 beta functions with: 
                l(1) =   0
                l(2) =   0
                l(3) =   1
                l(4) =   1
     Q(r) pseudized with 0 coefficients 


     atomic species   valence    mass     pseudopotential
        Ga            13.00    69.72300     Ga( 1.00)
        N              5.00    14.00700     N ( 1.00)

      6 Sym. Ops. (no inversion) found ( 4 have fractional translation)


                                    s                        frac. trans.

      isym =  1     identity                                     

 cryst.   s( 1) = (     1          0          0      )
                  (     0          1          0      )
                  (     0          0          1      )

 cart.    s( 1) = (  1.0000000  0.0000000  0.0000000 )
                  (  0.0000000  1.0000000  0.0000000 )
                  (  0.0000000  0.0000000  1.0000000 )


      isym =  2     120 deg rotation - cryst. axis [0,0,1]       

 cryst.   s( 2) = (     0          1          0      )    f =( -0.2500000 )
                  (    -1         -1          0      )       (  0.0000002 )
                  (     0          0          1      )       (  0.0000000 )

 cart.    s( 2) = ( -0.5000000 -0.8660254  0.0000000 )    f =( -0.2500001 )
                  (  0.8660254 -0.5000000  0.0000000 )       (  0.0000002 )
                  (  0.0000000  0.0000000  1.0000000 )       (  0.0000000 )


      isym =  3     120 deg rotation - cryst. axis [0,0,-1]      

 cryst.   s( 3) = (    -1         -1          0      )    f =( -0.2500002 )
                  (     1          0          0      )       ( -0.2500000 )
                  (     0          0          1      )       (  0.0000000 )

 cart.    s( 3) = ( -0.5000000  0.8660254  0.0000000 )    f =( -0.1250002 )
                  ( -0.8660254 -0.5000000  0.0000000 )       ( -0.2165064 )
                  (  0.0000000  0.0000000  1.0000000 )       (  0.0000000 )


      isym =  4     inv. 180 deg rotation - cart. axis [1,0,0]   

 cryst.   s( 4) = (    -1          0          0      )    f =( -0.2500002 )
                  (     1          1          0      )       (  0.0000000 )
                  (     0          0          1      )       (  0.0000000 )

 cart.    s( 4) = ( -1.0000000  0.0000000  0.0000000 )    f =( -0.2500002 )
                  (  0.0000000  1.0000000  0.0000000 )       (  0.0000000 )
                  (  0.0000000  0.0000000  1.0000000 )       (  0.0000000 )


      isym =  5     inv. 180 deg rotation - cryst. axis [0,1,0]  

 cryst.   s( 5) = (     1          1          0      )
                  (     0         -1          0      )
                  (     0          0          1      )

 cart.    s( 5) = (  0.5000000  0.8660254  0.0000000 )
                  (  0.8660254 -0.5000000  0.0000000 )
                  (  0.0000000  0.0000000  1.0000000 )


      isym =  6     inv. 180 deg rotation - cryst. axis [1,1,0]  

 cryst.   s( 6) = (     0         -1          0      )    f =( -0.2500000 )
                  (    -1          0          0      )       ( -0.2500000 )
                  (     0          0          1      )       (  0.0000000 )

 cart.    s( 6) = (  0.5000000 -0.8660254  0.0000000 )    f =( -0.1250000 )
                  ( -0.8660254 -0.5000000  0.0000000 )       ( -0.2165064 )
                  (  0.0000000  0.0000000  1.0000000 )       (  0.0000000 )


     point group C_3v (3m)  
     there are  3 classes
     the character table:

       E     2C3   3s_v 
A_1    1.00  1.00  1.00
A_2    1.00  1.00 -1.00
E      2.00 -1.00  0.00

     the symmetry operations in each class and the name of the first element:

     E        1
          identity                                               
     2C3      2    3
          120 deg rotation - cryst. axis [0,0,1]                 
     3s_v     4    5    6
          inv. 180 deg rotation - cart. axis [1,0,0]             

   Cartesian axes

     site n.     atom                  positions (alat units)
         1           Ga  tau(   1) = (   0.1250001   0.0721687   0.2033935  )
         2           Ga  tau(   2) = (   0.1250001   0.0721687   0.6108633  )
         3           Ga  tau(   3) = (   0.1250001   0.0721687   1.0183331  )
         4           Ga  tau(   4) = (   0.0000001   0.2886751   0.2033935  )
         5           Ga  tau(   5) = (   0.0000001   0.2886751   0.6108633  )
         6           Ga  tau(   6) = (   0.0000001   0.2886751   1.0183331  )
         7           Ga  tau(   7) = (  -0.1249999   0.5051814   0.2033935  )
         8           Ga  tau(   8) = (  -0.1249999   0.5051814   0.6108633  )
         9           Ga  tau(   9) = (  -0.1249999   0.5051814   1.0183331  )
        10           Ga  tau(  10) = (  -0.2499999   0.7216878   0.2033935  )
        11           Ga  tau(  11) = (  -0.2499999   0.7216878   0.6108633  )
        12           Ga  tau(  12) = (  -0.2499999   0.7216878   1.0183331  )
        13           Ga  tau(  13) = (   0.3750001   0.0721687   0.2033935  )
        14           Ga  tau(  14) = (   0.3750001   0.0721687   0.6108633  )
        15           Ga  tau(  15) = (   0.3750001   0.0721687   1.0183331  )
        16           Ga  tau(  16) = (   0.2500001   0.2886751   0.2033935  )
        17           Ga  tau(  17) = (   0.2500001   0.2886751   0.6108633  )
        18           Ga  tau(  18) = (   0.2500001   0.2886751   1.0183331  )
        19           Ga  tau(  19) = (   0.1250001   0.5051814   0.2033935  )
        20           Ga  tau(  20) = (   0.1250001   0.5051814   0.6108633  )
        21           Ga  tau(  21) = (   0.1250001   0.5051814   1.0183331  )
        22           Ga  tau(  22) = (   0.0000001   0.7216878   0.2033935  )
        23           Ga  tau(  23) = (   0.0000001   0.7216878   0.6108633  )
        24           Ga  tau(  24) = (   0.0000001   0.7216878   1.0183331  )
        25           Ga  tau(  25) = (   0.6250001   0.0721687   0.2033935  )
        26           Ga  tau(  26) = (   0.6250001   0.0721687   0.6108633  )
        27           Ga  tau(  27) = (   0.6250001   0.0721687   1.0183331  )
        28           Ga  tau(  28) = (   0.5000001   0.2886751   0.2033935  )
        29           Ga  tau(  29) = (   0.5000001   0.2886751   0.6108633  )
        30           Ga  tau(  30) = (   0.5000001   0.2886751   1.0183331  )
        31           Ga  tau(  31) = (   0.3750001   0.5051814   0.2033935  )
        32           Ga  tau(  32) = (   0.3750001   0.5051814   0.6108633  )
        33           Ga  tau(  33) = (   0.3750001   0.5051814   1.0183331  )
        34           Ga  tau(  34) = (   0.2500001   0.7216878   0.2033935  )
        35           Ga  tau(  35) = (   0.2500001   0.7216878   0.6108633  )
        36           Ga  tau(  36) = (   0.2500001   0.7216878   1.0183331  )
        37           Ga  tau(  37) = (   0.8750001   0.0721687   0.2033935  )
        38           Ga  tau(  38) = (   0.8750001   0.0721687   0.6108633  )
        39           Ga  tau(  39) = (   0.8750001   0.0721687   1.0183331  )
        40           Ga  tau(  40) = (   0.7500001   0.2886751   0.2033935  )
        41           Ga  tau(  41) = (   0.7500001   0.2886751   0.6108633  )
        42           Ga  tau(  42) = (   0.7500001   0.2886751   1.0183331  )
        43           Ga  tau(  43) = (   0.6250001   0.5051814   0.2033935  )
        44           Ga  tau(  44) = (   0.6250001   0.5051814   0.6108633  )
        45           Ga  tau(  45) = (   0.6250001   0.5051814   1.0183331  )
        46           Ga  tau(  46) = (   0.5000001   0.7216878   0.2033935  )
        47           Ga  tau(  47) = (   0.5000001   0.7216878   0.6108633  )
        48           Ga  tau(  48) = (   0.5000001   0.7216878   1.0183331  )
        49           Ga  tau(  49) = (  -0.0000002   0.1443377   0.4071284  )
        50           Ga  tau(  50) = (  -0.0000002   0.1443377   0.8145982  )
        51           Ga  tau(  51) = (  -0.0000002   0.1443377   1.2220680  )
        52           Ga  tau(  52) = (  -0.1250002   0.3608440   0.4071284  )
        53           Ga  tau(  53) = (  -0.1250002   0.3608440   0.8145982  )
        54           Ga  tau(  54) = (  -0.1250002   0.3608440   1.2220680  )
        55           Ga  tau(  55) = (  -0.2500002   0.5773504   0.4071284  )
        56           Ga  tau(  56) = (  -0.2500002   0.5773504   0.8145982  )
        57           Ga  tau(  57) = (  -0.2500002   0.5773504   1.2220680  )
        58           Ga  tau(  58) = (  -0.3750001   0.7938567   0.4071284  )
        59           Ga  tau(  59) = (  -0.3750001   0.7938567   0.8145982  )
        60           Ga  tau(  60) = (  -0.3750001   0.7938567   1.2220680  )
        61           Ga  tau(  61) = (   0.2499998   0.1443377   0.4071284  )
        62           Ga  tau(  62) = (   0.2499998   0.1443377   0.8145982  )
        63           Ga  tau(  63) = (   0.2499998   0.1443377   1.2220680  )
        64           Ga  tau(  64) = (   0.1249998   0.3608440   0.4071284  )
        65           Ga  tau(  65) = (   0.1249998   0.3608440   0.8145982  )
        66           Ga  tau(  66) = (   0.1249998   0.3608440   1.2220680  )
        67           Ga  tau(  67) = (  -0.0000002   0.5773504   0.4071284  )
        68           Ga  tau(  68) = (  -0.0000002   0.5773504   0.8145982  )
        69           Ga  tau(  69) = (  -0.0000002   0.5773504   1.2220680  )
        70           Ga  tau(  70) = (  -0.1250002   0.7938567   0.4071284  )
        71           Ga  tau(  71) = (  -0.1250002   0.7938567   0.8145982  )
        72           Ga  tau(  72) = (  -0.1250002   0.7938567   1.2220680  )
        73           Ga  tau(  73) = (   0.4999998   0.1443377   0.4071284  )
        74           Ga  tau(  74) = (   0.4999998   0.1443377   0.8145982  )
        75           Ga  tau(  75) = (   0.4999998   0.1443377   1.2220680  )
        76           Ga  tau(  76) = (   0.3749998   0.3608440   0.4071284  )
        77           Ga  tau(  77) = (   0.3749998   0.3608440   0.8145982  )
        78           Ga  tau(  78) = (   0.3749998   0.3608440   1.2220680  )
        79           Ga  tau(  79) = (   0.2499998   0.5773504   0.4071284  )
        80           Ga  tau(  80) = (   0.2499998   0.5773504   0.8145982  )
        81           Ga  tau(  81) = (   0.2499998   0.5773504   1.2220680  )
        82           Ga  tau(  82) = (   0.1249998   0.7938567   0.4071284  )
        83           Ga  tau(  83) = (   0.1249998   0.7938567   0.8145982  )
        84           Ga  tau(  84) = (   0.1249998   0.7938567   1.2220680  )
        85           Ga  tau(  85) = (   0.7499998   0.1443377   0.4071284  )
        86           Ga  tau(  86) = (   0.7499998   0.1443377   0.8145982  )
        87           Ga  tau(  87) = (   0.7499998   0.1443377   1.2220680  )
        88           Ga  tau(  88) = (   0.6249998   0.3608440   0.4071284  )
        89           Ga  tau(  89) = (   0.6249998   0.3608440   0.8145982  )
        90           Ga  tau(  90) = (   0.6249998   0.3608440   1.2220680  )
        91           Ga  tau(  91) = (   0.4999998   0.5773504   0.4071284  )
        92           Ga  tau(  92) = (   0.4999998   0.5773504   0.8145982  )
        93           Ga  tau(  93) = (   0.4999998   0.5773504   1.2220680  )
        94           Ga  tau(  94) = (   0.3749998   0.7938567   0.4071284  )
        95           Ga  tau(  95) = (   0.3749998   0.7938567   0.8145982  )
        96           Ga  tau(  96) = (   0.3749998   0.7938567   1.2220680  )
        97           N   tau(  97) = (   0.1250001   0.0721687   0.7643472  )
        98           N   tau(  98) = (   0.1250001   0.0721687   1.1718169  )
        99           N   tau(  99) = (   0.0000001   0.2886751   0.3568774  )
       100           N   tau( 100) = (   0.0000001   0.2886751   0.7643472  )
       101           N   tau( 101) = (   0.0000001   0.2886751   1.1718169  )
       102           N   tau( 102) = (  -0.1249999   0.5051814   0.3568774  )
       103           N   tau( 103) = (  -0.1249999   0.5051814   0.7643472  )
       104           N   tau( 104) = (  -0.1249999   0.5051814   1.1718169  )
       105           N   tau( 105) = (  -0.2499999   0.7216878   0.3568774  )
       106           N   tau( 106) = (  -0.2499999   0.7216878   0.7643472  )
       107           N   tau( 107) = (  -0.2499999   0.7216878   1.1718169  )
       108           N   tau( 108) = (   0.3750001   0.0721687   0.3568774  )
       109           N   tau( 109) = (   0.3750001   0.0721687   0.7643472  )
       110           N   tau( 110) = (   0.3750001   0.0721687   1.1718169  )
       111           N   tau( 111) = (   0.2500001   0.2886751   0.3568774  )
       112           N   tau( 112) = (   0.2500001   0.2886751   0.7643472  )
       113           N   tau( 113) = (   0.2500001   0.2886751   1.1718169  )
       114           N   tau( 114) = (   0.1250001   0.5051814   0.3568774  )
       115           N   tau( 115) = (   0.1250001   0.5051814   0.7643472  )
       116           N   tau( 116) = (   0.1250001   0.5051814   1.1718169  )
       117           N   tau( 117) = (   0.0000001   0.7216878   0.3568774  )
       118           N   tau( 118) = (   0.0000001   0.7216878   0.7643472  )
       119           N   tau( 119) = (   0.0000001   0.7216878   1.1718169  )
       120           N   tau( 120) = (   0.6250001   0.0721687   0.3568774  )
       121           N   tau( 121) = (   0.6250001   0.0721687   0.7643472  )
       122           N   tau( 122) = (   0.6250001   0.0721687   1.1718169  )
       123           N   tau( 123) = (   0.5000001   0.2886751   0.3568774  )
       124           N   tau( 124) = (   0.5000001   0.2886751   0.7643472  )
       125           N   tau( 125) = (   0.5000001   0.2886751   1.1718169  )
       126           N   tau( 126) = (   0.3750001   0.5051814   0.3568774  )
       127           N   tau( 127) = (   0.3750001   0.5051814   0.7643472  )
       128           N   tau( 128) = (   0.3750001   0.5051814   1.1718169  )
       129           N   tau( 129) = (   0.2500001   0.7216878   0.3568774  )
       130           N   tau( 130) = (   0.2500001   0.7216878   0.7643472  )
       131           N   tau( 131) = (   0.2500001   0.7216878   1.1718169  )
       132           N   tau( 132) = (   0.8750001   0.0721687   0.3568774  )
       133           N   tau( 133) = (   0.8750001   0.0721687   0.7643472  )
       134           N   tau( 134) = (   0.8750001   0.0721687   1.1718169  )
       135           N   tau( 135) = (   0.7500001   0.2886751   0.3568774  )
       136           N   tau( 136) = (   0.7500001   0.2886751   0.7643472  )
       137           N   tau( 137) = (   0.7500001   0.2886751   1.1718169  )
       138           N   tau( 138) = (   0.6250001   0.5051814   0.3568774  )
       139           N   tau( 139) = (   0.6250001   0.5051814   0.7643472  )
       140           N   tau( 140) = (   0.6250001   0.5051814   1.1718169  )
       141           N   tau( 141) = (   0.5000001   0.7216878   0.3568774  )
       142           N   tau( 142) = (   0.5000001   0.7216878   0.7643472  )
       143           N   tau( 143) = (   0.5000001   0.7216878   1.1718169  )
       144           N   tau( 144) = (  -0.0000002   0.1443377   0.1531425  )
       145           N   tau( 145) = (  -0.0000002   0.1443377   0.5606123  )
       146           N   tau( 146) = (  -0.0000002   0.1443377   0.9680820  )
       147           N   tau( 147) = (  -0.1250002   0.3608440   0.1531425  )
       148           N   tau( 148) = (  -0.1250002   0.3608440   0.5606123  )
       149           N   tau( 149) = (  -0.1250002   0.3608440   0.9680820  )
       150           N   tau( 150) = (  -0.2500002   0.5773504   0.1531425  )
       151           N   tau( 151) = (  -0.2500002   0.5773504   0.5606123  )
       152           N   tau( 152) = (  -0.2500002   0.5773504   0.9680820  )
       153           N   tau( 153) = (  -0.3750001   0.7938567   0.1531425  )
       154           N   tau( 154) = (  -0.3750001   0.7938567   0.5606123  )
       155           N   tau( 155) = (  -0.3750001   0.7938567   0.9680820  )
       156           N   tau( 156) = (   0.2499998   0.1443377   0.1531425  )
       157           N   tau( 157) = (   0.2499998   0.1443377   0.5606123  )
       158           N   tau( 158) = (   0.2499998   0.1443377   0.9680820  )
       159           N   tau( 159) = (   0.1249998   0.3608440   0.1531425  )
       160           N   tau( 160) = (   0.1249998   0.3608440   0.5606123  )
       161           N   tau( 161) = (   0.1249998   0.3608440   0.9680820  )
       162           N   tau( 162) = (  -0.0000002   0.5773504   0.1531425  )
       163           N   tau( 163) = (  -0.0000002   0.5773504   0.5606123  )
       164           N   tau( 164) = (  -0.0000002   0.5773504   0.9680820  )
       165           N   tau( 165) = (  -0.1250002   0.7938567   0.1531425  )
       166           N   tau( 166) = (  -0.1250002   0.7938567   0.5606123  )
       167           N   tau( 167) = (  -0.1250002   0.7938567   0.9680820  )
       168           N   tau( 168) = (   0.4999998   0.1443377   0.1531425  )
       169           N   tau( 169) = (   0.4999998   0.1443377   0.5606123  )
       170           N   tau( 170) = (   0.4999998   0.1443377   0.9680820  )
       171           N   tau( 171) = (   0.3749998   0.3608440   0.1531425  )
       172           N   tau( 172) = (   0.3749998   0.3608440   0.5606123  )
       173           N   tau( 173) = (   0.3749998   0.3608440   0.9680820  )
       174           N   tau( 174) = (   0.2499998   0.5773504   0.1531425  )
       175           N   tau( 175) = (   0.2499998   0.5773504   0.5606123  )
       176           N   tau( 176) = (   0.2499998   0.5773504   0.9680820  )
       177           N   tau( 177) = (   0.1249998   0.7938567   0.1531425  )
       178           N   tau( 178) = (   0.1249998   0.7938567   0.5606123  )
       179           N   tau( 179) = (   0.1249998   0.7938567   0.9680820  )
       180           N   tau( 180) = (   0.7499998   0.1443377   0.1531425  )
       181           N   tau( 181) = (   0.7499998   0.1443377   0.5606123  )
       182           N   tau( 182) = (   0.7499998   0.1443377   0.9680820  )
       183           N   tau( 183) = (   0.6249998   0.3608440   0.1531425  )
       184           N   tau( 184) = (   0.6249998   0.3608440   0.5606123  )
       185           N   tau( 185) = (   0.6249998   0.3608440   0.9680820  )
       186           N   tau( 186) = (   0.4999998   0.5773504   0.1531425  )
       187           N   tau( 187) = (   0.4999998   0.5773504   0.5606123  )
       188           N   tau( 188) = (   0.4999998   0.5773504   0.9680820  )
       189           N   tau( 189) = (   0.3749998   0.7938567   0.1531425  )
       190           N   tau( 190) = (   0.3749998   0.7938567   0.5606123  )
       191           N   tau( 191) = (   0.3749998   0.7938567   0.9680820  )

   Crystallographic axes

     site n.     atom                  positions (cryst. coord.)
         1           Ga  tau(   1) = (  0.1666667  0.0833333  0.1663874  )
         2           Ga  tau(   2) = (  0.1666667  0.0833333  0.4997208  )
         3           Ga  tau(   3) = (  0.1666667  0.0833333  0.8330541  )
         4           Ga  tau(   4) = (  0.1666667  0.3333333  0.1663874  )
         5           Ga  tau(   5) = (  0.1666667  0.3333333  0.4997208  )
         6           Ga  tau(   6) = (  0.1666667  0.3333333  0.8330541  )
         7           Ga  tau(   7) = (  0.1666667  0.5833333  0.1663874  )
         8           Ga  tau(   8) = (  0.1666667  0.5833333  0.4997208  )
         9           Ga  tau(   9) = (  0.1666667  0.5833333  0.8330541  )
        10           Ga  tau(  10) = (  0.1666667  0.8333333  0.1663874  )
        11           Ga  tau(  11) = (  0.1666667  0.8333333  0.4997208  )
        12           Ga  tau(  12) = (  0.1666667  0.8333333  0.8330541  )
        13           Ga  tau(  13) = (  0.4166667  0.0833333  0.1663874  )
        14           Ga  tau(  14) = (  0.4166667  0.0833333  0.4997208  )
        15           Ga  tau(  15) = (  0.4166667  0.0833333  0.8330541  )
        16           Ga  tau(  16) = (  0.4166667  0.3333333  0.1663874  )
        17           Ga  tau(  17) = (  0.4166667  0.3333333  0.4997208  )
        18           Ga  tau(  18) = (  0.4166667  0.3333333  0.8330541  )
        19           Ga  tau(  19) = (  0.4166667  0.5833333  0.1663874  )
        20           Ga  tau(  20) = (  0.4166667  0.5833333  0.4997208  )
        21           Ga  tau(  21) = (  0.4166667  0.5833333  0.8330541  )
        22           Ga  tau(  22) = (  0.4166667  0.8333333  0.1663874  )
        23           Ga  tau(  23) = (  0.4166667  0.8333333  0.4997208  )
        24           Ga  tau(  24) = (  0.4166667  0.8333333  0.8330541  )
        25           Ga  tau(  25) = (  0.6666667  0.0833333  0.1663874  )
        26           Ga  tau(  26) = (  0.6666667  0.0833333  0.4997208  )
        27           Ga  tau(  27) = (  0.6666667  0.0833333  0.8330541  )
        28           Ga  tau(  28) = (  0.6666667  0.3333333  0.1663874  )
        29           Ga  tau(  29) = (  0.6666667  0.3333333  0.4997208  )
        30           Ga  tau(  30) = (  0.6666667  0.3333333  0.8330541  )
        31           Ga  tau(  31) = (  0.6666667  0.5833333  0.1663874  )
        32           Ga  tau(  32) = (  0.6666667  0.5833333  0.4997208  )
        33           Ga  tau(  33) = (  0.6666667  0.5833333  0.8330541  )
        34           Ga  tau(  34) = (  0.6666667  0.8333333  0.1663874  )
        35           Ga  tau(  35) = (  0.6666667  0.8333333  0.4997208  )
        36           Ga  tau(  36) = (  0.6666667  0.8333333  0.8330541  )
        37           Ga  tau(  37) = (  0.9166667  0.0833333  0.1663874  )
        38           Ga  tau(  38) = (  0.9166667  0.0833333  0.4997208  )
        39           Ga  tau(  39) = (  0.9166667  0.0833333  0.8330541  )
        40           Ga  tau(  40) = (  0.9166667  0.3333333  0.1663874  )
        41           Ga  tau(  41) = (  0.9166667  0.3333333  0.4997208  )
        42           Ga  tau(  42) = (  0.9166667  0.3333333  0.8330541  )
        43           Ga  tau(  43) = (  0.9166667  0.5833333  0.1663874  )
        44           Ga  tau(  44) = (  0.9166667  0.5833333  0.4997208  )
        45           Ga  tau(  45) = (  0.9166667  0.5833333  0.8330541  )
        46           Ga  tau(  46) = (  0.9166667  0.8333333  0.1663874  )
        47           Ga  tau(  47) = (  0.9166667  0.8333333  0.4997208  )
        48           Ga  tau(  48) = (  0.9166667  0.8333333  0.8330541  )
        49           Ga  tau(  49) = (  0.0833333  0.1666668  0.3330541  )
        50           Ga  tau(  50) = (  0.0833333  0.1666668  0.6663874  )
        51           Ga  tau(  51) = (  0.0833333  0.1666668  0.9997208  )
        52           Ga  tau(  52) = (  0.0833333  0.4166668  0.3330541  )
        53           Ga  tau(  53) = (  0.0833333  0.4166668  0.6663874  )
        54           Ga  tau(  54) = (  0.0833333  0.4166668  0.9997208  )
        55           Ga  tau(  55) = (  0.0833333  0.6666668  0.3330541  )
        56           Ga  tau(  56) = (  0.0833333  0.6666668  0.6663874  )
        57           Ga  tau(  57) = (  0.0833333  0.6666668  0.9997208  )
        58           Ga  tau(  58) = (  0.0833333  0.9166668  0.3330541  )
        59           Ga  tau(  59) = (  0.0833333  0.9166668  0.6663874  )
        60           Ga  tau(  60) = (  0.0833333  0.9166668  0.9997208  )
        61           Ga  tau(  61) = (  0.3333332  0.1666668  0.3330541  )
        62           Ga  tau(  62) = (  0.3333332  0.1666668  0.6663874  )
        63           Ga  tau(  63) = (  0.3333332  0.1666668  0.9997208  )
        64           Ga  tau(  64) = (  0.3333332  0.4166668  0.3330541  )
        65           Ga  tau(  65) = (  0.3333332  0.4166668  0.6663874  )
        66           Ga  tau(  66) = (  0.3333332  0.4166668  0.9997208  )
        67           Ga  tau(  67) = (  0.3333332  0.6666668  0.3330541  )
        68           Ga  tau(  68) = (  0.3333332  0.6666668  0.6663874  )
        69           Ga  tau(  69) = (  0.3333332  0.6666668  0.9997208  )
        70           Ga  tau(  70) = (  0.3333332  0.9166668  0.3330541  )
        71           Ga  tau(  71) = (  0.3333332  0.9166668  0.6663874  )
        72           Ga  tau(  72) = (  0.3333332  0.9166668  0.9997208  )
        73           Ga  tau(  73) = (  0.5833332  0.1666668  0.3330541  )
        74           Ga  tau(  74) = (  0.5833332  0.1666668  0.6663874  )
        75           Ga  tau(  75) = (  0.5833332  0.1666668  0.9997208  )
        76           Ga  tau(  76) = (  0.5833332  0.4166668  0.3330541  )
        77           Ga  tau(  77) = (  0.5833332  0.4166668  0.6663874  )
        78           Ga  tau(  78) = (  0.5833332  0.4166668  0.9997208  )
        79           Ga  tau(  79) = (  0.5833332  0.6666668  0.3330541  )
        80           Ga  tau(  80) = (  0.5833332  0.6666668  0.6663874  )
        81           Ga  tau(  81) = (  0.5833332  0.6666668  0.9997208  )
        82           Ga  tau(  82) = (  0.5833332  0.9166668  0.3330541  )
        83           Ga  tau(  83) = (  0.5833332  0.9166668  0.6663874  )
        84           Ga  tau(  84) = (  0.5833332  0.9166668  0.9997208  )
        85           Ga  tau(  85) = (  0.8333332  0.1666668  0.3330541  )
        86           Ga  tau(  86) = (  0.8333332  0.1666668  0.6663874  )
        87           Ga  tau(  87) = (  0.8333332  0.1666668  0.9997208  )
        88           Ga  tau(  88) = (  0.8333332  0.4166668  0.3330541  )
        89           Ga  tau(  89) = (  0.8333332  0.4166668  0.6663874  )
        90           Ga  tau(  90) = (  0.8333332  0.4166668  0.9997208  )
        91           Ga  tau(  91) = (  0.8333332  0.6666668  0.3330541  )
        92           Ga  tau(  92) = (  0.8333332  0.6666668  0.6663874  )
        93           Ga  tau(  93) = (  0.8333332  0.6666668  0.9997208  )
        94           Ga  tau(  94) = (  0.8333332  0.9166668  0.3330541  )
        95           Ga  tau(  95) = (  0.8333332  0.9166668  0.6663874  )
        96           Ga  tau(  96) = (  0.8333332  0.9166668  0.9997208  )
        97           N   tau(  97) = (  0.1666667  0.0833333  0.6252792  )
        98           N   tau(  98) = (  0.1666667  0.0833333  0.9586126  )
        99           N   tau(  99) = (  0.1666667  0.3333333  0.2919459  )
       100           N   tau( 100) = (  0.1666667  0.3333333  0.6252792  )
       101           N   tau( 101) = (  0.1666667  0.3333333  0.9586126  )
       102           N   tau( 102) = (  0.1666667  0.5833333  0.2919459  )
       103           N   tau( 103) = (  0.1666667  0.5833333  0.6252792  )
       104           N   tau( 104) = (  0.1666667  0.5833333  0.9586126  )
       105           N   tau( 105) = (  0.1666667  0.8333333  0.2919459  )
       106           N   tau( 106) = (  0.1666667  0.8333333  0.6252792  )
       107           N   tau( 107) = (  0.1666667  0.8333333  0.9586126  )
       108           N   tau( 108) = (  0.4166667  0.0833333  0.2919459  )
       109           N   tau( 109) = (  0.4166667  0.0833333  0.6252792  )
       110           N   tau( 110) = (  0.4166667  0.0833333  0.9586126  )
       111           N   tau( 111) = (  0.4166667  0.3333333  0.2919459  )
       112           N   tau( 112) = (  0.4166667  0.3333333  0.6252792  )
       113           N   tau( 113) = (  0.4166667  0.3333333  0.9586126  )
       114           N   tau( 114) = (  0.4166667  0.5833333  0.2919459  )
       115           N   tau( 115) = (  0.4166667  0.5833333  0.6252792  )
       116           N   tau( 116) = (  0.4166667  0.5833333  0.9586126  )
       117           N   tau( 117) = (  0.4166667  0.8333333  0.2919459  )
       118           N   tau( 118) = (  0.4166667  0.8333333  0.6252792  )
       119           N   tau( 119) = (  0.4166667  0.8333333  0.9586126  )
       120           N   tau( 120) = (  0.6666667  0.0833333  0.2919459  )
       121           N   tau( 121) = (  0.6666667  0.0833333  0.6252792  )
       122           N   tau( 122) = (  0.6666667  0.0833333  0.9586126  )
       123           N   tau( 123) = (  0.6666667  0.3333333  0.2919459  )
       124           N   tau( 124) = (  0.6666667  0.3333333  0.6252792  )
       125           N   tau( 125) = (  0.6666667  0.3333333  0.9586126  )
       126           N   tau( 126) = (  0.6666667  0.5833333  0.2919459  )
       127           N   tau( 127) = (  0.6666667  0.5833333  0.6252792  )
       128           N   tau( 128) = (  0.6666667  0.5833333  0.9586126  )
       129           N   tau( 129) = (  0.6666667  0.8333333  0.2919459  )
       130           N   tau( 130) = (  0.6666667  0.8333333  0.6252792  )
       131           N   tau( 131) = (  0.6666667  0.8333333  0.9586126  )
       132           N   tau( 132) = (  0.9166667  0.0833333  0.2919459  )
       133           N   tau( 133) = (  0.9166667  0.0833333  0.6252792  )
       134           N   tau( 134) = (  0.9166667  0.0833333  0.9586126  )
       135           N   tau( 135) = (  0.9166667  0.3333333  0.2919459  )
       136           N   tau( 136) = (  0.9166667  0.3333333  0.6252792  )
       137           N   tau( 137) = (  0.9166667  0.3333333  0.9586126  )
       138           N   tau( 138) = (  0.9166667  0.5833333  0.2919459  )
       139           N   tau( 139) = (  0.9166667  0.5833333  0.6252792  )
       140           N   tau( 140) = (  0.9166667  0.5833333  0.9586126  )
       141           N   tau( 141) = (  0.9166667  0.8333333  0.2919459  )
       142           N   tau( 142) = (  0.9166667  0.8333333  0.6252792  )
       143           N   tau( 143) = (  0.9166667  0.8333333  0.9586126  )
       144           N   tau( 144) = (  0.0833333  0.1666668  0.1252792  )
       145           N   tau( 145) = (  0.0833333  0.1666668  0.4586126  )
       146           N   tau( 146) = (  0.0833333  0.1666668  0.7919459  )
       147           N   tau( 147) = (  0.0833333  0.4166668  0.1252792  )
       148           N   tau( 148) = (  0.0833333  0.4166668  0.4586126  )
       149           N   tau( 149) = (  0.0833333  0.4166668  0.7919459  )
       150           N   tau( 150) = (  0.0833333  0.6666668  0.1252792  )
       151           N   tau( 151) = (  0.0833333  0.6666668  0.4586126  )
       152           N   tau( 152) = (  0.0833333  0.6666668  0.7919459  )
       153           N   tau( 153) = (  0.0833333  0.9166668  0.1252792  )
       154           N   tau( 154) = (  0.0833333  0.9166668  0.4586126  )
       155           N   tau( 155) = (  0.0833333  0.9166668  0.7919459  )
       156           N   tau( 156) = (  0.3333332  0.1666668  0.1252792  )
       157           N   tau( 157) = (  0.3333332  0.1666668  0.4586126  )
       158           N   tau( 158) = (  0.3333332  0.1666668  0.7919459  )
       159           N   tau( 159) = (  0.3333332  0.4166668  0.1252792  )
       160           N   tau( 160) = (  0.3333332  0.4166668  0.4586126  )
       161           N   tau( 161) = (  0.3333332  0.4166668  0.7919459  )
       162           N   tau( 162) = (  0.3333332  0.6666668  0.1252792  )
       163           N   tau( 163) = (  0.3333332  0.6666668  0.4586126  )
       164           N   tau( 164) = (  0.3333332  0.6666668  0.7919459  )
       165           N   tau( 165) = (  0.3333332  0.9166668  0.1252792  )
       166           N   tau( 166) = (  0.3333332  0.9166668  0.4586126  )
       167           N   tau( 167) = (  0.3333332  0.9166668  0.7919459  )
       168           N   tau( 168) = (  0.5833332  0.1666668  0.1252792  )
       169           N   tau( 169) = (  0.5833332  0.1666668  0.4586126  )
       170           N   tau( 170) = (  0.5833332  0.1666668  0.7919459  )
       171           N   tau( 171) = (  0.5833332  0.4166668  0.1252792  )
       172           N   tau( 172) = (  0.5833332  0.4166668  0.4586126  )
       173           N   tau( 173) = (  0.5833332  0.4166668  0.7919459  )
       174           N   tau( 174) = (  0.5833332  0.6666668  0.1252792  )
       175           N   tau( 175) = (  0.5833332  0.6666668  0.4586126  )
       176           N   tau( 176) = (  0.5833332  0.6666668  0.7919459  )
       177           N   tau( 177) = (  0.5833332  0.9166668  0.1252792  )
       178           N   tau( 178) = (  0.5833332  0.9166668  0.4586126  )
       179           N   tau( 179) = (  0.5833332  0.9166668  0.7919459  )
       180           N   tau( 180) = (  0.8333332  0.1666668  0.1252792  )
       181           N   tau( 181) = (  0.8333332  0.1666668  0.4586126  )
       182           N   tau( 182) = (  0.8333332  0.1666668  0.7919459  )
       183           N   tau( 183) = (  0.8333332  0.4166668  0.1252792  )
       184           N   tau( 184) = (  0.8333332  0.4166668  0.4586126  )
       185           N   tau( 185) = (  0.8333332  0.4166668  0.7919459  )
       186           N   tau( 186) = (  0.8333332  0.6666668  0.1252792  )
       187           N   tau( 187) = (  0.8333332  0.6666668  0.4586126  )
       188           N   tau( 188) = (  0.8333332  0.6666668  0.7919459  )
       189           N   tau( 189) = (  0.8333332  0.9166668  0.1252792  )
       190           N   tau( 190) = (  0.8333332  0.9166668  0.4586126  )
       191           N   tau( 191) = (  0.8333332  0.9166668  0.7919459  )

     number of k points=     4  Gaussian smearing, width (Ry)=  0.0100
                       cart. coord. in units 2pi/alat
        k(    1) = (   0.0000000   0.0000000   0.0000000), wk =   0.2500000
        k(    2) = (   0.0000000   0.0000000  -0.4090283), wk =   0.2500000
        k(    3) = (   0.0000000  -0.5773503   0.0000000), wk =   0.7500000
        k(    4) = (   0.0000000  -0.5773503  -0.4090283), wk =   0.7500000

                       cryst. coord.
        k(    1) = (   0.0000000   0.0000000   0.0000000), wk =   0.2500000
        k(    2) = (   0.0000000   0.0000000  -0.5000000), wk =   0.2500000
        k(    3) = (   0.0000000  -0.5000000   0.0000000), wk =   0.7500000
        k(    4) = (   0.0000000  -0.5000000  -0.5000000), wk =   0.7500000

     Dense  grid:  1726709 G-vectors     FFT dimensions: ( 160, 160, 180)

     Smooth grid:  1235535 G-vectors     FFT dimensions: ( 144, 144, 160)

     Dynamical RAM for                 wfc:      38.07 MB

     Dynamical RAM for     wfc (w. buffer):      38.07 MB

     Dynamical RAM for           str. fact:       0.82 MB

     Dynamical RAM for           local pot:       0.00 MB

     Dynamical RAM for          nlocal pot:      91.61 MB

     Dynamical RAM for                qrad:       3.00 MB

     Dynamical RAM for          rho,v,vnew:       2.99 MB

     Dynamical RAM for               rhoin:       1.00 MB

     Dynamical RAM for            rho*nmix:       6.59 MB

     Dynamical RAM for           G-vectors:       1.69 MB

     Dynamical RAM for          h,s,v(r/c):     783.07 MB

     Dynamical RAM for          <psi|beta>:      39.25 MB

     Dynamical RAM for                 psi:     152.29 MB

     Dynamical RAM for                hpsi:     152.29 MB

     Dynamical RAM for                spsi:     152.29 MB

     Dynamical RAM for      wfcinit/wfcrot:     100.62 MB

     Dynamical RAM for           addusdens:      29.33 MB

     Dynamical RAM for          addusforce:      49.16 MB

     Dynamical RAM for         addusstress:      20.84 MB

     Estimated static dynamical RAM per process >     143.35 MB

     Estimated max dynamical RAM per process >       1.40 GB

     Estimated total dynamical RAM >     356.05 GB

     Atomic positions and unit cell read from directory:
     ./GaN.save/
     Message from routine qexsd_readschema :
     xml data file ./GaN.save/data-file-schema.xml not found
     Nothing found: using input atomic positions and unit cell


     Check: negative core charge=   -0.000003
     Cannot read rho : file not found

     Initial potential from superposition of free atoms

     starting charge    1722.7157, renormalised to    1723.0000


     %%%%%%%%%%%%%%%%%%%%%%%%%%%%%%%%%%%%%%%%%%%%%%%%%%%%%%%%%%%%%%%%%%%%%%%%
     %                                                                      %
     % You are using vdW-DF, which was implemented by the Thonhauser group. %
     % Please cite the following two papers that made this development      %
     % possible and the two reviews that describe the various versions:     %
     %                                                                      %
     %   T. Thonhauser et al., PRL 115, 136402 (2015).                      %
     %   T. Thonhauser et al., PRB 76, 125112 (2007).                       %
     %   K. Berland et al., Rep. Prog. Phys. 78, 066501 (2015).             %
     %   D.C. Langreth et al., J. Phys.: Condens. Matter 21, 084203 (2009). %
     %                                                                      %
     % If you are calculating stress with vdW-DF, please also cite:         %
     %                                                                      %
     %   R. Sabatini et al., J. Phys.: Condens. Matter 24, 424209 (2012).   %
     %                                                                      %
     %%%%%%%%%%%%%%%%%%%%%%%%%%%%%%%%%%%%%%%%%%%%%%%%%%%%%%%%%%%%%%%%%%%%%%%%

     %%%%%%%%%%%%%%%%%%%%%%%%%%%%%%%%%%%%%%%%%%%%%%%%%%%%%%%%%%%%%%%%%%%%%%%%
     %                                                                      %
     %  vdW-DF NEWS:                                                        %
     %                                                                      %
     %  * vdW-DF3 is now available. DOI: 10.1021/acs.jctc.0c00471           %
     %    use with input_dft = 'vdW-DF3-opt1' or 'vdW-DF3-opt2'             %
     %                                                                      %
     %  * Unscreened and range-separated vdW-DF hybrid functionals          %
     %    DOI: 10.1063/1.4986522 and 10.1088/1361-648X/ac2ad2               %
     %    use with input_dft = 'vdW-DF-cx0' (etc) and 'vdW-DF-ahcx'         %
     %                                                                      %
     %%%%%%%%%%%%%%%%%%%%%%%%%%%%%%%%%%%%%%%%%%%%%%%%%%%%%%%%%%%%%%%%%%%%%%%%


     Carrying out vdW-DF run using the following parameters:
     Nqs    =  20  Npoints =  1024  r_max =  100.000
     q_mesh =  0.00001000  0.04494208  0.09755937  0.15916263
               0.23128650  0.31572767  0.41458969  0.53033537
               0.66584808  0.82450364  1.01025438  1.22772762
               1.48234092  1.78043706  2.12944203  2.53805004
               3.01644009  3.57652955  4.23227104  5.00000000


     -----------------------------------------------
     Non-local corr. energy    =      49.62005879 Ry
     -----------------------------------------------

     Message from routine qexsd_readschema :
     xml data file ./GaN.save/data-file-schema.xml not found
     Cannot read wfcs: file not found
     Starting wfcs are 1244 randomized atomic wfcs
     Checking if some PAW data can be deallocated... 
       PAW data deallocated on   95 nodes for type:  1
       PAW data deallocated on  161 nodes for type:  2

     total cpu time spent up to now is       35.6 secs

     Self-consistent Calculation

     iteration #  1     ecut=    70.00 Ry     beta= 0.70
     Davidson diagonalization with overlap

---- Real-time Memory Report at c_bands before calling an iterative solver
           548 MiB given to the printing process from OS
             0 MiB allocation reported by mallinfo(arena+hblkhd)
       1811539 MiB available memory on the node where the printing process lives
------------------
     c_bands:  2 eigenvalues not converged
     ethr =  1.00E-05,  avg # of iterations = 20.8


     -----------------------------------------------
     Non-local corr. energy    =      52.13480800 Ry
     -----------------------------------------------


     total cpu time spent up to now is      436.2 secs

     total energy              =  -29923.07822870 Ry
     estimated scf accuracy    <      58.50867666 Ry

     iteration #  2     ecut=    70.00 Ry     beta= 0.70
     Davidson diagonalization with overlap

---- Real-time Memory Report at c_bands before calling an iterative solver
          1529 MiB given to the printing process from OS
             0 MiB allocation reported by mallinfo(arena+hblkhd)
       1810963 MiB available memory on the node where the printing process lives
------------------
     ethr =  3.40E-03,  avg # of iterations =  6.3


     -----------------------------------------------
     Non-local corr. energy    =      51.48563180 Ry
     -----------------------------------------------


     total cpu time spent up to now is      594.9 secs

     total energy              =  -29932.31723563 Ry
     estimated scf accuracy    <      84.35294456 Ry

     iteration #  3     ecut=    70.00 Ry     beta= 0.70
     Davidson diagonalization with overlap

---- Real-time Memory Report at c_bands before calling an iterative solver
          1529 MiB given to the printing process from OS
             0 MiB allocation reported by mallinfo(arena+hblkhd)
       1802458 MiB available memory on the node where the printing process lives
------------------
     ethr =  3.40E-03,  avg # of iterations =  7.8


     -----------------------------------------------
     Non-local corr. energy    =      51.49371876 Ry
     -----------------------------------------------


     total cpu time spent up to now is      776.8 secs

     total energy              =  -29940.09911923 Ry
     estimated scf accuracy    <     100.31583074 Ry

     iteration #  4     ecut=    70.00 Ry     beta= 0.70
     Davidson diagonalization with overlap

---- Real-time Memory Report at c_bands before calling an iterative solver
          1529 MiB given to the printing process from OS
             0 MiB allocation reported by mallinfo(arena+hblkhd)
       1802316 MiB available memory on the node where the printing process lives
------------------
     ethr =  3.40E-03,  avg # of iterations =  7.5


     -----------------------------------------------
     Non-local corr. energy    =      51.67363912 Ry
     -----------------------------------------------


     total cpu time spent up to now is      912.8 secs

     total energy              =  -29950.26067615 Ry
     estimated scf accuracy    <       2.01234200 Ry

     iteration #  5     ecut=    70.00 Ry     beta= 0.70
     Davidson diagonalization with overlap

---- Real-time Memory Report at c_bands before calling an iterative solver
          1529 MiB given to the printing process from OS
             0 MiB allocation reported by mallinfo(arena+hblkhd)
       1802177 MiB available memory on the node where the printing process lives
------------------
     ethr =  1.17E-04,  avg # of iterations = 11.5


     -----------------------------------------------
     Non-local corr. energy    =      52.09614363 Ry
     -----------------------------------------------


     total cpu time spent up to now is     1163.7 secs

     total energy              =  -29950.60562454 Ry
     estimated scf accuracy    <       0.38537606 Ry

     iteration #  6     ecut=    70.00 Ry     beta= 0.70
     Davidson diagonalization with overlap

---- Real-time Memory Report at c_bands before calling an iterative solver
          1529 MiB given to the printing process from OS
             0 MiB allocation reported by mallinfo(arena+hblkhd)
       1802020 MiB available memory on the node where the printing process lives
------------------
     ethr =  2.24E-05,  avg # of iterations = 11.3


     -----------------------------------------------
     Non-local corr. energy    =      52.32458928 Ry
     -----------------------------------------------


     total cpu time spent up to now is     1441.6 secs

     total energy              =  -29950.63101414 Ry
     estimated scf accuracy    <       0.42186430 Ry

     iteration #  7     ecut=    70.00 Ry     beta= 0.70
     Davidson diagonalization with overlap

---- Real-time Memory Report at c_bands before calling an iterative solver
          1529 MiB given to the printing process from OS
             0 MiB allocation reported by mallinfo(arena+hblkhd)
       1801870 MiB available memory on the node where the printing process lives
------------------
     ethr =  2.24E-05,  avg # of iterations = 13.3


     -----------------------------------------------
     Non-local corr. energy    =      52.24835309 Ry
     -----------------------------------------------


     total cpu time spent up to now is     1743.3 secs

     total energy              =  -29950.70440088 Ry
     estimated scf accuracy    <       0.05892901 Ry

     iteration #  8     ecut=    70.00 Ry     beta= 0.70
     Davidson diagonalization with overlap

---- Real-time Memory Report at c_bands before calling an iterative solver
          1529 MiB given to the printing process from OS
             0 MiB allocation reported by mallinfo(arena+hblkhd)
       1801729 MiB available memory on the node where the printing process lives
------------------
     ethr =  3.42E-06,  avg # of iterations = 14.0


     -----------------------------------------------
     Non-local corr. energy    =      52.23430250 Ry
     -----------------------------------------------


     total cpu time spent up to now is     2072.8 secs

     total energy              =  -29950.71295430 Ry
     estimated scf accuracy    <       0.01613171 Ry

     iteration #  9     ecut=    70.00 Ry     beta= 0.70
     Davidson diagonalization with overlap

---- Real-time Memory Report at c_bands before calling an iterative solver
          1529 MiB given to the printing process from OS
             0 MiB allocation reported by mallinfo(arena+hblkhd)
       1801568 MiB available memory on the node where the printing process lives
------------------
     ethr =  9.36E-07,  avg # of iterations = 13.3


     -----------------------------------------------
     Non-local corr. energy    =      52.23319736 Ry
     -----------------------------------------------


     total cpu time spent up to now is     2409.9 secs

     total energy              =  -29950.71607650 Ry
     estimated scf accuracy    <       0.00308902 Ry

     iteration # 10     ecut=    70.00 Ry     beta= 0.70
     Davidson diagonalization with overlap

---- Real-time Memory Report at c_bands before calling an iterative solver
          1529 MiB given to the printing process from OS
             0 MiB allocation reported by mallinfo(arena+hblkhd)
       1801414 MiB available memory on the node where the printing process lives
------------------
     c_bands:  1 eigenvalues not converged
     ethr =  1.79E-07,  avg # of iterations = 14.5


     -----------------------------------------------
     Non-local corr. energy    =      52.23925865 Ry
     -----------------------------------------------


     total cpu time spent up to now is     2810.6 secs

     total energy              =  -29950.71669026 Ry
     estimated scf accuracy    <       0.00155046 Ry

     iteration # 11     ecut=    70.00 Ry     beta= 0.70
     Davidson diagonalization with overlap

---- Real-time Memory Report at c_bands before calling an iterative solver
          1529 MiB given to the printing process from OS
             0 MiB allocation reported by mallinfo(arena+hblkhd)
       1801181 MiB available memory on the node where the printing process lives
------------------
     ethr =  9.00E-08,  avg # of iterations = 14.3


     -----------------------------------------------
     Non-local corr. energy    =      52.24735491 Ry
     -----------------------------------------------


     total cpu time spent up to now is     3127.1 secs

     total energy              =  -29950.71672487 Ry
     estimated scf accuracy    <       0.00058381 Ry

     iteration # 12     ecut=    70.00 Ry     beta= 0.70
     Davidson diagonalization with overlap

---- Real-time Memory Report at c_bands before calling an iterative solver
          1529 MiB given to the printing process from OS
             0 MiB allocation reported by mallinfo(arena+hblkhd)
       1800651 MiB available memory on the node where the printing process lives
------------------
     c_bands:  1 eigenvalues not converged
     ethr =  3.39E-08,  avg # of iterations = 15.0


     -----------------------------------------------
     Non-local corr. energy    =      52.25055581 Ry
     -----------------------------------------------


     total cpu time spent up to now is     3432.5 secs

     total energy              =  -29950.71673106 Ry
     estimated scf accuracy    <       0.00014387 Ry

     iteration # 13     ecut=    70.00 Ry     beta= 0.70
     Davidson diagonalization with overlap

---- Real-time Memory Report at c_bands before calling an iterative solver
          1529 MiB given to the printing process from OS
             0 MiB allocation reported by mallinfo(arena+hblkhd)
       1800660 MiB available memory on the node where the printing process lives
------------------
     ethr =  8.35E-09,  avg # of iterations = 14.5


     -----------------------------------------------
     Non-local corr. energy    =      52.24550218 Ry
     -----------------------------------------------


     total cpu time spent up to now is     3875.0 secs

     total energy              =  -29950.71677458 Ry
     estimated scf accuracy    <       0.00005884 Ry

     iteration # 14     ecut=    70.00 Ry     beta= 0.70
     Davidson diagonalization with overlap

---- Real-time Memory Report at c_bands before calling an iterative solver
          1529 MiB given to the printing process from OS
             0 MiB allocation reported by mallinfo(arena+hblkhd)
       1800664 MiB available memory on the node where the printing process lives
------------------
     ethr =  3.41E-09,  avg # of iterations = 11.8


     -----------------------------------------------
     Non-local corr. energy    =      52.24487391 Ry
     -----------------------------------------------


     total cpu time spent up to now is     4115.1 secs

     total energy              =  -29950.71677769 Ry
     estimated scf accuracy    <       0.00001603 Ry

     iteration # 15     ecut=    70.00 Ry     beta= 0.70
     Davidson diagonalization with overlap

---- Real-time Memory Report at c_bands before calling an iterative solver
          1529 MiB given to the printing process from OS
             0 MiB allocation reported by mallinfo(arena+hblkhd)
       1800660 MiB available memory on the node where the printing process lives
------------------
     ethr =  9.30E-10,  avg # of iterations = 13.3


     -----------------------------------------------
     Non-local corr. energy    =      52.24494489 Ry
     -----------------------------------------------


     total cpu time spent up to now is     4451.2 secs

     total energy              =  -29950.71678125 Ry
     estimated scf accuracy    <       0.00000257 Ry

     iteration # 16     ecut=    70.00 Ry     beta= 0.70
     Davidson diagonalization with overlap

---- Real-time Memory Report at c_bands before calling an iterative solver
          1529 MiB given to the printing process from OS
             0 MiB allocation reported by mallinfo(arena+hblkhd)
       1800661 MiB available memory on the node where the printing process lives
------------------
     c_bands:  2 eigenvalues not converged
     ethr =  1.49E-10,  avg # of iterations = 25.8


     -----------------------------------------------
     Non-local corr. energy    =      52.24525767 Ry
     -----------------------------------------------


     total cpu time spent up to now is     4867.7 secs

     total energy              =  -29950.71678273 Ry
     estimated scf accuracy    <       0.00000121 Ry

     iteration # 17     ecut=    70.00 Ry     beta= 0.70
     Davidson diagonalization with overlap

---- Real-time Memory Report at c_bands before calling an iterative solver
          1529 MiB given to the printing process from OS
             0 MiB allocation reported by mallinfo(arena+hblkhd)
       1800671 MiB available memory on the node where the printing process lives
------------------
     ethr =  7.04E-11,  avg # of iterations = 12.5


     -----------------------------------------------
     Non-local corr. energy    =      52.24563258 Ry
     -----------------------------------------------


     total cpu time spent up to now is     5124.7 secs

     total energy              =  -29950.71678313 Ry
     estimated scf accuracy    <       0.00000026 Ry

     iteration # 18     ecut=    70.00 Ry     beta= 0.70
     Davidson diagonalization with overlap

---- Real-time Memory Report at c_bands before calling an iterative solver
          1529 MiB given to the printing process from OS
             0 MiB allocation reported by mallinfo(arena+hblkhd)
       1800667 MiB available memory on the node where the printing process lives
------------------
     ethr =  1.49E-11,  avg # of iterations = 10.8


     -----------------------------------------------
     Non-local corr. energy    =      52.24550809 Ry
     -----------------------------------------------


     total cpu time spent up to now is     5529.3 secs

     total energy              =  -29950.71678318 Ry
     estimated scf accuracy    <       0.00000018 Ry

     iteration # 19     ecut=    70.00 Ry     beta= 0.70
     Davidson diagonalization with overlap

---- Real-time Memory Report at c_bands before calling an iterative solver
          1529 MiB given to the printing process from OS
             0 MiB allocation reported by mallinfo(arena+hblkhd)
       1800642 MiB available memory on the node where the printing process lives
------------------
     ethr =  1.02E-11,  avg # of iterations = 12.3


     -----------------------------------------------
     Non-local corr. energy    =      52.24531307 Ry
     -----------------------------------------------


     total cpu time spent up to now is     5794.9 secs

     End of self-consistent calculation

          k = 0.0000 0.0000 0.0000 (154543 PWs)   bands (ev):

    -6.8927  -6.7018  -6.6745  -6.6527  -6.6527  -6.6218  -6.6085  -6.6085
    -6.5654  -6.5653  -6.5459  -6.5455  -6.5455  -6.5422  -6.5382  -6.5348
    -6.5036  -6.5036  -6.4763  -6.4762  -6.4565  -6.4460  -6.4460  -6.4397
    -6.4341  -6.4311  -6.4283  -6.4283  -6.4262  -6.4217  -6.4217  -6.4114
    -6.4114  -6.4073  -6.4027  -6.4027  -6.3861  -6.3860  -6.3845  -6.3829
    -6.3766  -6.3733  -6.3733  -6.3725  -6.3708  -6.3649  -6.3649  -6.3636
    -6.3626  -6.3626  -6.3563  -6.3563  -6.3514  -6.3513  -6.3512  -6.3507
    -6.3470  -6.3450  -6.3450  -6.3385  -6.3362  -6.3336  -6.3336  -6.3335
    -6.3335  -6.3264  -6.3230  -6.3230  -6.3209  -6.3201  -6.3156  -6.3137
    -6.3132  -6.3132  -6.3111  -6.3111  -6.3065  -6.3065  -6.3058  -6.3058
    -6.3027  -6.2893  -6.2888  -6.2888  -6.2873  -6.2873  -6.2867  -6.2867
    -6.2839  -6.2767  -6.2766  -6.2764  -6.2714  -6.2714  -6.2710  -5.6227
    -5.6045  -5.6045  -5.5607  -5.5406  -5.5406  -5.5307  -5.5204  -5.5204
    -5.5100  -5.5100  -5.4974  -5.4974  -5.4970  -5.4544  -5.4511  -5.4511
    -5.4428  -5.4408  -5.4408  -5.3046  -5.3046  -5.2988  -5.2952  -5.2952
    -5.2911  -5.2911  -5.2846  -5.2778  -5.2757  -5.2757  -5.2746  -5.2730
    -5.2725  -5.2725  -5.2711  -5.2711  -5.2690  -5.2652  -5.2652  -5.2641
    -5.2601  -5.2591  -5.2590  -5.2572  -5.2572  -5.2562  -5.2553  -5.2553
    -5.2493  -5.2493  -5.2473  -5.2473  -5.2447  -5.2411  -5.2411  -5.2408
    -5.2396  -5.2382  -5.2382  -5.2381  -5.2362  -5.2362  -5.2321  -5.2321
    -5.2283  -5.2280  -5.2280  -5.2258  -5.2257  -5.2257  -5.2209  -5.2209
    -5.2188  -5.2188  -5.2179  -5.2167  -5.2152  -5.2152  -5.2146  -5.2128
    -5.2128  -5.2105  -5.2098  -5.2098  -5.2082  -5.2057  -5.2057  -5.2032
    -5.2028  -5.2028  -5.2017  -5.2014  -5.2014  -5.2014  -5.1979  -5.1979
    -5.1966  -5.1966  -5.1965  -5.1959  -5.1931  -5.1931  -5.1915  -5.1908
    -5.1908  -5.1892  -5.1892  -5.1875  -5.1875  -5.1862  -5.1862  -5.1859
    -5.1842  -5.1838  -5.1838  -5.1825  -5.1825  -5.1820  -5.1777  -5.1777
    -5.1761  -5.1761  -5.1753  -5.1746  -5.1741  -5.1735  -5.1727  -5.1727
    -5.1703  -5.1687  -5.1670  -5.1670  -5.1662  -5.1655  -5.1655  -5.1650
    -5.1640  -5.1640  -5.1603  -5.1600  -5.1584  -5.1584  -5.1579  -5.1577
    -5.1577  -5.1550  -5.1550  -5.1528  -5.1501  -5.1500  -5.1500  -5.1498
    -5.1474  -5.1462  -5.1461  -5.1460  -5.1460  -5.1445  -5.1445  -5.1441
    -5.1438  -5.1438  -5.1426  -5.1426  -5.1418  -5.1418  -5.1406  -5.1400
    -5.1368  -5.1368  -5.1366  -5.1362  -5.1362  -5.1348  -5.1347  -5.1340
    -5.1323  -5.1323  -5.1308  -5.1308  -5.1269  -5.1266  -5.1262  -5.1262
    -5.1250  -5.1250  -5.1227  -5.1227  -5.1211  -5.1211  -5.1182  -5.1179
    -5.1178  -5.1178  -5.1165  -5.1165  -5.1148  -5.1140  -5.1140  -5.1138
    -5.1122  -5.1104  -5.1104  -5.1093  -5.1093  -5.1067  -5.1056  -5.1055
    -5.1055  -5.1037  -5.1037  -5.1037  -5.1027  -5.1027  -5.1025  -5.1000
    -5.1000  -5.0986  -5.0981  -5.0970  -5.0970  -5.0962  -5.0962  -5.0945
    -5.0937  -5.0932  -5.0926  -5.0926  -5.0897  -5.0897  -5.0889  -5.0886
    -5.0886  -5.0872  -5.0842  -5.0840  -5.0840  -5.0826  -5.0822  -5.0811
    -5.0811  -5.0791  -5.0786  -5.0786  -5.0761  -5.0761  -5.0747  -5.0741
    -5.0741  -5.0728  -5.0728  -5.0725  -5.0718  -5.0679  -5.0679  -5.0677
    -5.0656  -5.0656  -5.0655  -5.0641  -5.0641  -5.0638  -5.0623  -5.0610
    -5.0610  -5.0599  -5.0599  -5.0590  -5.0582  -5.0582  -5.0560  -5.0550
    -5.0549  -5.0526  -5.0524  -5.0497  -5.0497  -5.0490  -5.0490  -5.0479
    -5.0479  -5.0478  -5.0474  -5.0446  -5.0446  -5.0439  -5.0439  -5.0434
    -5.0434  -5.0430  -5.0415  -5.0404  -5.0404  -5.0399  -5.0393  -5.0386
    -5.0381  -5.0381  -5.0358  -5.0358  -5.0344  -5.0344  -5.0330  -5.0322
    -5.0322  -5.0319  -5.0304  -5.0304  -5.0299  -5.0279  -5.0279  -5.0268
    -5.0256  -5.0256  -5.0237  -5.0236  -5.0230  -5.0230  -5.0212  -5.0207
    -5.0207  -5.0183  -5.0171  -5.0171  -5.0144  -5.0138  -5.0138  -5.0128
    -5.0128  -5.0126  -5.0089  -5.0089  -5.0085  -5.0085  -5.0065  -5.0051
    -5.0051  -5.0049  -5.0002  -5.0002  -4.9993  -4.9993  -4.9983  -4.9946
    -4.9946  -4.9936  -4.9911  -4.9888  -4.9888  -4.9884  -4.9848  -4.9848
    -4.9844  -4.9833  -4.9833  -4.9806  -4.9806  -4.9803  -4.9768  -4.9768
    -4.9735  -4.9721  -4.9721  -4.9715  -4.9709  -4.9709  -4.9694  -4.9685
    -4.9685  -4.9678  -4.9665  -4.9665  -4.9636  -4.9633  -4.9633  -4.9533
    -4.9524  -4.9522  -4.9522  -4.9488  -4.9488  -4.9484  -4.9478  -4.9478
    -4.9344  -4.9341  -4.9341  -4.8667  -4.8667  -4.8468  -4.8468  -4.8354
    -4.8139  -4.6240  -4.6129  -4.6128  -4.6072  -4.6072  -4.5877  -4.5877
    -4.5830  -4.5830  -4.5735  -4.5730  -4.5068  -4.2976  -4.2860  -3.8299
    -3.8299  -3.8272  -3.8189  -3.8125  -3.8088  -3.8088  -3.8009  -3.8009
    -3.7858  -3.7858  -3.7737  -3.7737  -3.7674  -3.7674  -3.7613  -3.7554
    -3.6960  -3.6455  -3.6454  -3.6318  -3.6318  -3.6138  -3.6096  -3.5930
    -3.5880  -3.5831  -3.5831  -3.5782  -3.5782  -3.5762  -3.5762  -3.5348
    -3.4972  -3.4972  -3.4960  -3.4910  -3.4898  -3.4898  -3.3627  -3.2392
    -3.2392  -3.2038  -3.2037  -3.1939  -3.1785  -3.1642  -3.1642  -3.1538
    -3.1329  -3.1286  -3.1286  -3.1232  -3.1232  -3.1204  -3.1204  -3.1156
    -3.1109  -3.1105  -3.1105  -3.1102  -3.1000  -3.1000  -3.0167  -3.0142
    -3.0142  -2.8483  -2.8366  -2.8348  -2.8348  -2.8152  -2.8152   2.0671
     2.2462   2.2761   2.2912   2.2913   2.3260   2.3260   2.3471   2.5626
     2.5626   2.5827   2.7578   2.7578   2.7914   2.7914   2.7948   2.8088
     2.8328   2.8329   2.8407   2.8475   2.8475   2.8625   2.8640   2.8769
     2.8891   2.8891   2.8911   2.8911   2.9020   2.9020   2.9500   2.9578
     2.9579   2.9925   3.1747   3.1883   3.1884   3.1898   3.2034   3.2034
     3.3168   3.3215   3.3215   3.3271   3.3311   3.3311   3.3379   3.3379
     3.3425   3.4016   3.4016   3.4236   3.5861   3.5861   3.5940   3.5961
     3.5962   3.6075   3.6124   3.6124   3.6128   3.6164   3.6164   3.6282
     3.6313   3.6518   3.6518   3.7361   3.7855   3.8217   3.8218   3.8282
     3.8849   3.8849   4.4480   4.7897   4.7897   4.8317   4.8876   4.8876
     4.8895   4.8895   4.8974   4.9006   4.9006   4.9138   4.9139   4.9200
     4.9273   4.9426   4.9426   4.9571   4.9577   4.9685   4.9685   4.9753
     4.9794   4.9794   4.9811   4.9923   4.9926   4.9926   5.0072   5.0073
     5.0640   5.0640   5.1157   5.1428   5.1428   5.1743   5.1743   5.1774
     5.1843   5.1850   5.1850   5.1851   5.2128   5.3133   5.3133   5.6950
     5.8744   5.8744   5.8831   5.9096   5.9097   5.9202   5.9318   5.9318
     5.9525   5.9525   5.9530   5.9530   5.9614   5.9650   5.9758   5.9759
     5.9784   6.0741   6.0741   6.0859   6.0878   6.0878   6.0928   6.0928
     6.1026   6.1041   6.1041   6.1095   6.1112   6.1188   6.1188   6.1246
     6.1372   6.1373   6.1588   6.2056   6.2823   6.2823   6.3552   6.3783
     6.4010   6.4010   6.4068   6.4068   6.4072   6.4161   6.4161   6.4323
     6.4410   6.4562   6.4562   6.5296   6.5359   6.5383   6.5383   6.5665
     6.6210   6.6210   6.7147   6.7147   6.7874   6.7874   6.8059   6.8065
     6.8113   6.8113   6.8131   6.8637   6.8799   6.8799   6.8869   6.9520
     6.9520   6.9581   6.9868   6.9868   7.0101   7.0102   7.0955   7.1874
     7.1875   7.1898   7.1946   7.2060   7.2060   7.2077   7.2115   7.2115
     7.2173   7.2469   7.2469   7.2712   7.2713   7.2743   7.2944   7.2944
     7.3196   7.3404   7.3448   7.3449   7.3554   7.4274   7.4274   7.4560
     7.4677   7.4721   7.4721   7.4782   7.4866   7.4866   7.4920   7.4920
     7.5438   7.5439   7.5498   7.5735   7.6045   7.6045   7.6312   7.6312
     7.6344   7.6344   7.6367   7.6482   7.6743   7.6744   7.7707   7.7707
     7.7945   7.8345   7.8345   7.8700   7.8846   7.8846   7.8882   7.8883
     7.8932   7.8947   7.9067   7.9068   7.9115   7.9655   8.0001   8.0002
     8.0134   8.0135   8.0758   8.0758   8.1072   8.1072   8.1185   8.2275
     8.2275   8.2299   8.2778   8.2885   8.2886   8.2933   8.4559   8.4559
     8.5101   8.5101   8.6944   8.7585   8.7585  10.4133  11.1709  11.4237
    11.4238  12.0566  12.1537  12.6582  12.7056  12.7056  12.7218  12.7473
    12.7977  12.7996  12.7997  12.8148  12.8148  12.8149  12.8203  12.8818
    12.8818  12.9499  13.0840  13.0840  13.1059  13.1059  13.1073  13.1074
    13.1166  13.1176  13.2204  13.2204  13.2852  13.4611  13.6720  13.6721
    13.6921  13.6922  13.7377  13.7992  13.8395  13.8395  13.8608  14.0019
    14.0020  14.0384  14.3222  14.3258  14.3258  14.3331  14.3331  14.3381
    14.3414  14.3414  14.3434  14.3434  14.3444  14.3476  14.3506  14.3523
    14.3523  14.3550  14.3550  14.3709  14.3709  14.3795  14.4088  14.4150
    14.4150  14.4237  14.4237  14.4283  14.4891  14.4891  14.5048  14.7156
    14.7156  14.7390  14.7390  14.7449  14.7596  14.8074  14.8131  14.8132
    14.8228  14.8263  14.8263  14.8308  14.8308  14.8312  14.8595  14.8595
    14.8649  14.8834  14.8921  14.8921  14.9172  14.9364  14.9364  15.1371
    15.1372  15.2220  15.8424  15.8716  15.8716  15.8747  15.8766  15.8793
    15.8793  15.8820  15.8820  15.9290  15.9290  15.9516  16.0278  16.0278
    16.0309  16.0343  16.0343  16.0532  16.0853  16.0905  16.0906  16.1029
    16.1030  16.1065  16.1091  16.1395  16.1395  16.1995  16.1995  16.2000
    16.2722  16.3318  16.3319  16.3458  16.3458  16.3692  16.3831  16.3892
    16.4014  16.4015  16.4148  16.4149  16.4181  16.4219  16.4219  16.4439
    16.4439  16.4677  16.4802  16.4809  16.4809  16.4990  16.5088  16.5088
    16.5220  16.5220  16.5232  16.5373  16.5373  16.5408  16.5481  16.5481
    16.5541  16.5553  16.5569  16.5569  16.5584  16.5609  16.5609  16.5615
    16.5643  16.5643

     occupation numbers 
     1.0000   1.0000   1.0000   1.0000   1.0000   1.0000   1.0000   1.0000
     1.0000   1.0000   1.0000   1.0000   1.0000   1.0000   1.0000   1.0000
     1.0000   1.0000   1.0000   1.0000   1.0000   1.0000   1.0000   1.0000
     1.0000   1.0000   1.0000   1.0000   1.0000   1.0000   1.0000   1.0000
     1.0000   1.0000   1.0000   1.0000   1.0000   1.0000   1.0000   1.0000
     1.0000   1.0000   1.0000   1.0000   1.0000   1.0000   1.0000   1.0000
     1.0000   1.0000   1.0000   1.0000   1.0000   1.0000   1.0000   1.0000
     1.0000   1.0000   1.0000   1.0000   1.0000   1.0000   1.0000   1.0000
     1.0000   1.0000   1.0000   1.0000   1.0000   1.0000   1.0000   1.0000
     1.0000   1.0000   1.0000   1.0000   1.0000   1.0000   1.0000   1.0000
     1.0000   1.0000   1.0000   1.0000   1.0000   1.0000   1.0000   1.0000
     1.0000   1.0000   1.0000   1.0000   1.0000   1.0000   1.0000   1.0000
     1.0000   1.0000   1.0000   1.0000   1.0000   1.0000   1.0000   1.0000
     1.0000   1.0000   1.0000   1.0000   1.0000   1.0000   1.0000   1.0000
     1.0000   1.0000   1.0000   1.0000   1.0000   1.0000   1.0000   1.0000
     1.0000   1.0000   1.0000   1.0000   1.0000   1.0000   1.0000   1.0000
     1.0000   1.0000   1.0000   1.0000   1.0000   1.0000   1.0000   1.0000
     1.0000   1.0000   1.0000   1.0000   1.0000   1.0000   1.0000   1.0000
     1.0000   1.0000   1.0000   1.0000   1.0000   1.0000   1.0000   1.0000
     1.0000   1.0000   1.0000   1.0000   1.0000   1.0000   1.0000   1.0000
     1.0000   1.0000   1.0000   1.0000   1.0000   1.0000   1.0000   1.0000
     1.0000   1.0000   1.0000   1.0000   1.0000   1.0000   1.0000   1.0000
     1.0000   1.0000   1.0000   1.0000   1.0000   1.0000   1.0000   1.0000
     1.0000   1.0000   1.0000   1.0000   1.0000   1.0000   1.0000   1.0000
     1.0000   1.0000   1.0000   1.0000   1.0000   1.0000   1.0000   1.0000
     1.0000   1.0000   1.0000   1.0000   1.0000   1.0000   1.0000   1.0000
     1.0000   1.0000   1.0000   1.0000   1.0000   1.0000   1.0000   1.0000
     1.0000   1.0000   1.0000   1.0000   1.0000   1.0000   1.0000   1.0000
     1.0000   1.0000   1.0000   1.0000   1.0000   1.0000   1.0000   1.0000
     1.0000   1.0000   1.0000   1.0000   1.0000   1.0000   1.0000   1.0000
     1.0000   1.0000   1.0000   1.0000   1.0000   1.0000   1.0000   1.0000
     1.0000   1.0000   1.0000   1.0000   1.0000   1.0000   1.0000   1.0000
     1.0000   1.0000   1.0000   1.0000   1.0000   1.0000   1.0000   1.0000
     1.0000   1.0000   1.0000   1.0000   1.0000   1.0000   1.0000   1.0000
     1.0000   1.0000   1.0000   1.0000   1.0000   1.0000   1.0000   1.0000
     1.0000   1.0000   1.0000   1.0000   1.0000   1.0000   1.0000   1.0000
     1.0000   1.0000   1.0000   1.0000   1.0000   1.0000   1.0000   1.0000
     1.0000   1.0000   1.0000   1.0000   1.0000   1.0000   1.0000   1.0000
     1.0000   1.0000   1.0000   1.0000   1.0000   1.0000   1.0000   1.0000
     1.0000   1.0000   1.0000   1.0000   1.0000   1.0000   1.0000   1.0000
     1.0000   1.0000   1.0000   1.0000   1.0000   1.0000   1.0000   1.0000
     1.0000   1.0000   1.0000   1.0000   1.0000   1.0000   1.0000   1.0000
     1.0000   1.0000   1.0000   1.0000   1.0000   1.0000   1.0000   1.0000
     1.0000   1.0000   1.0000   1.0000   1.0000   1.0000   1.0000   1.0000
     1.0000   1.0000   1.0000   1.0000   1.0000   1.0000   1.0000   1.0000
     1.0000   1.0000   1.0000   1.0000   1.0000   1.0000   1.0000   1.0000
     1.0000   1.0000   1.0000   1.0000   1.0000   1.0000   1.0000   1.0000
     1.0000   1.0000   1.0000   1.0000   1.0000   1.0000   1.0000   1.0000
     1.0000   1.0000   1.0000   1.0000   1.0000   1.0000   1.0000   1.0000
     1.0000   1.0000   1.0000   1.0000   1.0000   1.0000   1.0000   1.0000
     1.0000   1.0000   1.0000   1.0000   1.0000   1.0000   1.0000   1.0000
     1.0000   1.0000   1.0000   1.0000   1.0000   1.0000   1.0000   1.0000
     1.0000   1.0000   1.0000   1.0000   1.0000   1.0000   1.0000   1.0000
     1.0000   1.0000   1.0000   1.0000   1.0000   1.0000   1.0000   1.0000
     1.0000   1.0000   1.0000   1.0000   1.0000   1.0000   1.0000   1.0000
     1.0000   1.0000   1.0000   1.0000   1.0000   1.0000   1.0000   1.0000
     1.0000   1.0000   1.0000   1.0000   1.0000   1.0000   1.0000   1.0000
     1.0000   1.0000   1.0000   1.0000   1.0000   1.0000   1.0000   1.0000
     1.0000   1.0000   1.0000   1.0000   1.0000   1.0000   1.0000   1.0000
     1.0000   1.0000   1.0000   1.0000   1.0000   1.0000   1.0000   1.0000
     1.0000   1.0000   1.0000   1.0000   1.0000   1.0000   1.0000   1.0000
     1.0000   1.0000   1.0000   1.0000   1.0000   1.0000   1.0000   1.0000
     1.0000   1.0000   1.0000   1.0000   1.0000   1.0000   1.0000   1.0000
     1.0000   1.0000   1.0000   1.0000   1.0000   1.0000   1.0000   1.0000
     1.0000   1.0000   1.0000   1.0000   1.0000   1.0000   1.0000   1.0000
     1.0000   1.0000   1.0000   1.0000   1.0000   1.0000   1.0000   1.0000
     1.0000   1.0000   1.0000   1.0000   1.0000   1.0000   1.0000   1.0000
     1.0000   1.0000   1.0000   1.0000   1.0000   1.0000   1.0000   1.0000
     1.0000   1.0000   1.0000   1.0000   1.0000   1.0000   1.0000   1.0000
     1.0000   1.0000   1.0000   1.0000   1.0000   1.0000   1.0000   1.0000
     1.0000   1.0000   1.0000   1.0000   1.0000   1.0000   1.0000   1.0000
     1.0000   1.0000   1.0000   1.0000   1.0000   1.0000   1.0000   1.0000
     1.0000   1.0000   1.0000   1.0000   1.0000   1.0000   1.0000   1.0000
     1.0000   1.0000   1.0000   1.0000   1.0000   1.0000   1.0000   1.0000
     1.0000   1.0000   1.0000   1.0000   1.0000   1.0000   1.0000   1.0000
     1.0000   1.0000   1.0000   1.0000   1.0000   1.0000   1.0000   1.0000
     1.0000   1.0000   1.0000   1.0000   1.0000   1.0000   1.0000   1.0000
     1.0000   1.0000   1.0000   1.0000   1.0000   1.0000   1.0000   1.0000
     1.0000   1.0000   1.0000   1.0000   1.0000   1.0000   1.0000   1.0000
     1.0000   1.0000   1.0000   1.0000   1.0000   1.0000   1.0000   1.0000
     1.0000   1.0000   1.0000   1.0000   1.0000   1.0000   1.0000   1.0000
     1.0000   1.0000   1.0000   1.0000   1.0000   1.0000   1.0000   1.0000
     1.0000   1.0000   1.0000   1.0000   1.0000   1.0000   1.0000   1.0000
     1.0000   1.0000   1.0000   1.0000   1.0000   1.0000   1.0000   1.0000
     1.0000   1.0000   1.0000   1.0000   1.0000   1.0000   1.0000   1.0000
     1.0000   1.0000   1.0000   1.0000   1.0000   1.0000   1.0000   1.0000
     1.0000   1.0000   1.0000   1.0000   1.0000   1.0000   1.0000   1.0000
     1.0000   1.0000   1.0000   1.0000   1.0000   1.0000   1.0000   1.0000
     1.0000   1.0000   1.0000   1.0000   1.0000   1.0000   1.0000   1.0000
     1.0000   1.0000   1.0000   1.0000   1.0000   1.0000   1.0000   1.0000
     1.0000   1.0000   1.0000   1.0000   1.0000   1.0000   1.0000   1.0000
     1.0000   1.0000   1.0000   1.0000   1.0000   1.0000   1.0000   1.0000
     1.0000   1.0000   1.0000   1.0000   1.0000   1.0000   1.0000   1.0000
     1.0000   1.0000   1.0000   1.0000   1.0000   1.0000   1.0000   1.0000
     1.0000   1.0000   1.0000   1.0000   1.0000   1.0000   1.0000   1.0000
     1.0000   1.0000   1.0000   1.0000   1.0000   1.0000   1.0000   1.0000
     1.0000   1.0000   1.0000   1.0000   1.0000   1.0000   1.0000   1.0000
     1.0000   1.0000   1.0000   1.0000   1.0000   1.0000   1.0000   1.0000
     1.0000   1.0000   1.0000   1.0000   1.0000   1.0000   1.0000   1.0000
     1.0000   1.0000   1.0000   1.0000   1.0000   1.0000   1.0000   1.0000
     1.0000   1.0000   1.0000   1.0000   1.0000   1.0000   1.0000   1.0000
     1.0000   1.0000   1.0000   1.0000   1.0000   1.0000   1.0000   1.0000
     1.0000   1.0000   1.0000   1.0000   1.0000   1.0000   1.0000   1.0000
     1.0000   1.0000   1.0000   1.0000   1.0000   1.0000   1.0000   1.0000
     1.0000   1.0000   1.0000   1.0000   1.0000   1.0000   1.0000   1.0000
     1.0000   1.0000   1.0000   1.0000   1.0000   1.0000   1.0000   1.0000
     1.0000   1.0000   1.0000   1.0000   1.0000   1.0000   1.0000   1.0000
     1.0000   1.0000   1.0000   1.0000   1.0000   1.0000   0.0133   0.0000
     0.0000   0.0000   0.0000   0.0000   0.0000   0.0000   0.0000   0.0000
     0.0000   0.0000   0.0000   0.0000   0.0000   0.0000   0.0000   0.0000
     0.0000   0.0000   0.0000   0.0000   0.0000   0.0000   0.0000   0.0000
     0.0000   0.0000   0.0000   0.0000   0.0000   0.0000   0.0000   0.0000
     0.0000   0.0000   0.0000   0.0000   0.0000   0.0000   0.0000   0.0000
     0.0000   0.0000   0.0000   0.0000   0.0000   0.0000   0.0000   0.0000
     0.0000   0.0000   0.0000   0.0000   0.0000   0.0000   0.0000   0.0000
     0.0000   0.0000   0.0000   0.0000   0.0000   0.0000   0.0000   0.0000
     0.0000   0.0000   0.0000   0.0000   0.0000   0.0000   0.0000   0.0000
     0.0000   0.0000   0.0000   0.0000   0.0000   0.0000   0.0000   0.0000
     0.0000   0.0000   0.0000   0.0000   0.0000   0.0000   0.0000   0.0000
     0.0000   0.0000   0.0000   0.0000   0.0000   0.0000   0.0000   0.0000
     0.0000   0.0000   0.0000   0.0000   0.0000   0.0000   0.0000   0.0000
     0.0000   0.0000   0.0000   0.0000   0.0000   0.0000   0.0000   0.0000
     0.0000   0.0000   0.0000   0.0000   0.0000   0.0000   0.0000   0.0000
     0.0000   0.0000   0.0000   0.0000   0.0000   0.0000   0.0000   0.0000
     0.0000   0.0000   0.0000   0.0000   0.0000   0.0000   0.0000   0.0000
     0.0000   0.0000   0.0000   0.0000   0.0000   0.0000   0.0000   0.0000
     0.0000   0.0000   0.0000   0.0000   0.0000   0.0000   0.0000   0.0000
     0.0000   0.0000   0.0000   0.0000   0.0000   0.0000   0.0000   0.0000
     0.0000   0.0000   0.0000   0.0000   0.0000   0.0000   0.0000   0.0000
     0.0000   0.0000

          k = 0.0000 0.0000-0.4090 (154532 PWs)   bands (ev):

    -6.8612  -6.7945  -6.6483  -6.6483  -6.6160  -6.6053  -6.6052  -6.6022
    -6.5705  -6.5705  -6.5683  -6.5454  -6.5454  -6.5381  -6.5271  -6.5085
    -6.4929  -6.4929  -6.4871  -6.4871  -6.4836  -6.4807  -6.4701  -6.4701
    -6.4438  -6.4438  -6.4390  -6.4240  -6.4073  -6.4013  -6.4013  -6.3964
    -6.3964  -6.3901  -6.3894  -6.3894  -6.3862  -6.3836  -6.3807  -6.3807
    -6.3787  -6.3787  -6.3763  -6.3706  -6.3682  -6.3673  -6.3673  -6.3650
    -6.3650  -6.3647  -6.3592  -6.3592  -6.3590  -6.3511  -6.3511  -6.3499
    -6.3488  -6.3488  -6.3450  -6.3410  -6.3410  -6.3398  -6.3325  -6.3323
    -6.3290  -6.3290  -6.3241  -6.3223  -6.3223  -6.3195  -6.3158  -6.3127
    -6.3127  -6.3108  -6.3108  -6.3102  -6.3079  -6.3078  -6.3048  -6.3048
    -6.3032  -6.2891  -6.2882  -6.2882  -6.2875  -6.2875  -6.2854  -6.2854
    -6.2840  -6.2770  -6.2770  -6.2760  -6.2713  -6.2713  -6.2710  -5.6227
    -5.6045  -5.6045  -5.5607  -5.5406  -5.5406  -5.5308  -5.5204  -5.5204
    -5.5100  -5.5100  -5.4974  -5.4974  -5.4970  -5.4545  -5.4511  -5.4511
    -5.4428  -5.4408  -5.4408  -5.3045  -5.3045  -5.2949  -5.2949  -5.2914
    -5.2910  -5.2909  -5.2843  -5.2772  -5.2758  -5.2758  -5.2737  -5.2731
    -5.2718  -5.2718  -5.2711  -5.2711  -5.2686  -5.2646  -5.2646  -5.2638
    -5.2601  -5.2601  -5.2587  -5.2571  -5.2571  -5.2550  -5.2549  -5.2549
[...]
     Non-local corr. energy    =      52.24497063 Ry
     -----------------------------------------------

          total   stress  (Ry/bohr**3)                   (kbar)     P=        3.23
   0.00001647  -0.00000000   0.00000000            2.42       -0.00        0.00
   0.00000000   0.00001647   0.00000000            0.00        2.42        0.00
   0.00000000   0.00000000   0.00003295            0.00        0.00        4.85

     kinetic stress (kbar)  18339.31      0.00      0.00
                                0.00  18339.31      0.00
                                0.00      0.00  18335.32

     local   stress (kbar)   5365.78     -0.07      0.00
                               -0.07   5365.69     -0.00
                                0.00     -0.00   3742.09

     nonloc. stress (kbar)    102.83      0.00      0.00
                                0.00    102.83     -0.00
                                0.00      0.00    113.50

     hartree stress (kbar)  19620.40     -0.00      0.00
                               -0.00  19620.40     -0.00
                                0.00     -0.00  20360.71

     exc-cor stress (kbar)   5229.78      0.00     -0.00
                                0.00   5229.78      0.00
                               -0.00      0.00   5230.09

     corecor stress (kbar) -14103.96     -0.00     -0.00
                               -0.00 -14103.96      0.00
                               -0.00      0.00 -14103.46

     ewald   stress (kbar) -34713.62      0.09     -0.00
                                0.09 -34713.50      0.00
                               -0.00      0.00 -33834.44

     hubbard stress (kbar)      0.00      0.00      0.00
                                0.00      0.00      0.00
                                0.00      0.00      0.00

     DFT-D   stress (kbar)      0.00      0.00      0.00
                                0.00      0.00      0.00
                                0.00      0.00      0.00

     XDM     stress (kbar)      0.00      0.00      0.00
                                0.00      0.00      0.00
                                0.00      0.00      0.00

     dft-nl  stress (kbar)    161.89     -0.00     -0.00
                               -0.00    161.89     -0.00
                               -0.00     -0.00    161.04

     TS-vdW  stress (kbar)      0.00      0.00      0.00
                                0.00      0.00      0.00
                                0.00      0.00      0.00

     MDB     stress (kbar)      0.00      0.00      0.00
                                0.00      0.00      0.00
                                0.00      0.00      0.00

     3D-RISM stress (kbar)      0.00      0.00      0.00
                                0.00      0.00      0.00
                                0.00      0.00      0.00

     Energy error            =      6.4E-05 Ry
     Gradient error          =      9.1E-04 Ry/Bohr

     bfgs converged in   7 scf cycles and   6 bfgs steps
     (criteria: energy <  1.0E-04 Ry, force <  1.0E-03 Ry/Bohr)

     End of BFGS Geometry Optimization

     Final energy             =  -29950.7199960829 Ry

     File ./GaN.bfgs deleted, as requested
Begin final coordinates

ATOMIC_POSITIONS (angstrom)
Ga            1.6222756606        0.9366198184        2.6425875978
Ga            1.6222756606        0.9366198184        7.9424752014
Ga            1.6222756606        0.9366198184       13.2109170967
Ga            0.0010127638        3.7547959360        2.6365302288
Ga            0.0021598546        3.7518447146        7.9279211133
Ga           -0.0002320453        3.7473670895       13.2155974021
Ga           -1.6214012759        6.5568456742        2.6375258502
Ga           -1.6209694028        6.5570950162        7.9305095621
Ga           -1.6217902685        6.5566210892       13.2160339678
Ga           -3.2368405119        9.3629223170        2.6365302288
Ga           -3.2388227992        9.3653913375        7.9279211133
Ga           -3.2438964863        9.3655587039       13.2155974021
Ga            4.8735192191        0.9315866146        2.6365302288
Ga            4.8703898410        0.9320688155        7.9279211133
Ga            4.8677080539        0.9363790741       13.2155974021
Ga            3.2435385574        3.7547959360        2.6365302288
Ga            3.2423914666        3.7518447146        7.9279211133
Ga            3.2447833665        3.7473670895       13.2155974021
Ga            1.6222756606        6.5585335933        2.6384757469
Ga            1.6222756606        6.5595676389        7.9307083643
Ga            1.6222756606        6.5570894367       13.2159644667
Ga            0.0018989733        9.3651083432        2.6384757469
Ga            0.0027944830        9.3645913204        7.9307083643
Ga            0.0006482969        9.3658304216       13.2159644667
Ga            8.1113724947        0.9356135193        2.6375258502
Ga            8.1113724947        0.9351148352        7.9305095621
Ga            8.1113724947        0.9360626892       13.2160339678
Ga            6.4896819421        3.7468181454        2.6384050593
Ga            6.4896646373        3.7468081545        7.9323553484
Ga            6.4894084241        3.7466602297       13.2160375444
Ga            4.8659525971        6.5568456742        2.6375258502
Ga            4.8655207240        6.5570950162        7.9305095621
Ga            4.8663415897        6.5566210892       13.2160339678
Ga            3.2426523479        9.3651083432        2.6384757469
Ga            3.2417568382        9.3645913204        7.9307083643
Ga            3.2439030243        9.3658304216       13.2159644667
Ga           11.3492257704        0.9315866146        2.6365302288
Ga           11.3523551485        0.9320688155        7.9279211133
Ga           11.3550369356        0.9363790741       13.2155974021
Ga            9.7330630474        3.7468181454        2.6384050593
Ga            9.7330803522        3.7468081545        7.9323553484
Ga            9.7333365654        3.7466602297       13.2160375444
Ga            8.1113724947        6.5556685768        2.6384050593
Ga            8.1113724947        6.5556885586        7.9323553484
Ga            8.1113724947        6.5559844082       13.2160375444
Ga            6.4813918331        9.3629223170        2.6365302288
Ga            6.4833741204        9.3653913375        7.9279211133
Ga            6.4884478075        9.3655587039       13.2155974021
Ga            0.0165184517        1.8637043796        5.2756555609
Ga           -0.0012907568        1.8739865309       10.5744198455
Ga            0.0019344035        1.8721244837       15.8528143708
Ga           -1.6269913532        4.6819130324        5.2883677780
Ga           -1.6230414645        4.6832112029       10.5730199238
Ga           -1.6239803612        4.6835411500       15.8586851122
Ga           -3.2479392065        7.4894770708        5.2883677780
Ga           -3.2448400135        7.4922486894       10.5730199238
Ga           -3.2450237193        7.4912706075       15.8586851122
Ga           -4.8668245904       10.3219026396        5.2756555609
Ga           -4.8668245904       10.3013383369       10.5744198455
Ga           -4.8668245904       10.3050624312       15.8528143708
Ga            3.2280260358        1.8637043796        5.2756555609
Ga            3.2458352443        1.8739865309       10.5744198455
Ga            3.2426100840        1.8721244837       15.8528143708
Ga            1.6222722437        4.6881397487        5.2886728754
Ga            1.6222722437        4.6836486287       10.5731718933
Ga            1.6222722437        4.6854512887       15.8586237962
Ga            0.0009190923        7.4934969253        5.2855506506
Ga            0.0000375905        7.4929879900       10.5734727169
Ga            0.0002107439        7.4930879601       15.8592750303
Ga           -1.6179149135       10.3003085312        5.2886728754
Ga           -1.6218043374       10.3025540911       10.5731718933
Ga           -1.6202431881       10.3016527611       15.8586237962
Ga            6.4904212246        1.8779212956        5.2883677780
Ga            6.4895705289        1.8738515065       10.5730199238
Ga            6.4903257198        1.8744996413       15.8586851122
Ga            4.8715358407        4.6819130324        5.2883677780
Ga            4.8675859520        4.6832112029       10.5730199238
Ga            4.8685248487        4.6835411500       15.8586851122
Ga            3.2436253952        7.4934969253        5.2855506506
Ga            3.2445068970        7.4929879900       10.5734727169
Ga            3.2443337436        7.4930879601       15.8592750303
Ga            1.6222722437       10.3017629606        5.2855506506
Ga            1.6222722437       10.3027808312       10.5734727169
Ga            1.6222722437       10.3025808909       15.8592750303
Ga            9.7323169311        1.8779212956        5.2883677780
Ga            9.7331676268        1.8738515065       10.5730199238
Ga            9.7324124359        1.8744996413       15.8586851122
Ga            8.1113690779        4.6831037996        5.2856482387
Ga            8.1113690779        4.6831037996       10.5737275601
Ga            8.1113690779        4.6831037996       15.8589495199
Ga            6.4924836939        7.4894770708        5.2883677780
Ga            6.4893845009        7.4922486894       10.5730199238
Ga            6.4895682067        7.4912706075       15.8586851122
Ga            4.8624594010       10.3003085312        5.2886728754
Ga            4.8663488249       10.3025540911       10.5731718933
Ga            4.8647876756       10.3016527611       15.8586237962
N             1.6222756606        0.9366198184        9.9237376698
N             1.6222756606        0.9366198184       15.2076984603
N             0.0093770793        3.7382216473        4.6284790293
N             0.0001789942        3.7449445321        9.9171278030
N             0.0003169779        3.7452204996       15.2114329366
N            -1.6216828667        6.5566830977        4.6304442144
N            -1.6224052240        6.5562660444        9.9192949993
N            -1.6222104079        6.5563785216       15.2083222149
N            -3.2470121092        9.3784531710        4.6284790293
N            -3.2457889627        9.3671259532        9.9171278030
N            -3.2454809760        9.3671074669       15.2114329366
N             4.8549833063        0.9326300492        4.6284790293
N             4.8654045379        0.9372343822        9.9171278030
N             4.8655745409        0.9369769010       15.2114329366
N             3.2351742419        3.7382216473        4.6284790293
N             3.2443723270        3.7449445321        9.9171278030
N             3.2442343433        3.7452204996       15.2114329366
N             1.6222756606        6.5560163563        4.6303935627
N             1.6222756606        6.5561540548        9.9194769125
N             1.6222756606        6.5564008677       15.2077945691
N            -0.0002810180        9.3663669618        4.6303935627
N            -0.0001617676        9.3662981125        9.9194769125
N             0.0000519787        9.3661747060       15.2077945691
N             8.1113724947        0.9359386723        4.6304442144
N             8.1113724947        0.9367727787        9.9192949993
N             8.1113724947        0.9365478244       15.2083222149
N             6.4889901809        3.7464187569        4.6304134291
N             6.4892501627        3.7465688575        9.9201613802
N             6.4892415846        3.7465639049       15.2080738353
N             4.8662341879        6.5566830977        4.6304442144
N             4.8669565452        6.5562660444        9.9192949993
N             4.8667617291        6.5563785216       15.2083222149
N             3.2448323392        9.3663669618        4.6303935627
N             3.2447130888        9.3662981125        9.9194769125
N             3.2444993425        9.3661747060       15.2077945691
N            11.3677616832        0.9326300492        4.6284790293
N            11.3573404516        0.9372343822        9.9171278030
N            11.3571704486        0.9369769010       15.2114329366
N             9.7337548086        3.7464187569        4.6304134291
N             9.7334948268        3.7465688575        9.9201613802
N             9.7335034049        3.7465639049       15.2080738353
N             8.1113724947        6.5564673539        4.6304134291
N             8.1113724947        6.5561671527        9.9201613802
N             8.1113724947        6.5561770578       15.2080738353
N             6.4915634304        9.3784531710        4.6284790293
N             6.4903402839        9.3671259532        9.9171278030
N             6.4900322972        9.3671074669       15.2114329366
N             0.0044711978        1.8706598649        2.0051127689
N             0.0078885483        1.8686868566        7.2655526134
N            -0.0000141600        1.8732494874       12.5648670542
N            -1.6224261028        4.6823495296        1.9872518094
N            -1.6220528894        4.6822018048        7.2755812323
N            -1.6219323342        4.6829179908       12.5640366783
N            -3.2452785636        7.4932124449        1.9872518094
N            -3.2452198904        7.4936095197        7.2755812323
N            -3.2445393774        7.4933558305       12.5640366783
N            -4.8668245904       10.3079916689        2.0051127689
N            -4.8668245904       10.3119376855        7.2655526134
N            -4.8668245904       10.3028124239       12.5648670542
N             3.2400732897        1.8706598649        2.0051127689
N             3.2366559392        1.8686868566        7.2655526134
N             3.2445586475        1.8732494874       12.5648670542
N             1.6222722437        4.6847837326        1.9854573116
N             1.6222722437        4.6860721182        7.2752732898
N             1.6222722437        4.6827096181       12.5644037776
N             0.0000360144        7.4929870800        1.9867613869
N            -0.0000032045        7.4929644369        7.2752741351
N            -0.0000335545        7.4929469144       12.5638621675
N            -1.6208213086       10.3019865392        1.9854573116
N            -1.6197055340       10.3013423464        7.2752732898
N            -1.6226175445       10.3030235965       12.5644037776
N             6.4885166171        1.8737494243        1.9872518094
N             6.4882020769        1.8735000744        7.2755812323
N             6.4887620346        1.8730375774       12.5640366783
N             4.8669705903        4.6823495296        1.9872518094
N             4.8665973769        4.6822018048        7.2755812323
N             4.8664768217        4.6829179908       12.5640366783
N             3.2445084731        7.4929870800        1.9867613869
N             3.2445476920        7.4929644369        7.2752741351
N             3.2445780420        7.4929469144       12.5638621675
N             1.6222722437       10.3027826511        1.9867613869
N             1.6222722437       10.3028279372        7.2752741351
N             1.6222722437       10.3028629823       12.5638621675
N             9.7342215386        1.8737494243        1.9872518094
N             9.7345360788        1.8735000744        7.2755812323
N             9.7339761211        1.8730375774       12.5640366783
N             8.1113690779        4.6831037996        1.9874020205
N             8.1113690779        4.6831037996        7.2750783505
N             8.1113690779        4.6831037996       12.5639260155
N             6.4898230510        7.4932124449        1.9872518094
N             6.4897643778        7.4936095197        7.2755812323
N             6.4890838648        7.4933558305       12.5640366783
N             4.8653657961       10.3019865392        1.9854573116
N             4.8642500215       10.3013423464        7.2752732898
N             4.8671620320       10.3030235965       12.5644037776
End final coordinates



     Writing all to output data dir ./GaN.save/
 
     init_run     :     21.38s CPU     33.95s WALL (       1 calls)
     electrons    :  27638.86s CPU  27977.25s WALL (       7 calls)
     update_pot   :      8.68s CPU      8.78s WALL (       6 calls)
     forces       :     73.55s CPU     75.17s WALL (       7 calls)
     stress       :   1202.91s CPU   1215.64s WALL (       7 calls)

     Called by init_run:
     wfcinit      :     18.58s CPU     30.98s WALL (       1 calls)
     wfcinit:atom :      0.05s CPU      0.09s WALL (       1 calls)
     wfcinit:wfcr :     18.29s CPU     30.52s WALL (       1 calls)
     potinit      :      1.20s CPU      1.28s WALL (       1 calls)
     hinit0       :      0.38s CPU      0.40s WALL (       1 calls)

     Called by electrons:
     c_bands      :  27168.98s CPU  27497.51s WALL (      99 calls)
     sum_band     :    354.39s CPU    359.76s WALL (      99 calls)
     v_of_rho     :     56.20s CPU     57.31s WALL (     104 calls)
     v_h          :      0.57s CPU      0.58s WALL (     104 calls)
     v_xc         :     62.96s CPU     64.14s WALL (     118 calls)
     newd         :     12.59s CPU     12.75s WALL (     104 calls)
     PAW_pot      :     36.60s CPU     36.93s WALL (     110 calls)
     mix_rho      :      3.31s CPU      3.44s WALL (      99 calls)
     vdW_kernel   :      0.17s CPU      0.17s WALL (       1 calls)

     Called by c_bands:
     init_us_2    :     12.72s CPU     13.03s WALL (     205 calls)
     init_us_2:cp :     12.72s CPU     13.03s WALL (     205 calls)
     cegterg      :  24219.19s CPU  24470.01s WALL (     101 calls)

     Called by sum_band:
     sum_band:wei :      1.75s CPU      1.77s WALL (      99 calls)
     sum_band:loo :    326.71s CPU    330.29s WALL (      99 calls)
     sum_band:buf :      0.00s CPU      0.00s WALL (      99 calls)
     sum_band:ini :     10.65s CPU     10.83s WALL (      99 calls)
     sum_band:cal :    207.71s CPU    209.72s WALL (     105 calls)
     sum_band:bec :      2.56s CPU      2.60s WALL (     105 calls)
     addusdens    :     11.41s CPU     12.09s WALL (      99 calls)
     addusd:skk   :      1.43s CPU      1.62s WALL (     198 calls)
     addusd:dgemm :      4.78s CPU      5.21s WALL (     198 calls)
     addusd:qvan2 :      1.58s CPU      1.61s WALL (     198 calls)

     Called by *egterg:
     cdiaghg      :  19989.89s CPU  20126.39s WALL (    1479 calls)
     cegterg:over :    848.38s CPU    874.78s WALL (    1386 calls)
     cegterg:upda :    521.87s CPU    531.40s WALL (    1386 calls)
     cegterg:last :    247.07s CPU    248.90s WALL (     106 calls)
     h_psi        :   1812.94s CPU   1844.77s WALL (    1488 calls)
     s_psi        :    562.29s CPU    573.01s WALL (    1488 calls)
     g_psi        :      1.94s CPU      1.96s WALL (    1386 calls)

     Called by h_psi:
     h_psi:calbec :    607.92s CPU    612.56s WALL (    1488 calls)
     vloc_psi     :    631.83s CPU    638.92s WALL (    1488 calls)
     add_vuspsi   :    563.44s CPU    575.82s WALL (    1488 calls)

     General routines
     calbec       :    887.24s CPU    894.62s WALL (    1628 calls)
     fft          :     29.13s CPU     29.51s WALL (    7729 calls)
     ffts         :      1.07s CPU      1.08s WALL (     203 calls)
     fftw         :    695.56s CPU    703.36s WALL (  686462 calls)
     interpolate  :      0.78s CPU      0.79s WALL (     104 calls)
 
     Parallel routines

     PAW routines
     PAW_pot      :     36.60s CPU     36.93s WALL (     110 calls)
     PAW_symme    :      0.61s CPU      0.62s WALL (     209 calls)
 
     PWSCF        :      8h 2m CPU      8h 9m WALL

 
   This run was terminated on:   6:18: 6   7Mar2024            

=------------------------------------------------------------------------------=
   JOB DONE.
=------------------------------------------------------------------------------=
