
     Program PWSCF v.7.1 starts on 23Mar2024 at 13:29:34 

     This program is part of the open-source Quantum ESPRESSO suite
     for quantum simulation of materials; please cite
         "P. Giannozzi et al., J. Phys.:Condens. Matter 21 395502 (2009);
         "P. Giannozzi et al., J. Phys.:Condens. Matter 29 465901 (2017);
         "P. Giannozzi et al., J. Chem. Phys. 152 154105 (2020);
          URL http://www.quantum-espresso.org", 
     in publications or presentations arising from this work. More details at
     http://www.quantum-espresso.org/quote

     Parallel version (MPI & OpenMP), running on      60 processor cores
     Number of MPI processes:                60
     Threads/MPI process:                     1

     MPI processes distributed on     2 nodes
     1974478 MiB available memory on the printing compute node when the environment starts
 
     Reading input from espresso.pwi
Warning: card &CELL ignored
Warning: card    CELL_DYNAMICS    = 'BFGS' ignored
Warning: card / ignored

     Current dimensions of program PWSCF are:
     Max number of different atomic species (ntypx) = 10
     Max number of k-points (npk) =  40000
     Max angular momentum in pseudopotentials (lmaxx) =  4
     file Ga.pbe-dn-kjpaw_psl.1.0.0.UPF: wavefunction(s)  4S renormalized
     file N.pbe-n-kjpaw_psl.1.0.0.UPF: wavefunction(s)  2S renormalized

     **************************************************************************
     Initializing libbeef V0.1.2 with the BEEF-vdW functional.
     Citation: Wellendorff et al., PRB 85, 235149 (2012).
     **************************************************************************


     IMPORTANT: XC functional enforced from input :
     Exchange-correlation= BEEF-VDW
                           (   1   4  43  14   2   0   0)
     Any further DFT definition will be discarded
     Please, verify this is what you really want

 
     K-points division:     npool     =       2
     R & G space division:  proc/nbgrp/npool/nimage =      30
     Subspace diagonalization in iterative solution of the eigenvalue problem:
     a serial algorithm will be used

 
     Parallelization info
     --------------------
     sticks:   dense  smooth     PW     G-vecs:    dense   smooth      PW
     Min         271     216     57                21575    15440    2109
     Max         272     217     58                21584    15447    2114
     Sum        8137    6505   1735               647327   463355   63361
 
     Using Slab Decomposition
 


     bravais-lattice index     =            4
     lattice parameter (alat)  =      18.3939  a.u.
     unit-cell volume          =    5856.2271 (a.u.)^3
     number of atoms/cell      =           71
     number of atomic types    =            2
     number of electrons       =       641.00
     number of Kohn-Sham states=          385
     kinetic-energy cutoff     =      70.0000  Ry
     charge density cutoff     =     350.0000  Ry
     scf convergence threshold =      1.0E-07
     mixing beta               =       0.7000
     number of iterations used =            8  plain     mixing
     energy convergence thresh.=      1.0E-04
     force convergence thresh. =      1.0E-03
     Exchange-correlation= BEEF-VDW
                           (   1   4  43  14   2   0   0)
     nstep                     =           50


     celldm(1)=  18.393924  celldm(2)=   0.000000  celldm(3)=   1.086586
     celldm(4)=   0.000000  celldm(5)=   0.000000  celldm(6)=   0.000000

     crystal axes: (cart. coord. in units of alat)
               a(1) = (   1.000000   0.000000   0.000000 )  
               a(2) = (  -0.500000   0.866025   0.000000 )  
               a(3) = (   0.000000   0.000000   1.086586 )  

     reciprocal axes: (cart. coord. in units 2 pi/alat)
               b(1) = (  1.000000  0.577350 -0.000000 )  
               b(2) = (  0.000000  1.154701  0.000000 )  
               b(3) = (  0.000000 -0.000000  0.920314 )  


     PseudoPot. # 1 for Ga read from file:
     //group///packages/espresso/pseudo/psl_1.0.0/pslibrary.1.0.0/pbe/PSEUDOPOTENTIALS/Ga.pbe-dn-kjpaw_psl.1.0.0.UPF
     MD5 check sum: cd2a01e492f15b435d17032472d8505c
     Pseudo is Projector augmented-wave + core cor, Zval = 13.0
     Generated using 'atomic' code by A. Dal Corso  v.7.1
     Shape of augmentation charge: PSQ
     Using radial grid of 1205 points,  6 beta functions with: 
                l(1) =   0
                l(2) =   0
                l(3) =   1
                l(4) =   1
                l(5) =   2
                l(6) =   2
     Q(r) pseudized with 0 coefficients 


     PseudoPot. # 2 for N  read from file:
     //group///packages/espresso/pseudo/psl_1.0.0/pslibrary.1.0.0/pbe/PSEUDOPOTENTIALS/N.pbe-n-kjpaw_psl.1.0.0.UPF
     MD5 check sum: f77f775694dac7e2c3fe1c82443d1a16
     Pseudo is Projector augmented-wave + core cor, Zval =  5.0
     Generated using 'atomic' code by A. Dal Corso  v.7.1
     Shape of augmentation charge: PSQ
     Using radial grid of 1085 points,  4 beta functions with: 
                l(1) =   0
                l(2) =   0
                l(3) =   1
                l(4) =   1
     Q(r) pseudized with 0 coefficients 


     atomic species   valence    mass     pseudopotential
        Ga            13.00    69.72300     Ga( 1.00)
        N              5.00    14.00700     N ( 1.00)

      6 Sym. Ops. (no inversion) found ( 4 have fractional translation)


                                    s                        frac. trans.

      isym =  1     identity                                     

 cryst.   s( 1) = (     1          0          0      )
                  (     0          1          0      )
                  (     0          0          1      )

 cart.    s( 1) = (  1.0000000  0.0000000  0.0000000 )
                  (  0.0000000  1.0000000  0.0000000 )
                  (  0.0000000  0.0000000  1.0000000 )


      isym =  2     120 deg rotation - cryst. axis [0,0,1]       

 cryst.   s( 2) = (     0          1          0      )    f =( -0.3333334 )
                  (    -1         -1          0      )       (  0.0000003 )
                  (     0          0          1      )       (  0.0000000 )

 cart.    s( 2) = ( -0.5000000 -0.8660254  0.0000000 )    f =( -0.3333335 )
                  (  0.8660254 -0.5000000  0.0000000 )       (  0.0000002 )
                  (  0.0000000  0.0000000  1.0000000 )       (  0.0000000 )


      isym =  3     120 deg rotation - cryst. axis [0,0,-1]      

 cryst.   s( 3) = (    -1         -1          0      )    f =( -0.3333336 )
                  (     1          0          0      )       ( -0.3333334 )
                  (     0          0          1      )       (  0.0000000 )

 cart.    s( 3) = ( -0.5000000  0.8660254  0.0000000 )    f =( -0.1666669 )
                  ( -0.8660254 -0.5000000  0.0000000 )       ( -0.2886752 )
                  (  0.0000000  0.0000000  1.0000000 )       (  0.0000000 )


      isym =  4     inv. 180 deg rotation - cart. axis [1,0,0]   

 cryst.   s( 4) = (    -1          0          0      )    f =( -0.3333336 )
                  (     1          1          0      )       (  0.0000000 )
                  (     0          0          1      )       (  0.0000000 )

 cart.    s( 4) = ( -1.0000000  0.0000000  0.0000000 )    f =( -0.3333336 )
                  (  0.0000000  1.0000000  0.0000000 )       (  0.0000000 )
                  (  0.0000000  0.0000000  1.0000000 )       (  0.0000000 )


      isym =  5     inv. 180 deg rotation - cryst. axis [0,1,0]  

 cryst.   s( 5) = (     1          1          0      )
                  (     0         -1          0      )
                  (     0          0          1      )

 cart.    s( 5) = (  0.5000000  0.8660254  0.0000000 )
                  (  0.8660254 -0.5000000  0.0000000 )
                  (  0.0000000  0.0000000  1.0000000 )


      isym =  6     inv. 180 deg rotation - cryst. axis [1,1,0]  

 cryst.   s( 6) = (     0         -1          0      )    f =( -0.3333334 )
                  (    -1          0          0      )       ( -0.3333334 )
                  (     0          0          1      )       (  0.0000000 )

 cart.    s( 6) = (  0.5000000 -0.8660254  0.0000000 )    f =( -0.1666667 )
                  ( -0.8660254 -0.5000000  0.0000000 )       ( -0.2886752 )
                  (  0.0000000  0.0000000  1.0000000 )       (  0.0000000 )


     point group C_3v (3m)  
     there are  3 classes
     the character table:

       E     2C3   3s_v 
A_1    1.00  1.00  1.00
A_2    1.00  1.00 -1.00
E      2.00 -1.00  0.00

     the symmetry operations in each class and the name of the first element:

     E        1
          identity                                               
     2C3      2    3
          120 deg rotation - cryst. axis [0,0,1]                 
     3s_v     4    5    6
          inv. 180 deg rotation - cart. axis [1,0,0]             

   Cartesian axes

     site n.     atom                  positions (alat units)
         1           Ga  tau(   1) = (   0.1666668   0.0962250   0.2711914  )
         2           Ga  tau(   2) = (   0.1666668   0.0962250   0.8144844  )
         3           Ga  tau(   3) = (   0.0000001   0.3849001   0.2711914  )
         4           Ga  tau(   4) = (   0.0000001   0.3849001   0.8144844  )
         5           Ga  tau(   5) = (  -0.1666665   0.6735752   0.2711914  )
         6           Ga  tau(   6) = (  -0.1666665   0.6735752   0.8144844  )
         7           Ga  tau(   7) = (   0.5000001   0.0962250   0.2711914  )
         8           Ga  tau(   8) = (   0.5000001   0.0962250   0.8144844  )
         9           Ga  tau(   9) = (   0.3333335   0.3849001   0.2711914  )
        10           Ga  tau(  10) = (   0.3333335   0.3849001   0.8144844  )
        11           Ga  tau(  11) = (   0.1666668   0.6735752   0.2711914  )
        12           Ga  tau(  12) = (   0.1666668   0.6735752   0.8144844  )
        13           Ga  tau(  13) = (   0.8333335   0.0962250   0.2711914  )
        14           Ga  tau(  14) = (   0.8333335   0.0962250   0.8144844  )
        15           Ga  tau(  15) = (   0.6666668   0.3849001   0.2711914  )
        16           Ga  tau(  16) = (   0.6666668   0.3849001   0.8144844  )
        17           Ga  tau(  17) = (   0.5000001   0.6735752   0.2711914  )
        18           Ga  tau(  18) = (   0.5000001   0.6735752   0.8144844  )
        19           Ga  tau(  19) = (  -0.0000002   0.1924502   0.5428379  )
        20           Ga  tau(  20) = (  -0.0000002   0.1924502   1.0861309  )
        21           Ga  tau(  21) = (  -0.1666669   0.4811254   0.5428379  )
        22           Ga  tau(  22) = (  -0.1666669   0.4811254   1.0861309  )
        23           Ga  tau(  23) = (  -0.3333335   0.7698005   0.5428379  )
        24           Ga  tau(  24) = (  -0.3333335   0.7698005   1.0861309  )
        25           Ga  tau(  25) = (   0.3333331   0.1924502   0.5428379  )
        26           Ga  tau(  26) = (   0.3333331   0.1924502   1.0861309  )
        27           Ga  tau(  27) = (   0.1666665   0.4811254   0.5428379  )
        28           Ga  tau(  28) = (   0.1666665   0.4811254   1.0861309  )
        29           Ga  tau(  29) = (  -0.0000002   0.7698005   0.5428379  )
        30           Ga  tau(  30) = (  -0.0000002   0.7698005   1.0861309  )
        31           Ga  tau(  31) = (   0.6666665   0.1924502   0.5428379  )
        32           Ga  tau(  32) = (   0.6666665   0.1924502   1.0861309  )
        33           Ga  tau(  33) = (   0.4999998   0.4811254   0.5428379  )
        34           Ga  tau(  34) = (   0.4999998   0.4811254   1.0861309  )
        35           Ga  tau(  35) = (   0.3333331   0.7698005   0.5428379  )
        36           Ga  tau(  36) = (   0.3333331   0.7698005   1.0861309  )
        37           N   tau(  37) = (   0.1666668   0.0962250   1.0191295  )
        38           N   tau(  38) = (   0.0000001   0.3849001   0.4758365  )
        39           N   tau(  39) = (   0.0000001   0.3849001   1.0191295  )
        40           N   tau(  40) = (  -0.1666665   0.6735752   0.4758365  )
        41           N   tau(  41) = (  -0.1666665   0.6735752   1.0191295  )
        42           N   tau(  42) = (   0.5000001   0.0962250   0.4758365  )
        43           N   tau(  43) = (   0.5000001   0.0962250   1.0191295  )
        44           N   tau(  44) = (   0.3333335   0.3849001   0.4758365  )
        45           N   tau(  45) = (   0.3333335   0.3849001   1.0191295  )
        46           N   tau(  46) = (   0.1666668   0.6735752   0.4758365  )
        47           N   tau(  47) = (   0.1666668   0.6735752   1.0191295  )
        48           N   tau(  48) = (   0.8333335   0.0962250   0.4758365  )
        49           N   tau(  49) = (   0.8333335   0.0962250   1.0191295  )
        50           N   tau(  50) = (   0.6666668   0.3849001   0.4758365  )
        51           N   tau(  51) = (   0.6666668   0.3849001   1.0191295  )
        52           N   tau(  52) = (   0.5000001   0.6735752   0.4758365  )
        53           N   tau(  53) = (   0.5000001   0.6735752   1.0191295  )
        54           N   tau(  54) = (  -0.0000002   0.1924502   0.2041900  )
        55           N   tau(  55) = (  -0.0000002   0.1924502   0.7474830  )
        56           N   tau(  56) = (  -0.1666669   0.4811254   0.2041900  )
        57           N   tau(  57) = (  -0.1666669   0.4811254   0.7474830  )
        58           N   tau(  58) = (  -0.3333335   0.7698005   0.2041900  )
        59           N   tau(  59) = (  -0.3333335   0.7698005   0.7474830  )
        60           N   tau(  60) = (   0.3333331   0.1924502   0.2041900  )
        61           N   tau(  61) = (   0.3333331   0.1924502   0.7474830  )
        62           N   tau(  62) = (   0.1666665   0.4811254   0.2041900  )
        63           N   tau(  63) = (   0.1666665   0.4811254   0.7474830  )
        64           N   tau(  64) = (  -0.0000002   0.7698005   0.2041900  )
        65           N   tau(  65) = (  -0.0000002   0.7698005   0.7474830  )
        66           N   tau(  66) = (   0.6666665   0.1924502   0.2041900  )
        67           N   tau(  67) = (   0.6666665   0.1924502   0.7474830  )
        68           N   tau(  68) = (   0.4999998   0.4811254   0.2041900  )
        69           N   tau(  69) = (   0.4999998   0.4811254   0.7474830  )
        70           N   tau(  70) = (   0.3333331   0.7698005   0.2041900  )
        71           N   tau(  71) = (   0.3333331   0.7698005   0.7474830  )

   Crystallographic axes

     site n.     atom                  positions (cryst. coord.)
         1           Ga  tau(   1) = (  0.2222223  0.1111110  0.2495811  )
         2           Ga  tau(   2) = (  0.2222223  0.1111110  0.7495811  )
         3           Ga  tau(   3) = (  0.2222223  0.4444444  0.2495811  )
         4           Ga  tau(   4) = (  0.2222223  0.4444444  0.7495811  )
         5           Ga  tau(   5) = (  0.2222223  0.7777777  0.2495811  )
         6           Ga  tau(   6) = (  0.2222223  0.7777777  0.7495811  )
         7           Ga  tau(   7) = (  0.5555557  0.1111110  0.2495811  )
         8           Ga  tau(   8) = (  0.5555557  0.1111110  0.7495811  )
         9           Ga  tau(   9) = (  0.5555557  0.4444444  0.2495811  )
        10           Ga  tau(  10) = (  0.5555557  0.4444444  0.7495811  )
        11           Ga  tau(  11) = (  0.5555557  0.7777777  0.2495811  )
        12           Ga  tau(  12) = (  0.5555557  0.7777777  0.7495811  )
        13           Ga  tau(  13) = (  0.8888890  0.1111110  0.2495811  )
        14           Ga  tau(  14) = (  0.8888890  0.1111110  0.7495811  )
        15           Ga  tau(  15) = (  0.8888890  0.4444444  0.2495811  )
        16           Ga  tau(  16) = (  0.8888890  0.4444444  0.7495811  )
        17           Ga  tau(  17) = (  0.8888890  0.7777777  0.2495811  )
        18           Ga  tau(  18) = (  0.8888890  0.7777777  0.7495811  )
        19           Ga  tau(  19) = (  0.1111110  0.2222224  0.4995811  )
        20           Ga  tau(  20) = (  0.1111110  0.2222224  0.9995811  )
        21           Ga  tau(  21) = (  0.1111110  0.5555557  0.4995811  )
        22           Ga  tau(  22) = (  0.1111110  0.5555557  0.9995811  )
        23           Ga  tau(  23) = (  0.1111110  0.8888891  0.4995811  )
        24           Ga  tau(  24) = (  0.1111110  0.8888891  0.9995811  )
        25           Ga  tau(  25) = (  0.4444443  0.2222224  0.4995811  )
        26           Ga  tau(  26) = (  0.4444443  0.2222224  0.9995811  )
        27           Ga  tau(  27) = (  0.4444443  0.5555557  0.4995811  )
        28           Ga  tau(  28) = (  0.4444443  0.5555557  0.9995811  )
        29           Ga  tau(  29) = (  0.4444443  0.8888891  0.4995811  )
        30           Ga  tau(  30) = (  0.4444443  0.8888891  0.9995811  )
        31           Ga  tau(  31) = (  0.7777777  0.2222224  0.4995811  )
        32           Ga  tau(  32) = (  0.7777777  0.2222224  0.9995811  )
        33           Ga  tau(  33) = (  0.7777777  0.5555557  0.4995811  )
        34           Ga  tau(  34) = (  0.7777777  0.5555557  0.9995811  )
        35           Ga  tau(  35) = (  0.7777777  0.8888891  0.4995811  )
        36           Ga  tau(  36) = (  0.7777777  0.8888891  0.9995811  )
        37           N   tau(  37) = (  0.2222223  0.1111110  0.9379189  )
        38           N   tau(  38) = (  0.2222223  0.4444444  0.4379189  )
        39           N   tau(  39) = (  0.2222223  0.4444444  0.9379189  )
        40           N   tau(  40) = (  0.2222223  0.7777777  0.4379189  )
        41           N   tau(  41) = (  0.2222223  0.7777777  0.9379189  )
        42           N   tau(  42) = (  0.5555557  0.1111110  0.4379189  )
        43           N   tau(  43) = (  0.5555557  0.1111110  0.9379189  )
        44           N   tau(  44) = (  0.5555557  0.4444444  0.4379189  )
        45           N   tau(  45) = (  0.5555557  0.4444444  0.9379189  )
        46           N   tau(  46) = (  0.5555557  0.7777777  0.4379189  )
        47           N   tau(  47) = (  0.5555557  0.7777777  0.9379189  )
        48           N   tau(  48) = (  0.8888890  0.1111110  0.4379189  )
        49           N   tau(  49) = (  0.8888890  0.1111110  0.9379189  )
        50           N   tau(  50) = (  0.8888890  0.4444444  0.4379189  )
        51           N   tau(  51) = (  0.8888890  0.4444444  0.9379189  )
        52           N   tau(  52) = (  0.8888890  0.7777777  0.4379189  )
        53           N   tau(  53) = (  0.8888890  0.7777777  0.9379189  )
        54           N   tau(  54) = (  0.1111110  0.2222224  0.1879189  )
        55           N   tau(  55) = (  0.1111110  0.2222224  0.6879189  )
        56           N   tau(  56) = (  0.1111110  0.5555557  0.1879189  )
        57           N   tau(  57) = (  0.1111110  0.5555557  0.6879189  )
        58           N   tau(  58) = (  0.1111110  0.8888891  0.1879189  )
        59           N   tau(  59) = (  0.1111110  0.8888891  0.6879189  )
        60           N   tau(  60) = (  0.4444443  0.2222224  0.1879189  )
        61           N   tau(  61) = (  0.4444443  0.2222224  0.6879189  )
        62           N   tau(  62) = (  0.4444443  0.5555557  0.1879189  )
        63           N   tau(  63) = (  0.4444443  0.5555557  0.6879189  )
        64           N   tau(  64) = (  0.4444443  0.8888891  0.1879189  )
        65           N   tau(  65) = (  0.4444443  0.8888891  0.6879189  )
        66           N   tau(  66) = (  0.7777777  0.2222224  0.1879189  )
        67           N   tau(  67) = (  0.7777777  0.2222224  0.6879189  )
        68           N   tau(  68) = (  0.7777777  0.5555557  0.1879189  )
        69           N   tau(  69) = (  0.7777777  0.5555557  0.6879189  )
        70           N   tau(  70) = (  0.7777777  0.8888891  0.1879189  )
        71           N   tau(  71) = (  0.7777777  0.8888891  0.6879189  )

     number of k points=     4  Gaussian smearing, width (Ry)=  0.0100
                       cart. coord. in units 2pi/alat
        k(    1) = (   0.0000000   0.0000000   0.0000000), wk =   0.2500000
        k(    2) = (   0.0000000   0.0000000  -0.4601568), wk =   0.2500000
        k(    3) = (   0.0000000  -0.5773503   0.0000000), wk =   0.7500000
        k(    4) = (   0.0000000  -0.5773503  -0.4601568), wk =   0.7500000

                       cryst. coord.
        k(    1) = (   0.0000000   0.0000000   0.0000000), wk =   0.2500000
        k(    2) = (   0.0000000   0.0000000  -0.5000000), wk =   0.2500000
        k(    3) = (   0.0000000  -0.5000000   0.0000000), wk =   0.7500000
        k(    4) = (   0.0000000  -0.5000000  -0.5000000), wk =   0.7500000

     Dense  grid:   647327 G-vectors     FFT dimensions: ( 120, 120, 120)

     Smooth grid:   463355 G-vectors     FFT dimensions: ( 108, 108, 108)

     Dynamical RAM for                 wfc:      11.34 MB

     Dynamical RAM for     wfc (w. buffer):      34.01 MB

     Dynamical RAM for           str. fact:       0.66 MB

     Dynamical RAM for           local pot:       0.00 MB

     Dynamical RAM for          nlocal pot:      27.33 MB

     Dynamical RAM for                qrad:       3.00 MB

     Dynamical RAM for          rho,v,vnew:       2.31 MB

     Dynamical RAM for               rhoin:       0.77 MB

     Dynamical RAM for            rho*nmix:       5.27 MB

     Dynamical RAM for           G-vectors:       1.35 MB

     Dynamical RAM for          h,s,v(r/c):     108.56 MB

     Dynamical RAM for          <psi|beta>:       5.45 MB

     Dynamical RAM for                 psi:      45.35 MB

     Dynamical RAM for                hpsi:      45.35 MB

     Dynamical RAM for                spsi:      45.35 MB

     Dynamical RAM for      wfcinit/wfcrot:      26.07 MB

     Dynamical RAM for           addusdens:      36.71 MB

     Dynamical RAM for          addusforce:      48.37 MB

     Dynamical RAM for         addusstress:      33.17 MB

     Estimated static dynamical RAM per process >      72.62 MB

     Estimated max dynamical RAM per process >     327.96 MB

     Estimated total dynamical RAM >      19.06 GB

     Atomic positions and unit cell read from directory:
     ./GaN.save/
     Atomic positions from file used, from input discarded
 

     Check: negative core charge=   -0.000003

     The initial density is read from file :
     ./GaN.save/charge-density



     %%%%%%%%%%%%%%%%%%%%%%%%%%%%%%%%%%%%%%%%%%%%%%%%%%%%%%%%%%%%%%%%%%%%%%%%
     %                                                                      %
     % You are using vdW-DF, which was implemented by the Thonhauser group. %
     % Please cite the following two papers that made this development      %
     % possible and the two reviews that describe the various versions:     %
     %                                                                      %
     %   T. Thonhauser et al., PRL 115, 136402 (2015).                      %
     %   T. Thonhauser et al., PRB 76, 125112 (2007).                       %
     %   K. Berland et al., Rep. Prog. Phys. 78, 066501 (2015).             %
     %   D.C. Langreth et al., J. Phys.: Condens. Matter 21, 084203 (2009). %
     %                                                                      %
     % If you are calculating stress with vdW-DF, please also cite:         %
     %                                                                      %
     %   R. Sabatini et al., J. Phys.: Condens. Matter 24, 424209 (2012).   %
     %                                                                      %
     %%%%%%%%%%%%%%%%%%%%%%%%%%%%%%%%%%%%%%%%%%%%%%%%%%%%%%%%%%%%%%%%%%%%%%%%

     %%%%%%%%%%%%%%%%%%%%%%%%%%%%%%%%%%%%%%%%%%%%%%%%%%%%%%%%%%%%%%%%%%%%%%%%
     %                                                                      %
     %  vdW-DF NEWS:                                                        %
     %                                                                      %
     %  * vdW-DF3 is now available. DOI: 10.1021/acs.jctc.0c00471           %
     %    use with input_dft = 'vdW-DF3-opt1' or 'vdW-DF3-opt2'             %
     %                                                                      %
     %  * Unscreened and range-separated vdW-DF hybrid functionals          %
     %    DOI: 10.1063/1.4986522 and 10.1088/1361-648X/ac2ad2               %
     %    use with input_dft = 'vdW-DF-cx0' (etc) and 'vdW-DF-ahcx'         %
     %                                                                      %
     %%%%%%%%%%%%%%%%%%%%%%%%%%%%%%%%%%%%%%%%%%%%%%%%%%%%%%%%%%%%%%%%%%%%%%%%


     Carrying out vdW-DF run using the following parameters:
     Nqs    =  20  Npoints =  1024  r_max =  100.000
     q_mesh =  0.00001000  0.04494208  0.09755937  0.15916263
               0.23128650  0.31572767  0.41458969  0.53033537
               0.66584808  0.82450364  1.01025438  1.22772762
               1.48234092  1.78043706  2.12944203  2.53805004
               3.01644009  3.57652955  4.23227104  5.00000000


     -----------------------------------------------
     Non-local corr. energy    =      19.55960358 Ry
     -----------------------------------------------

     Cannot read wfcs: file not found
     Starting wfcs are  464 randomized atomic wfcs
     Checking if some PAW data can be deallocated... 
       PAW data deallocated on   35 nodes for type:  1
       PAW data deallocated on   25 nodes for type:  2

     total cpu time spent up to now is        9.4 secs

     Self-consistent Calculation

     iteration #  1     ecut=    70.00 Ry     beta= 0.70
     Davidson diagonalization with overlap

---- Real-time Memory Report at c_bands before calling an iterative solver
           371 MiB given to the printing process from OS
             0 MiB allocation reported by mallinfo(arena+hblkhd)
       1970487 MiB available memory on the node where the printing process lives
------------------
     c_bands:  3 eigenvalues not converged
     c_bands:  2 eigenvalues not converged
     ethr =  1.00E-05,  avg # of iterations = 20.0

     Threshold (ethr) on eigenvalues was too large:
     Diagonalizing with lowered threshold

     Davidson diagonalization with overlap

---- Real-time Memory Report at c_bands before calling an iterative solver
           595 MiB given to the printing process from OS
             0 MiB allocation reported by mallinfo(arena+hblkhd)
       1970425 MiB available memory on the node where the printing process lives
------------------
     c_bands:  1 eigenvalues not converged
     c_bands:  1 eigenvalues not converged
     ethr =  2.90E-08,  avg # of iterations = 20.0


     -----------------------------------------------
     Non-local corr. energy    =      19.55948389 Ry
     -----------------------------------------------


     total cpu time spent up to now is      133.1 secs

     End of self-consistent calculation

          k = 0.0000 0.0000 0.0000 ( 57971 PWs)   bands (ev):

    -7.0040  -6.7313  -6.7211  -6.7177  -6.7177  -6.7037  -6.7037  -6.6392
    -6.6392  -6.6360  -6.6165  -6.6165  -6.5896  -6.5134  -6.4728  -6.4581
    -6.4402  -6.4402  -6.4289  -6.3953  -6.3921  -6.3921  -6.3778  -6.3679
    -6.3679  -6.3603  -6.3535  -6.3535  -6.3411  -6.3411  -6.3250  -6.3250
    -6.3223  -6.2919  -6.2737  -5.7917  -5.7829  -5.7829  -5.7765  -5.7765
    -5.7738  -5.7554  -5.7549  -5.7549  -5.7477  -5.7477  -5.7312  -5.5735
    -5.5690  -5.5690  -5.5341  -5.5341  -5.5219  -5.5103  -5.5103  -5.3554
    -5.3554  -5.3232  -5.3152  -5.3045  -5.3045  -5.2981  -5.2874  -5.2874
    -5.2808  -5.2808  -5.2675  -5.2675  -5.2578  -5.2578  -5.2521  -5.2500
    -5.2458  -5.2458  -5.2413  -5.2316  -5.2316  -5.2194  -5.2194  -5.2148
    -5.2147  -5.2108  -5.2108  -5.2007  -5.1999  -5.1983  -5.1983  -5.1901
    -5.1901  -5.1848  -5.1848  -5.1803  -5.1760  -5.1760  -5.1745  -5.1666
    -5.1660  -5.1660  -5.1625  -5.1610  -5.1604  -5.1543  -5.1543  -5.1492
    -5.1392  -5.1392  -5.1376  -5.1376  -5.1314  -5.1279  -5.1279  -5.1278
    -5.1176  -5.1176  -5.1158  -5.1142  -5.1142  -5.1109  -5.1109  -5.1087
    -5.1073  -5.1027  -5.1027  -5.0991  -5.0910  -5.0910  -5.0848  -5.0848
    -5.0816  -5.0798  -5.0798  -5.0781  -5.0781  -5.0711  -5.0711  -5.0679
    -5.0663  -5.0633  -5.0608  -5.0608  -5.0514  -5.0497  -5.0497  -5.0477
    -5.0477  -5.0442  -5.0385  -5.0385  -5.0338  -5.0335  -5.0335  -5.0298
    -5.0267  -5.0160  -5.0160  -5.0158  -5.0131  -5.0131  -5.0038  -5.0038
    -4.9842  -4.9811  -4.9762  -4.9762  -4.9728  -4.9728  -4.9636  -4.9636
    -4.9629  -4.9617  -4.9617  -4.9534  -4.9534  -4.9454  -4.9454  -4.9390
    -4.9120  -4.9120  -4.9055  -4.9055  -4.9044  -4.8337  -4.7982  -4.5202
    -4.5202  -4.4713  -4.4713  -4.4155  -4.3586  -3.9998  -3.9997  -3.9565
    -3.9530  -3.9530  -3.9446  -3.9445  -3.8474  -3.8453  -3.8453  -3.8422
    -3.6470  -3.4928  -3.3303  -3.1791  -3.1791  -3.1095  -3.1095  -3.0917
    -3.0275  -3.0198  -3.0198  -3.0098  -2.9909  -2.9909  -2.9360   1.9996
     2.5320   2.7512   2.7991   2.7991   2.8093   2.9114   2.9114   2.9412
     2.9742   2.9742   3.0736   3.3462   3.3570   3.3571   3.3663   3.3663
     3.4155   3.4174   3.4174   3.4353   3.4353   3.4698   3.4763   3.4832
     3.5399   3.5400   3.9166   3.9166   4.0493   4.0986   4.0987   4.2558
     4.2635   4.2635   4.6399   4.8000   4.8000   4.8092   4.8092   4.8249
     4.8790   4.8790   4.9227   5.0817   5.2007   5.2008   5.8377   5.9262
     5.9262   6.0929   6.1596   6.1596   6.3635   6.4641   6.4641   6.4788
     6.5361   6.5366   6.5366   6.6770   6.6770   6.6969   6.6969   6.7486
     6.7575   6.7575   6.7783   6.7783   6.7993   7.0435   7.0680   7.0680
     7.0768   7.1174   7.1615   7.1615   7.1652   7.2092   7.2111   7.2111
     7.2597   7.2779   7.2779   7.3312   7.4691   7.4691   7.5107   7.5107
     7.5605   7.5606   7.5902   7.7660   7.7661   7.9190   8.0069   8.0106
     8.0106   8.0983   8.0984   8.1911   8.1911   8.5325   8.5557   8.6580
     8.6581  10.5925  11.5578  11.9845  11.9846  12.6413  12.6775  12.7877
    13.2516  13.3103  13.3103  13.3308  13.3308  13.3492  13.4933  13.4933
    13.5044  13.5211  13.5211  13.5533  13.5534  13.5715  13.6219  13.6219
    13.8374  14.1636  14.2170  14.2170  14.3065  14.3066  14.3237  14.4316
    14.4317  14.8103  14.8334  14.9235  14.9235  15.4042  15.4083  15.4083
    15.5794  15.5794  15.7820  15.9051  15.9215  15.9215  15.9593  16.0176
    16.0697  16.0899  16.0899  16.2074  16.2075  16.2190  16.2191  16.2370
    16.2370  16.2609  16.2793  16.2793  16.6471  16.6471  16.6746  16.7503
    16.9087

     occupation numbers 
     1.0000   1.0000   1.0000   1.0000   1.0000   1.0000   1.0000   1.0000
     1.0000   1.0000   1.0000   1.0000   1.0000   1.0000   1.0000   1.0000
     1.0000   1.0000   1.0000   1.0000   1.0000   1.0000   1.0000   1.0000
     1.0000   1.0000   1.0000   1.0000   1.0000   1.0000   1.0000   1.0000
     1.0000   1.0000   1.0000   1.0000   1.0000   1.0000   1.0000   1.0000
     1.0000   1.0000   1.0000   1.0000   1.0000   1.0000   1.0000   1.0000
     1.0000   1.0000   1.0000   1.0000   1.0000   1.0000   1.0000   1.0000
     1.0000   1.0000   1.0000   1.0000   1.0000   1.0000   1.0000   1.0000
     1.0000   1.0000   1.0000   1.0000   1.0000   1.0000   1.0000   1.0000
     1.0000   1.0000   1.0000   1.0000   1.0000   1.0000   1.0000   1.0000
     1.0000   1.0000   1.0000   1.0000   1.0000   1.0000   1.0000   1.0000
     1.0000   1.0000   1.0000   1.0000   1.0000   1.0000   1.0000   1.0000
     1.0000   1.0000   1.0000   1.0000   1.0000   1.0000   1.0000   1.0000
     1.0000   1.0000   1.0000   1.0000   1.0000   1.0000   1.0000   1.0000
     1.0000   1.0000   1.0000   1.0000   1.0000   1.0000   1.0000   1.0000
     1.0000   1.0000   1.0000   1.0000   1.0000   1.0000   1.0000   1.0000
     1.0000   1.0000   1.0000   1.0000   1.0000   1.0000   1.0000   1.0000
     1.0000   1.0000   1.0000   1.0000   1.0000   1.0000   1.0000   1.0000
     1.0000   1.0000   1.0000   1.0000   1.0000   1.0000   1.0000   1.0000
     1.0000   1.0000   1.0000   1.0000   1.0000   1.0000   1.0000   1.0000
     1.0000   1.0000   1.0000   1.0000   1.0000   1.0000   1.0000   1.0000
     1.0000   1.0000   1.0000   1.0000   1.0000   1.0000   1.0000   1.0000
     1.0000   1.0000   1.0000   1.0000   1.0000   1.0000   1.0000   1.0000
     1.0000   1.0000   1.0000   1.0000   1.0000   1.0000   1.0000   1.0000
     1.0000   1.0000   1.0000   1.0000   1.0000   1.0000   1.0000   1.0000
     1.0000   1.0000   1.0000   1.0000   1.0000   1.0000   1.0000   1.0000
     1.0000   1.0000   1.0000   1.0000   1.0000   1.0000   1.0000   1.0000
     1.0000   1.0000   1.0000   1.0000   1.0000   1.0000   1.0000   1.0000
     1.0000   1.0000   1.0000   1.0000   1.0000   1.0000   1.0000   1.0000
     1.0000   1.0000   1.0000   1.0000   1.0000   1.0000   1.0000   1.0000
     1.0000   1.0000   1.0000   1.0000   1.0000   1.0000   1.0000   1.0000
     1.0000   1.0000   1.0000   1.0000   1.0000   1.0000   1.0000   1.0000
     1.0000   1.0000   1.0000   1.0000   1.0000   1.0000   1.0000   1.0000
     1.0000   1.0000   1.0000   1.0000   1.0000   1.0000   1.0000   1.0000
     1.0000   1.0000   1.0000   1.0000   1.0000   1.0000   1.0000   1.0000
     1.0000   1.0000   1.0000   1.0000   1.0000   1.0000   1.0000   1.0000
     1.0000   1.0000   1.0000   1.0000   1.0000   1.0000   1.0000   1.0000
     1.0000   1.0000   1.0000   1.0000   1.0000   1.0000   1.0000   1.0000
     1.0000   1.0000   1.0000   1.0000   1.0000   1.0000   1.0000   1.0000
     1.0000   1.0000   1.0000   1.0000   1.0000   1.0000   1.0000   1.0000
     1.0000   0.0000   0.0000   0.0000   0.0000   0.0000   0.0000   0.0000
     0.0000   0.0000   0.0000   0.0000   0.0000   0.0000   0.0000   0.0000
     0.0000   0.0000   0.0000   0.0000   0.0000   0.0000   0.0000   0.0000
     0.0000   0.0000   0.0000   0.0000   0.0000   0.0000   0.0000   0.0000
     0.0000   0.0000   0.0000   0.0000   0.0000   0.0000   0.0000   0.0000
     0.0000   0.0000   0.0000   0.0000   0.0000   0.0000   0.0000   0.0000
     0.0000   0.0000   0.0000   0.0000   0.0000   0.0000   0.0000   0.0000
     0.0000   0.0000   0.0000   0.0000   0.0000   0.0000   0.0000   0.0000
     0.0000

          k = 0.0000 0.0000-0.4602 ( 58014 PWs)   bands (ev):

    -6.9299  -6.8473  -6.7054  -6.7054  -6.7000  -6.6999  -6.6938  -6.6412
    -6.6411  -6.6355  -6.6265  -6.6265  -6.5761  -6.5218  -6.4721  -6.4471
    -6.4317  -6.4317  -6.4286  -6.4035  -6.3887  -6.3886  -6.3825  -6.3825
    -6.3815  -6.3628  -6.3599  -6.3599  -6.3357  -6.3357  -6.3276  -6.3276
    -6.3231  -6.2904  -6.2747  -5.7900  -5.7822  -5.7822  -5.7764  -5.7763
    -5.7727  -5.7555  -5.7555  -5.7551  -5.7473  -5.7473  -5.7337  -5.5738
    -5.5692  -5.5692  -5.5341  -5.5341  -5.5219  -5.5107  -5.5107  -5.3554
    -5.3554  -5.3224  -5.3049  -5.3049  -5.2978  -5.2930  -5.2872  -5.2872
    -5.2788  -5.2788  -5.2660  -5.2660  -5.2610  -5.2610  -5.2603  -5.2481
    -5.2434  -5.2434  -5.2334  -5.2334  -5.2184  -5.2184  -5.2152  -5.2129
    -5.2129  -5.2090  -5.2090  -5.2055  -5.2055  -5.2020  -5.1992  -5.1978
    -5.1894  -5.1894  -5.1862  -5.1862  -5.1790  -5.1779  -5.1779  -5.1769
    -5.1667  -5.1632  -5.1632  -5.1568  -5.1550  -5.1550  -5.1520  -5.1470
    -5.1457  -5.1434  -5.1434  -5.1298  -5.1298  -5.1295  -5.1279  -5.1279
    -5.1259  -5.1259  -5.1242  -5.1230  -5.1190  -5.1190  -5.1082  -5.1072
    -5.1072  -5.1064  -5.1064  -5.1053  -5.0956  -5.0910  -5.0910  -5.0834
    -5.0834  -5.0792  -5.0783  -5.0759  -5.0759  -5.0712  -5.0712  -5.0666
    -5.0666  -5.0666  -5.0592  -5.0592  -5.0576  -5.0521  -5.0521  -5.0502
    -5.0502  -5.0442  -5.0428  -5.0378  -5.0378  -5.0345  -5.0341  -5.0341
    -5.0298  -5.0179  -5.0179  -5.0179  -5.0157  -5.0106  -5.0106  -5.0019
    -5.0019  -4.9851  -4.9801  -4.9770  -4.9770  -4.9736  -4.9736  -4.9652
    -4.9652  -4.9625  -4.9602  -4.9602  -4.9522  -4.9522  -4.9453  -4.9453
    -4.9392  -4.9133  -4.9133  -4.9062  -4.9062  -4.9047  -4.4437  -4.4436
    -4.3976  -4.3976  -4.3414  -4.3252  -4.3252  -4.3172  -4.2549  -4.2549
    -4.2395  -4.2279  -4.0157  -3.9264  -3.4776  -3.4776  -3.3657  -3.3657
    -3.3423  -3.3423  -3.3303  -3.3234  -3.2994  -3.2489  -3.2461  -3.2461
    -3.2108  -3.1187  -3.1187  -3.0785  -3.0785  -3.0276  -3.0146   2.3447
     2.8324   2.8730   2.8831   2.8832   2.9444   2.9445   2.9613   2.9821
     2.9822   3.0001   3.0001   3.0151   3.0223   3.0497   3.0875   3.0959
     3.1371   3.1371   3.1560   3.1560   3.2913   3.6040   3.9582   3.9582
     4.0695   4.0833   4.0834   4.1161   4.1214   4.1214   4.1394   4.1395
     4.1653   4.1654   4.2198   4.4637   4.4637   5.1578   5.1578   5.1845
     5.2270   5.2623   5.2623   5.2821   5.2821   5.3003   5.3172   5.3172
     5.6158   5.7243   5.7243   5.8270   5.8270   6.3758   6.5176   6.5176
     6.5676   6.6152   6.6153   6.6309   6.6313   6.6491   6.6492   6.6594
     6.6884   6.7163   6.7163   6.7286   6.7333   6.7333   6.8181   6.8813
     6.9976   6.9976   7.2558   7.4720   7.4720   7.5243   7.5324   7.5324
     7.5860   7.6004   7.6004   7.6163   7.6220   7.6220   7.6697   7.6754
     7.6754   7.6970   7.7170   7.7170   7.7273   7.7400   7.7401   7.8028
     7.8061   7.8061   7.8957   7.8958   8.3810   8.3811   8.5955   8.5956
     8.8188  11.0798  11.6408  11.9298  11.9299  12.2097  12.7518  12.7921
    12.8673  12.9724  12.9724  12.9885  12.9885  13.0090  13.0601  13.0601
    13.1492  13.2597  13.2598  13.8078  14.1517  14.1518  14.2903  14.3030
    14.3031  14.3524  14.3525  14.3637  14.4279  14.4280  14.5136  14.8500
    14.8500  15.0034  15.0034  15.2478  15.4371  15.4609  15.4965  15.4965
    15.5142  15.5293  15.5425  15.5425  15.6389  15.6389  15.6778  15.7342
    15.7342  15.7725  15.8203  15.8203  16.0897  16.0897  16.3590  16.4147
    16.5015  16.5489  16.5489  16.6064  16.6064  16.6514  16.7065  16.7065
    16.8069

     occupation numbers 
     1.0000   1.0000   1.0000   1.0000   1.0000   1.0000   1.0000   1.0000
     1.0000   1.0000   1.0000   1.0000   1.0000   1.0000   1.0000   1.0000
     1.0000   1.0000   1.0000   1.0000   1.0000   1.0000   1.0000   1.0000
     1.0000   1.0000   1.0000   1.0000   1.0000   1.0000   1.0000   1.0000
     1.0000   1.0000   1.0000   1.0000   1.0000   1.0000   1.0000   1.0000
     1.0000   1.0000   1.0000   1.0000   1.0000   1.0000   1.0000   1.0000
     1.0000   1.0000   1.0000   1.0000   1.0000   1.0000   1.0000   1.0000
     1.0000   1.0000   1.0000   1.0000   1.0000   1.0000   1.0000   1.0000
     1.0000   1.0000   1.0000   1.0000   1.0000   1.0000   1.0000   1.0000
     1.0000   1.0000   1.0000   1.0000   1.0000   1.0000   1.0000   1.0000
     1.0000   1.0000   1.0000   1.0000   1.0000   1.0000   1.0000   1.0000
     1.0000   1.0000   1.0000   1.0000   1.0000   1.0000   1.0000   1.0000
     1.0000   1.0000   1.0000   1.0000   1.0000   1.0000   1.0000   1.0000
     1.0000   1.0000   1.0000   1.0000   1.0000   1.0000   1.0000   1.0000
     1.0000   1.0000   1.0000   1.0000   1.0000   1.0000   1.0000   1.0000
     1.0000   1.0000   1.0000   1.0000   1.0000   1.0000   1.0000   1.0000
     1.0000   1.0000   1.0000   1.0000   1.0000   1.0000   1.0000   1.0000
     1.0000   1.0000   1.0000   1.0000   1.0000   1.0000   1.0000   1.0000
     1.0000   1.0000   1.0000   1.0000   1.0000   1.0000   1.0000   1.0000
     1.0000   1.0000   1.0000   1.0000   1.0000   1.0000   1.0000   1.0000
     1.0000   1.0000   1.0000   1.0000   1.0000   1.0000   1.0000   1.0000
     1.0000   1.0000   1.0000   1.0000   1.0000   1.0000   1.0000   1.0000
     1.0000   1.0000   1.0000   1.0000   1.0000   1.0000   1.0000   1.0000
     1.0000   1.0000   1.0000   1.0000   1.0000   1.0000   1.0000   1.0000
     1.0000   1.0000   1.0000   1.0000   1.0000   1.0000   1.0000   1.0000
     1.0000   1.0000   1.0000   1.0000   1.0000   1.0000   1.0000   1.0000
     1.0000   1.0000   1.0000   1.0000   1.0000   1.0000   1.0000   1.0000
     1.0000   1.0000   1.0000   1.0000   1.0000   1.0000   1.0000   1.0000
     1.0000   1.0000   1.0000   1.0000   1.0000   1.0000   1.0000   1.0000
     1.0000   1.0000   1.0000   1.0000   1.0000   1.0000   1.0000   1.0000
     1.0000   1.0000   1.0000   1.0000   1.0000   1.0000   1.0000   1.0000
     1.0000   1.0000   1.0000   1.0000   1.0000   1.0000   1.0000   1.0000
     1.0000   1.0000   1.0000   1.0000   1.0000   1.0000   1.0000   1.0000
     1.0000   1.0000   1.0000   1.0000   1.0000   1.0000   1.0000   1.0000
     1.0000   1.0000   1.0000   1.0000   1.0000   1.0000   1.0000   1.0000
     1.0000   1.0000   1.0000   1.0000   1.0000   1.0000   1.0000   1.0000
     1.0000   1.0000   1.0000   1.0000   1.0000   1.0000   1.0000   1.0000
     1.0000   1.0000   1.0000   1.0000   1.0000   1.0000   1.0000   1.0000
     1.0000   1.0000   1.0000   1.0000   1.0000   1.0000   1.0000   1.0000
     1.0000   1.0000   1.0000   1.0000   1.0000   1.0000   1.0000   1.0000
     0.9996   0.0000   0.0000   0.0000   0.0000   0.0000   0.0000   0.0000
     0.0000   0.0000   0.0000   0.0000   0.0000   0.0000   0.0000   0.0000
     0.0000   0.0000   0.0000   0.0000   0.0000   0.0000   0.0000   0.0000
     0.0000   0.0000   0.0000   0.0000   0.0000   0.0000   0.0000   0.0000
     0.0000   0.0000   0.0000   0.0000   0.0000   0.0000   0.0000   0.0000
     0.0000   0.0000   0.0000   0.0000   0.0000   0.0000   0.0000   0.0000
     0.0000   0.0000   0.0000   0.0000   0.0000   0.0000   0.0000   0.0000
     0.0000   0.0000   0.0000   0.0000   0.0000   0.0000   0.0000   0.0000
     0.0000

          k = 0.0000-0.5774 0.0000 ( 57942 PWs)   bands (ev):

    -6.8687  -6.8498  -6.7393  -6.7134  -6.6911  -6.6830  -6.6687  -6.6566
    -6.6551  -6.6346  -6.6314  -6.6166  -6.5610  -6.5404  -6.4859  -6.4547
    -6.4417  -6.4399  -6.4203  -6.4039  -6.3972  -6.3875  -6.3858  -6.3742
    -6.3698  -6.3633  -6.3502  -6.3473  -6.3386  -6.3364  -6.3335  -6.3315
    -6.3227  -6.2885  -6.2772  -5.7855  -5.7800  -5.7783  -5.7773  -5.7754
    -5.7699  -5.7627  -5.7597  -5.7545  -5.7522  -5.7474  -5.7305  -5.5794
    -5.5628  -5.5583  -5.5399  -5.5378  -5.5212  -5.5100  -5.5057  -5.3512
    -5.3504  -5.3266  -5.3132  -5.3068  -5.3004  -5.2952  -5.2917  -5.2896
    -5.2884  -5.2806  -5.2647  -5.2621  -5.2595  -5.2573  -5.2567  -5.2494
    -5.2449  -5.2386  -5.2347  -5.2326  -5.2262  -5.2218  -5.2180  -5.2134
    -5.2125  -5.2071  -5.2056  -5.2036  -5.2020  -5.1929  -5.1917  -5.1915
    -5.1910  -5.1856  -5.1838  -5.1820  -5.1767  -5.1731  -5.1730  -5.1705
    -5.1695  -5.1657  -5.1650  -5.1622  -5.1621  -5.1520  -5.1510  -5.1491
    -5.1443  -5.1428  -5.1425  -5.1402  -5.1391  -5.1355  -5.1321  -5.1278
    -5.1268  -5.1226  -5.1203  -5.1187  -5.1158  -5.1156  -5.1124  -5.1060
    -5.1053  -5.1034  -5.1011  -5.1008  -5.0987  -5.0929  -5.0913  -5.0902
    -5.0872  -5.0849  -5.0846  -5.0829  -5.0797  -5.0755  -5.0736  -5.0713
    -5.0688  -5.0674  -5.0641  -5.0622  -5.0561  -5.0552  -5.0523  -5.0515
    -5.0501  -5.0456  -5.0447  -5.0392  -5.0359  -5.0341  -5.0335  -5.0331
    -5.0283  -5.0262  -5.0203  -5.0183  -5.0151  -5.0041  -5.0012  -4.9961
    -4.9960  -4.9883  -4.9835  -4.9732  -4.9711  -4.9711  -4.9689  -4.9653
    -4.9612  -4.9601  -4.9575  -4.9567  -4.9521  -4.9467  -4.9448  -4.9389
    -4.9291  -4.9243  -4.9182  -4.9117  -4.9107  -4.8950  -4.7124  -4.6787
    -4.6088  -4.5838  -4.5599  -4.4862  -4.1432  -4.1318  -4.1004  -4.0592
    -3.8762  -3.8166  -3.8134  -3.7088  -3.6328  -3.5143  -3.4747  -3.4670
    -3.4495  -3.4483  -3.4177  -3.3786  -3.3702  -3.3462  -3.3444  -3.3399
    -3.1283  -3.1221  -3.0838  -2.9499  -2.9223  -2.8954  -2.8942   2.1849
     2.3585   2.3914   2.4601   2.4689   2.6071   2.7186   2.7537   2.7674
     2.7846   2.8391   2.8513   2.8672   2.8980   2.9239   2.9436   2.9487
     3.0374   3.0418   3.3793   3.6407   3.7404   3.8160   3.8167   3.8900
     3.9506   4.0152   4.0672   4.4727   4.6779   4.7009   4.7163   4.7246
     4.7481   4.7999   4.8090   4.8689   4.9543   5.0262   5.1322   5.1722
     5.3151   5.3706   5.3885   5.4432   5.7492   5.7870   5.8162   5.8362
     5.8660   5.8790   5.9358   5.9777   6.0567   6.2217   6.2294   6.3411
     6.4136   6.6208   6.6776   6.6928   6.6952   6.7030   6.7532   6.7780
     6.8139   6.8250   6.8389   6.8410   6.8805   6.9146   6.9183   6.9207
     6.9330   6.9460   6.9671   7.0280   7.0509   7.0645   7.0741   7.0883
     7.0971   7.1057   7.1131   7.1274   7.1337   7.1466   7.1639   7.1735
     7.1861   7.1961   7.2253   7.4929   7.6596   7.6945   7.7211   7.7409
     7.7718   7.7948   7.8447   7.8591   8.2300   8.3375   8.4028   8.4827
     9.1895  11.0441  11.7196  11.8360  11.9819  12.2544  13.0724  13.1168
    13.3003  13.4716  13.5203  13.5562  13.6031  13.6708  13.8207  13.8433
    13.8813  13.9369  13.9789  14.0001  14.0440  14.0647  14.1053  14.1087
    14.1323  14.1788  14.2675  14.2725  14.3437  14.5392  14.6446  14.6634
    14.7184  14.7841  14.8574  14.9630  14.9896  15.0510  15.2667  15.2858
    15.3308  15.4251  15.5127  15.6030  16.0145  16.0274  16.0714  16.1444
    16.1597  16.2129  16.2133  16.2680  16.2978  16.3017  16.3514  16.3598
    16.3674  16.3796  16.4446  16.4482  16.4900  16.5271  16.5382  16.5405
    16.6319

     occupation numbers 
     1.0000   1.0000   1.0000   1.0000   1.0000   1.0000   1.0000   1.0000
     1.0000   1.0000   1.0000   1.0000   1.0000   1.0000   1.0000   1.0000
     1.0000   1.0000   1.0000   1.0000   1.0000   1.0000   1.0000   1.0000
     1.0000   1.0000   1.0000   1.0000   1.0000   1.0000   1.0000   1.0000
     1.0000   1.0000   1.0000   1.0000   1.0000   1.0000   1.0000   1.0000
     1.0000   1.0000   1.0000   1.0000   1.0000   1.0000   1.0000   1.0000
     1.0000   1.0000   1.0000   1.0000   1.0000   1.0000   1.0000   1.0000
     1.0000   1.0000   1.0000   1.0000   1.0000   1.0000   1.0000   1.0000
     1.0000   1.0000   1.0000   1.0000   1.0000   1.0000   1.0000   1.0000
     1.0000   1.0000   1.0000   1.0000   1.0000   1.0000   1.0000   1.0000
     1.0000   1.0000   1.0000   1.0000   1.0000   1.0000   1.0000   1.0000
     1.0000   1.0000   1.0000   1.0000   1.0000   1.0000   1.0000   1.0000
     1.0000   1.0000   1.0000   1.0000   1.0000   1.0000   1.0000   1.0000
     1.0000   1.0000   1.0000   1.0000   1.0000   1.0000   1.0000   1.0000
     1.0000   1.0000   1.0000   1.0000   1.0000   1.0000   1.0000   1.0000
     1.0000   1.0000   1.0000   1.0000   1.0000   1.0000   1.0000   1.0000
     1.0000   1.0000   1.0000   1.0000   1.0000   1.0000   1.0000   1.0000
     1.0000   1.0000   1.0000   1.0000   1.0000   1.0000   1.0000   1.0000
     1.0000   1.0000   1.0000   1.0000   1.0000   1.0000   1.0000   1.0000
     1.0000   1.0000   1.0000   1.0000   1.0000   1.0000   1.0000   1.0000
     1.0000   1.0000   1.0000   1.0000   1.0000   1.0000   1.0000   1.0000
     1.0000   1.0000   1.0000   1.0000   1.0000   1.0000   1.0000   1.0000
     1.0000   1.0000   1.0000   1.0000   1.0000   1.0000   1.0000   1.0000
     1.0000   1.0000   1.0000   1.0000   1.0000   1.0000   1.0000   1.0000
     1.0000   1.0000   1.0000   1.0000   1.0000   1.0000   1.0000   1.0000
     1.0000   1.0000   1.0000   1.0000   1.0000   1.0000   1.0000   1.0000
     1.0000   1.0000   1.0000   1.0000   1.0000   1.0000   1.0000   1.0000
     1.0000   1.0000   1.0000   1.0000   1.0000   1.0000   1.0000   1.0000
     1.0000   1.0000   1.0000   1.0000   1.0000   1.0000   1.0000   1.0000
     1.0000   1.0000   1.0000   1.0000   1.0000   1.0000   1.0000   1.0000
     1.0000   1.0000   1.0000   1.0000   1.0000   1.0000   1.0000   1.0000
     1.0000   1.0000   1.0000   1.0000   1.0000   1.0000   1.0000   1.0000
     1.0000   1.0000   1.0000   1.0000   1.0000   1.0000   1.0000   1.0000
     1.0000   1.0000   1.0000   1.0000   1.0000   1.0000   1.0000   1.0000
     1.0000   1.0000   1.0000   1.0000   1.0000   1.0000   1.0000   1.0000
     1.0000   1.0000   1.0000   1.0000   1.0000   1.0000   1.0000   1.0000
     1.0000   1.0000   1.0000   1.0000   1.0000   1.0000   1.0000   1.0000
     1.0000   1.0000   1.0000   1.0000   1.0000   1.0000   1.0000   1.0000
     1.0000   1.0000   1.0000   1.0000   1.0000   1.0000   1.0000   1.0000
     1.0000   1.0000   1.0000   1.0000   1.0000   1.0000   1.0000   1.0000
     0.3111   0.0000   0.0000   0.0000   0.0000   0.0000   0.0000   0.0000
     0.0000   0.0000   0.0000   0.0000   0.0000   0.0000   0.0000   0.0000
     0.0000   0.0000   0.0000   0.0000   0.0000   0.0000   0.0000   0.0000
     0.0000   0.0000   0.0000   0.0000   0.0000   0.0000   0.0000   0.0000
     0.0000   0.0000   0.0000   0.0000   0.0000   0.0000   0.0000   0.0000
     0.0000   0.0000   0.0000   0.0000   0.0000   0.0000   0.0000   0.0000
     0.0000   0.0000   0.0000   0.0000   0.0000   0.0000   0.0000   0.0000
     0.0000   0.0000   0.0000   0.0000   0.0000   0.0000   0.0000   0.0000
     0.0000

          k = 0.0000-0.5774-0.4602 ( 57848 PWs)   bands (ev):

    -6.8203  -6.8147  -6.7619  -6.7269  -6.6977  -6.6886  -6.6687  -6.6620
    -6.6554  -6.6424  -6.6349  -6.6242  -6.5509  -6.5191  -6.5111  -6.4755
    -6.4494  -6.4347  -6.4205  -6.3949  -6.3914  -6.3884  -6.3829  -6.3753
    -6.3741  -6.3633  -6.3572  -6.3509  -6.3453  -6.3411  -6.3318  -6.3310
    -6.3216  -6.2881  -6.2773  -5.7844  -5.7793  -5.7779  -5.7774  -5.7753
    -5.7674  -5.7623  -5.7594  -5.7551  -5.7526  -5.7470  -5.7331  -5.5795
    -5.5633  -5.5588  -5.5390  -5.5372  -5.5204  -5.5109  -5.5084  -5.3511
    -5.3504  -5.3256  -5.3134  -5.3054  -5.3003  -5.2944  -5.2887  -5.2870
    -5.2805  -5.2799  -5.2715  -5.2634  -5.2624  -5.2587  -5.2578  -5.2492
    -5.2416  -5.2371  -5.2367  -5.2290  -5.2269  -5.2247  -5.2195  -5.2130
    -5.2058  -5.2035  -5.2007  -5.2003  -5.1984  -5.1962  -5.1943  -5.1931
    -5.1915  -5.1912  -5.1864  -5.1840  -5.1801  -5.1778  -5.1761  -5.1743
    -5.1699  -5.1688  -5.1629  -5.1594  -5.1589  -5.1560  -5.1509  -5.1495
    -5.1454  -5.1451  -5.1436  -5.1393  -5.1371  -5.1361  -5.1336  -5.1253
    -5.1251  -5.1218  -5.1206  -5.1152  -5.1138  -5.1116  -5.1099  -5.1079
    -5.1049  -5.1040  -5.1027  -5.0998  -5.0951  -5.0934  -5.0884  -5.0874
    -5.0867  -5.0845  -5.0802  -5.0778  -5.0758  -5.0739  -5.0682  -5.0681
    -5.0669  -5.0663  -5.0619  -5.0604  -5.0548  -5.0524  -5.0512  -5.0455
    -5.0442  -5.0439  -5.0403  -5.0373  -5.0355  -5.0349  -5.0279  -5.0260
    -5.0237  -5.0198  -5.0160  -5.0128  -5.0056  -4.9998  -4.9995  -4.9985
    -4.9957  -4.9920  -4.9891  -4.9772  -4.9744  -4.9725  -4.9675  -4.9655
    -4.9645  -4.9621  -4.9568  -4.9520  -4.9514  -4.9456  -4.9452  -4.9419
    -4.9380  -4.9301  -4.9212  -4.9182  -4.9164  -4.9126  -4.9117  -4.8955
    -4.6305  -4.5185  -4.5140  -4.5069  -3.9352  -3.8832  -3.8410  -3.8191
    -3.7820  -3.7806  -3.7590  -3.6962  -3.6680  -3.6607  -3.6423  -3.6094
    -3.5493  -3.5440  -3.5269  -3.4064  -3.3945  -3.3150  -3.1976  -3.1789
    -3.1337  -3.1158  -3.0962  -3.0573  -3.0157  -3.0024  -2.9957   2.2398
     2.2865   2.4286   2.6194   2.6287   2.6692   2.7001   2.7231   2.7375
     2.8097   2.8128   3.0239   3.0794   3.0865   3.1853   3.1858   3.2103
     3.2326   3.2698   3.2724   3.3306   3.3410   3.3879   3.4288   3.4342
     3.5055   3.5224   3.6146   4.4051   4.7569   4.7736   4.7880   5.1134
     5.1263   5.1382   5.1862   5.2078   5.2111   5.2777   5.3117   5.4316
     5.4859   5.5253   5.5699   5.6552   5.6742   5.7410   5.8015   5.8351
     5.8928   5.9111   5.9166   5.9361   5.9580   6.0090   6.1469   6.1694
     6.3113   6.3221   6.3319   6.3627   6.3652   6.3930   6.4365   6.4407
     6.4769   6.5360   6.5794   6.5839   6.6110   6.6190   6.6477   6.6802
     6.7275   6.8036   7.0179   7.1578   7.1777   7.1956   7.2416   7.2437
     7.2789   7.2888   7.3068   7.3360   7.3543   7.3639   7.3892   7.4151
     7.4728   7.4973   7.4990   7.5103   7.6346   7.7425   7.7859   7.8006
     7.9143   7.9802   7.9917   8.0056   8.0301   8.2189   8.2809   8.3422
     9.1777  11.2158  11.5536  11.8368  12.4586  12.5314  12.6371  12.7245
    13.0023  13.0616  13.3882  13.4147  13.5087  13.5128  13.7255  13.7464
    13.8381  13.8725  13.8813  13.8845  13.9062  13.9083  13.9430  14.0058
    14.1319  14.1430  14.3467  14.7313  14.8399  15.0058  15.0467  15.0871
    15.1247  15.1281  15.1423  15.1447  15.2492  15.2860  15.3727  15.5943
    15.6548  15.6854  15.7306  15.7387  15.7896  15.8602  15.8868  15.8973
    15.9430  15.9644  16.0423  16.1003  16.1283  16.2673  16.2908  16.3678
    16.3925  16.4239  16.4274  16.4647  16.4701  16.4843  16.4940  16.5024
    16.5208

     occupation numbers 
     1.0000   1.0000   1.0000   1.0000   1.0000   1.0000   1.0000   1.0000
     1.0000   1.0000   1.0000   1.0000   1.0000   1.0000   1.0000   1.0000
     1.0000   1.0000   1.0000   1.0000   1.0000   1.0000   1.0000   1.0000
     1.0000   1.0000   1.0000   1.0000   1.0000   1.0000   1.0000   1.0000
     1.0000   1.0000   1.0000   1.0000   1.0000   1.0000   1.0000   1.0000
     1.0000   1.0000   1.0000   1.0000   1.0000   1.0000   1.0000   1.0000
     1.0000   1.0000   1.0000   1.0000   1.0000   1.0000   1.0000   1.0000
     1.0000   1.0000   1.0000   1.0000   1.0000   1.0000   1.0000   1.0000
     1.0000   1.0000   1.0000   1.0000   1.0000   1.0000   1.0000   1.0000
     1.0000   1.0000   1.0000   1.0000   1.0000   1.0000   1.0000   1.0000
     1.0000   1.0000   1.0000   1.0000   1.0000   1.0000   1.0000   1.0000
     1.0000   1.0000   1.0000   1.0000   1.0000   1.0000   1.0000   1.0000
     1.0000   1.0000   1.0000   1.0000   1.0000   1.0000   1.0000   1.0000
     1.0000   1.0000   1.0000   1.0000   1.0000   1.0000   1.0000   1.0000
     1.0000   1.0000   1.0000   1.0000   1.0000   1.0000   1.0000   1.0000
     1.0000   1.0000   1.0000   1.0000   1.0000   1.0000   1.0000   1.0000
     1.0000   1.0000   1.0000   1.0000   1.0000   1.0000   1.0000   1.0000
     1.0000   1.0000   1.0000   1.0000   1.0000   1.0000   1.0000   1.0000
     1.0000   1.0000   1.0000   1.0000   1.0000   1.0000   1.0000   1.0000
     1.0000   1.0000   1.0000   1.0000   1.0000   1.0000   1.0000   1.0000
     1.0000   1.0000   1.0000   1.0000   1.0000   1.0000   1.0000   1.0000
     1.0000   1.0000   1.0000   1.0000   1.0000   1.0000   1.0000   1.0000
     1.0000   1.0000   1.0000   1.0000   1.0000   1.0000   1.0000   1.0000
     1.0000   1.0000   1.0000   1.0000   1.0000   1.0000   1.0000   1.0000
     1.0000   1.0000   1.0000   1.0000   1.0000   1.0000   1.0000   1.0000
     1.0000   1.0000   1.0000   1.0000   1.0000   1.0000   1.0000   1.0000
     1.0000   1.0000   1.0000   1.0000   1.0000   1.0000   1.0000   1.0000
     1.0000   1.0000   1.0000   1.0000   1.0000   1.0000   1.0000   1.0000
     1.0000   1.0000   1.0000   1.0000   1.0000   1.0000   1.0000   1.0000
     1.0000   1.0000   1.0000   1.0000   1.0000   1.0000   1.0000   1.0000
     1.0000   1.0000   1.0000   1.0000   1.0000   1.0000   1.0000   1.0000
     1.0000   1.0000   1.0000   1.0000   1.0000   1.0000   1.0000   1.0000
     1.0000   1.0000   1.0000   1.0000   1.0000   1.0000   1.0000   1.0000
     1.0000   1.0000   1.0000   1.0000   1.0000   1.0000   1.0000   1.0000
     1.0000   1.0000   1.0000   1.0000   1.0000   1.0000   1.0000   1.0000
     1.0000   1.0000   1.0000   1.0000   1.0000   1.0000   1.0000   1.0000
     1.0000   1.0000   1.0000   1.0000   1.0000   1.0000   1.0000   1.0000
     1.0000   1.0000   1.0000   1.0000   1.0000   1.0000   1.0000   1.0000
     1.0000   1.0000   1.0000   1.0000   1.0000   1.0000   1.0000   1.0000
     1.0000   1.0000   1.0000   1.0000   1.0000   1.0000   1.0000   1.0000
     0.3557   0.0000   0.0000   0.0000   0.0000   0.0000   0.0000   0.0000
     0.0000   0.0000   0.0000   0.0000   0.0000   0.0000   0.0000   0.0000
     0.0000   0.0000   0.0000   0.0000   0.0000   0.0000   0.0000   0.0000
     0.0000   0.0000   0.0000   0.0000   0.0000   0.0000   0.0000   0.0000
     0.0000   0.0000   0.0000   0.0000   0.0000   0.0000   0.0000   0.0000
     0.0000   0.0000   0.0000   0.0000   0.0000   0.0000   0.0000   0.0000
     0.0000   0.0000   0.0000   0.0000   0.0000   0.0000   0.0000   0.0000
     0.0000   0.0000   0.0000   0.0000   0.0000   0.0000   0.0000   0.0000
     0.0000

     the Fermi energy is     9.1421 ev

!    total energy              =  -11214.74532452 Ry
     total all-electron energy =   -144026.131060 Ry
     estimated scf accuracy    <       0.00000005 Ry
     smearing contrib. (-TS)   =      -0.00385208 Ry
     internal energy E=F+TS    =  -11214.74147244 Ry

     The total energy is F=E-TS. E is the sum of the following terms:
     one-electron contribution =   -3441.93982328 Ry
     hartree contribution      =    2393.89295575 Ry
     xc contribution           =   -1630.49021991 Ry
     ewald contribution        =   -4071.98856473 Ry
     one-center paw contrib.   =   -4464.21582026 Ry
      -> PAW hartree energy AE =     288.31198141 Ry
      -> PAW hartree energy PS =    -285.37944663 Ry
      -> PAW xc energy AE      =    -313.83155687 Ry
      -> PAW xc energy PS      =      79.39007702 Ry
      -> total E_H with PAW    =    2396.82549053 Ry
      -> total E_XC with PAW   =   -1864.93169977 Ry

     convergence has been achieved in   1 iterations


     -----------------------------------------------
     Non-local corr. energy    =      19.55948389 Ry
     -----------------------------------------------


     Forces acting on atoms (cartesian axes, Ry/au):

     atom    1 type  1   force =     0.00000000    0.00000000   -0.00114153
     atom    2 type  1   force =     0.00000000    0.00000000   -0.00083385
     atom    3 type  1   force =     0.00021493   -0.00022424    0.00013213
     atom    4 type  1   force =     0.00032081   -0.00043499   -0.00032593
     atom    5 type  1   force =    -0.00008673    0.00029825    0.00013213
     atom    6 type  1   force =    -0.00021630    0.00049533   -0.00032593
     atom    7 type  1   force =    -0.00030166   -0.00007402    0.00013213
     atom    8 type  1   force =    -0.00053712   -0.00006034   -0.00032593
     atom    9 type  1   force =    -0.00021493   -0.00022424    0.00013213
     atom   10 type  1   force =    -0.00032081   -0.00043499   -0.00032593
     atom   11 type  1   force =     0.00000000    0.00000000    0.00074462
     atom   12 type  1   force =     0.00000000    0.00000000    0.00032300
     atom   13 type  1   force =     0.00030166   -0.00007402    0.00013213
     atom   14 type  1   force =     0.00053712   -0.00006034   -0.00032593
     atom   15 type  1   force =     0.00000000    0.00000000    0.00037508
     atom   16 type  1   force =     0.00000000    0.00000000    0.00038525
     atom   17 type  1   force =     0.00008673    0.00029825    0.00013213
     atom   18 type  1   force =     0.00021630    0.00049533   -0.00032593
     atom   19 type  1   force =     0.00015538   -0.00008971   -0.00006300
     atom   20 type  1   force =    -0.00001193    0.00000689    0.00026235
     atom   21 type  1   force =     0.00079308    0.00045788   -0.00060783
     atom   22 type  1   force =     0.00001102    0.00000636    0.00007508
     atom   23 type  1   force =     0.00000000    0.00017942   -0.00006300
     atom   24 type  1   force =     0.00000000   -0.00001378    0.00026235
     atom   25 type  1   force =    -0.00015538   -0.00008971   -0.00006300
     atom   26 type  1   force =     0.00001193    0.00000689    0.00026235
     atom   27 type  1   force =     0.00000000   -0.00027567   -0.00029829
     atom   28 type  1   force =     0.00000000    0.00002867    0.00018600
     atom   29 type  1   force =    -0.00023874    0.00013784   -0.00029829
     atom   30 type  1   force =     0.00002483   -0.00001433    0.00018600
     atom   31 type  1   force =     0.00000000   -0.00091577   -0.00060783
     atom   32 type  1   force =     0.00000000   -0.00001273    0.00007508
     atom   33 type  1   force =    -0.00079308    0.00045788   -0.00060783
     atom   34 type  1   force =    -0.00001102    0.00000636    0.00007508
     atom   35 type  1   force =     0.00023874    0.00013784   -0.00029829
     atom   36 type  1   force =    -0.00002483   -0.00001433    0.00018600
     atom   37 type  2   force =     0.00000000    0.00000000   -0.00047620
     atom   38 type  2   force =     0.00023937    0.00003518   -0.00005345
     atom   39 type  2   force =     0.00008401   -0.00003762   -0.00001296
     atom   40 type  2   force =     0.00015015    0.00018971   -0.00005345
     atom   41 type  2   force =     0.00000942    0.00009156   -0.00001296
     atom   42 type  2   force =    -0.00008922   -0.00022489   -0.00005345
     atom   43 type  2   force =    -0.00007458   -0.00005394   -0.00001296
     atom   44 type  2   force =    -0.00023937    0.00003518   -0.00005345
     atom   45 type  2   force =    -0.00008401   -0.00003762   -0.00001296
     atom   46 type  2   force =     0.00000000    0.00000000    0.00026270
     atom   47 type  2   force =     0.00000000    0.00000000    0.00017149
     atom   48 type  2   force =     0.00008922   -0.00022489   -0.00005345
     atom   49 type  2   force =     0.00007458   -0.00005394   -0.00001296
     atom   50 type  2   force =     0.00000000    0.00000000    0.00012748
     atom   51 type  2   force =     0.00000000    0.00000000    0.00042716
     atom   52 type  2   force =    -0.00015015    0.00018971   -0.00005345
     atom   53 type  2   force =    -0.00000942    0.00009156   -0.00001296
     atom   54 type  2   force =    -0.00015308    0.00008838    0.00012308
     atom   55 type  2   force =     0.00030373   -0.00017536    0.00019429
     atom   56 type  2   force =     0.00004574    0.00002641    0.00037003
     atom   57 type  2   force =     0.00005091    0.00002939    0.00014436
     atom   58 type  2   force =     0.00000000   -0.00017677    0.00012308
     atom   59 type  2   force =     0.00000000    0.00035072    0.00019429
     atom   60 type  2   force =     0.00015308    0.00008838    0.00012308
     atom   61 type  2   force =    -0.00030373   -0.00017536    0.00019429
     atom   62 type  2   force =    -0.00000000    0.00027573    0.00026530
     atom   63 type  2   force =     0.00000000    0.00043269   -0.00025269
     atom   64 type  2   force =     0.00023879   -0.00013786    0.00026530
     atom   65 type  2   force =     0.00037472   -0.00021635   -0.00025269
     atom   66 type  2   force =     0.00000000   -0.00005282    0.00037003
     atom   67 type  2   force =     0.00000000   -0.00005879    0.00014436
     atom   68 type  2   force =    -0.00004574    0.00002641    0.00037003
     atom   69 type  2   force =    -0.00005091    0.00002939    0.00014436
     atom   70 type  2   force =    -0.00023879   -0.00013786    0.00026530
     atom   71 type  2   force =    -0.00037472   -0.00021635   -0.00025269
     The non-local contrib.  to forces
     atom    1 type  1   force =     0.00000000    0.00000000    0.33611516
     atom    2 type  1   force =     0.00000000   -0.00000000   -0.02531275
     atom    3 type  1   force =    -0.00922568   -0.05019859    0.04257418
     atom    4 type  1   force =    -0.01437638   -0.06019796   -0.02891054
     atom    5 type  1   force =    -0.04808610    0.01710962    0.04257418
     atom    6 type  1   force =    -0.05932115    0.01764867   -0.02891054
     atom    7 type  1   force =    -0.03886041    0.03308897    0.04257418
     atom    8 type  1   force =    -0.04494477    0.04254929   -0.02891054
     atom    9 type  1   force =     0.00922568   -0.05019859    0.04257418
     atom   10 type  1   force =     0.01437638   -0.06019796   -0.02891054
     atom   11 type  1   force =     0.00000000    0.00000000    0.01015994
     atom   12 type  1   force =     0.00000000   -0.00000000   -0.02282242
     atom   13 type  1   force =     0.03886041    0.03308897    0.04257418
     atom   14 type  1   force =     0.04494477    0.04254929   -0.02891054
     atom   15 type  1   force =     0.00000000   -0.00000000    0.02382328
     atom   16 type  1   force =     0.00000000   -0.00000000   -0.02943355
     atom   17 type  1   force =     0.04808610    0.01710962    0.04257418
     atom   18 type  1   force =     0.05932115    0.01764867   -0.02891054
     atom   19 type  1   force =     0.29099276   -0.16800475   -0.13333077
     atom   20 type  1   force =     0.02888352   -0.01667591    0.09517597
     atom   21 type  1   force =     0.06136887    0.03543133   -0.06983977
     atom   22 type  1   force =     0.01145669    0.00661453    0.00718492
     atom   23 type  1   force =     0.00000000    0.33600950   -0.13333077
     atom   24 type  1   force =     0.00000000    0.03335181    0.09517597
     atom   25 type  1   force =    -0.29099276   -0.16800475   -0.13333077
     atom   26 type  1   force =    -0.02888352   -0.01667591    0.09517597
     atom   27 type  1   force =     0.00000000   -0.04505711   -0.04333434
     atom   28 type  1   force =     0.00000000   -0.01655708    0.00179416
     atom   29 type  1   force =    -0.03902060    0.02252855   -0.04333434
     atom   30 type  1   force =    -0.01433885    0.00827854    0.00179416
     atom   31 type  1   force =     0.00000000   -0.07086267   -0.06983977
     atom   32 type  1   force =     0.00000000   -0.01322905    0.00718492
     atom   33 type  1   force =    -0.06136887    0.03543133   -0.06983977
     atom   34 type  1   force =    -0.01145669    0.00661453    0.00718492
     atom   35 type  1   force =     0.03902060    0.02252855   -0.04333434
     atom   36 type  1   force =     0.01433885    0.00827854    0.00179416
     atom   37 type  2   force =     0.00000000   -0.00000000   -0.01770845
     atom   38 type  2   force =    -0.05018394   -0.09589998    0.09199598
     atom   39 type  2   force =    -0.00382784   -0.03235021   -0.01456549
     atom   40 type  2   force =    -0.10814379    0.00448942    0.09199598
     atom   41 type  2   force =    -0.02993002    0.01286010   -0.01456549
     atom   42 type  2   force =    -0.05795985    0.09141056    0.09199598
     atom   43 type  2   force =    -0.02610218    0.01949011   -0.01456549
     atom   44 type  2   force =     0.05018394   -0.09589998    0.09199598
     atom   45 type  2   force =     0.00382784   -0.03235021   -0.01456549
     atom   46 type  2   force =     0.00000000    0.00000000    0.05917099
     atom   47 type  2   force =     0.00000000    0.00000000    0.00597996
     atom   48 type  2   force =     0.05795985    0.09141056    0.09199598
     atom   49 type  2   force =     0.02610218    0.01949011   -0.01456549
     atom   50 type  2   force =     0.00000000    0.00000000    0.06729101
     atom   51 type  2   force =     0.00000000    0.00000000    0.00386219
     atom   52 type  2   force =     0.10814379    0.00448942    0.09199598
     atom   53 type  2   force =     0.02993002    0.01286010   -0.01456549
     atom   54 type  2   force =     0.12523339   -0.07230353    0.02367081
     atom   55 type  2   force =     0.00850632   -0.00491113   -0.11254152
     atom   56 type  2   force =     0.01919950    0.01108483    0.02804248
     atom   57 type  2   force =     0.01601693    0.00924738   -0.01455507
     atom   58 type  2   force =     0.00000000    0.14460707    0.02367081
     atom   59 type  2   force =     0.00000000    0.00982226   -0.11254152
     atom   60 type  2   force =    -0.12523339   -0.07230353    0.02367081
     atom   61 type  2   force =    -0.00850632   -0.00491113   -0.11254152
     atom   62 type  2   force =     0.00000000   -0.01940492    0.03083782
     atom   63 type  2   force =     0.00000000   -0.00813021   -0.00100543
     atom   64 type  2   force =    -0.01680515    0.00970246    0.03083782
     atom   65 type  2   force =    -0.00704097    0.00406510   -0.00100543
     atom   66 type  2   force =     0.00000000   -0.02216967    0.02804248
     atom   67 type  2   force =     0.00000000   -0.01849476   -0.01455507
     atom   68 type  2   force =    -0.01919950    0.01108483    0.02804248
     atom   69 type  2   force =    -0.01601693    0.00924738   -0.01455507
     atom   70 type  2   force =     0.01680515    0.00970246    0.03083782
     atom   71 type  2   force =     0.00704097    0.00406510   -0.00100543
     The ionic contribution  to forces
     atom    1 type  1   force =    -0.00004342    0.00002573   13.52851982
     atom    2 type  1   force =    -0.00003688    0.00002161   -5.28432350
     atom    3 type  1   force =     1.32039347   -2.49273842    2.85783013
     atom    4 type  1   force =     0.73461647   -1.38492216   -1.54796402
     atom    5 type  1   force =    -1.49860852    2.38992095    2.85782897
     atom    6 type  1   force =    -0.83209981    1.32871421   -1.54796136
     atom    7 type  1   force =    -2.81903413    0.10287444    2.85782898
     atom    8 type  1   force =    -1.56674777    0.05626423   -1.54796171
     atom    9 type  1   force =    -1.32046445   -2.49273450    2.85782750
     atom   10 type  1   force =    -0.73468530   -1.38491874   -1.54796159
     atom   11 type  1   force =    -0.00003244    0.00002159    1.70689479
     atom   12 type  1   force =    -0.00003261    0.00002171   -0.99425251
     atom   13 type  1   force =     2.81897368    0.10287674    2.85782981
     atom   14 type  1   force =     1.56668819    0.05626627   -1.54796430
     atom   15 type  1   force =    -0.00003137    0.00002095    1.37378371
     atom   16 type  1   force =    -0.00003136    0.00002094   -0.63744468
     atom   17 type  1   force =     1.49854138    2.38992716    2.85782725
     atom   18 type  1   force =     0.83203436    1.32871966   -1.54796157
     atom   19 type  1   force =    10.57006971   -6.10263774   -4.75569025
     atom   20 type  1   force =     0.44320548   -0.25588878    1.21358018
     atom   21 type  1   force =     0.96269288    0.55578011   -1.26782479
     atom   22 type  1   force =     0.07128917    0.04112012    0.92518400
     atom   23 type  1   force =     0.00005504   12.20527412   -4.75572178
     atom   24 type  1   force =     0.00003467    0.51170881    1.21357511
     atom   25 type  1   force =   -10.57004768   -6.10268868   -4.75572010
     atom   26 type  1   force =    -0.44313653   -0.25588893    1.21357565
     atom   27 type  1   force =     0.00003187   -3.11206825   -1.36453882
     atom   28 type  1   force =     0.00003288   -0.65591891    0.97025725
     atom   29 type  1   force =    -2.69508810    1.55600886   -1.36454147
     atom   30 type  1   force =    -0.56799147    0.32792897    0.97025639
     atom   31 type  1   force =     0.00002618   -1.11161104   -1.26782453
     atom   32 type  1   force =     0.00003265   -0.08230274    0.92518419
     atom   33 type  1   force =    -0.96262813    0.55577300   -1.26782591
     atom   34 type  1   force =    -0.07122221    0.04111918    0.92518411
     atom   35 type  1   force =     2.69514560    1.55600516   -1.36453905
     atom   36 type  1   force =     0.56805805    0.32792936    0.97025707
     atom   37 type  2   force =    -0.00003103    0.00001889   -0.19956883
     atom   38 type  2   force =     1.39894192   -1.06973776   -0.82705072
     atom   39 type  2   force =     0.14888044   -0.09589901    0.08985485
     atom   40 type  2   force =    -0.22698053    1.74643034   -0.82704740
     atom   41 type  2   force =    -0.00864348    0.17693797    0.08985413
     atom   42 type  2   force =    -1.62594210   -0.67664218   -0.82704710
     atom   43 type  2   force =    -0.15755278   -0.08098149    0.08985433
     atom   44 type  2   force =    -1.39899780   -1.06972810   -0.82705299
     atom   45 type  2   force =    -0.14893996   -0.09589791    0.08985453
     atom   46 type  2   force =    -0.00002910    0.00001888   -0.57198033
     atom   47 type  2   force =    -0.00002978    0.00001932    0.00817219
     atom   48 type  2   force =     1.62589283   -0.67664780   -0.82705009
     atom   49 type  2   force =     0.15749317   -0.08098252    0.08985515
     atom   50 type  2   force =    -0.00002908    0.00001907   -0.72258689
     atom   51 type  2   force =    -0.00002931    0.00001923   -0.02530075
     atom   52 type  2   force =     0.22691476    1.74643431   -0.82705265
     atom   53 type  2   force =     0.00858207    0.17693804    0.08985463
     atom   54 type  2   force =     0.26252288   -0.15157035    1.96083028
     atom   55 type  2   force =     1.28685834   -0.74297064   -1.24403632
     atom   56 type  2   force =    -0.04022218   -0.02325768    0.45722386
     atom   57 type  2   force =     0.02990389    0.01723156   -0.51409530
     atom   58 type  2   force =     0.00003015    0.30307383    1.96083959
     atom   59 type  2   force =     0.00002951    1.48588376   -1.24404064
     atom   60 type  2   force =    -0.26245606   -0.15156647    1.96083889
     atom   61 type  2   force =    -1.28679949   -0.74297064   -1.24404076
     atom   62 type  2   force =     0.00003126   -0.50127373    0.63275793
     atom   63 type  2   force =     0.00003050   -0.62186898   -0.88627146
     atom   64 type  2   force =    -0.43407125    0.25060981    0.63275963
     atom   65 type  2   force =    -0.53851118    0.31090828   -0.88627260
     atom   66 type  2   force =     0.00002938    0.04645884    0.45722369
     atom   67 type  2   force =     0.00002778   -0.03451669   -0.51409544
     atom   68 type  2   force =     0.04028280   -0.02325870    0.45722344
     atom   69 type  2   force =    -0.02984494    0.01722967   -0.51409653
     atom   70 type  2   force =     0.43413033    0.25060776    0.63275813
     atom   71 type  2   force =     0.53856855    0.31090612   -0.88627138
     The local contribution  to forces
     atom    1 type  1   force =    -0.00006074    0.00012445  -13.86430600
     atom    2 type  1   force =    -0.00005622    0.00012699    5.30798325
     atom    3 type  1   force =    -1.31112758    2.54174289   -2.89927742
     atom    4 type  1   force =    -0.72018170    1.44374920    1.57526000
     atom    5 type  1   force =     1.54550648   -2.40609279   -2.89926741
     atom    6 type  1   force =     0.89008683   -1.34531830    1.57526059
     atom    7 type  1   force =     2.85658418   -0.13526306   -2.89927613
     atom    8 type  1   force =     1.61022018   -0.09803860    1.57525994
     atom    9 type  1   force =     1.31101253    2.54174826   -2.89927109
     atom   10 type  1   force =     0.72006655    1.44375177    1.57526054
     atom   11 type  1   force =    -0.00006068    0.00013674   -1.71609244
     atom   12 type  1   force =    -0.00005888    0.00013488    1.01635424
     atom   13 type  1   force =    -2.85668473   -0.13526402   -2.89926859
     atom   14 type  1   force =    -1.61031868   -0.09803985    1.57526033
     atom   15 type  1   force =    -0.00005120    0.00013265   -1.39674112
     atom   16 type  1   force =    -0.00004904    0.00013123    0.66611626
     atom   17 type  1   force =    -1.54562232   -2.40608814   -2.89927346
     atom   18 type  1   force =    -0.89020382   -1.34531708    1.57525988
     atom   19 type  1   force =   -10.85762367    6.26867439    4.88782641
     atom   20 type  1   force =    -0.47053890    0.27168904   -1.30723396
     atom   21 type  1   force =    -1.02101826   -0.59075015    1.33502889
     atom   22 type  1   force =    -0.08132629   -0.04821295   -0.93237091
     atom   23 type  1   force =     0.00108306  -12.53928423    4.88787304
     atom   24 type  1   force =     0.00110414   -0.54522365   -1.30722926
     atom   25 type  1   force =    10.85990059    6.26874365    4.88786856
     atom   26 type  1   force =     0.47276492    0.27169062   -1.30723049
     atom   27 type  1   force =     0.00112354    3.15515180    1.40567372
     atom   28 type  1   force =     0.00111550    0.67161174   -0.97199117
     atom   29 type  1   force =     2.73410655   -1.57851225    1.40567887
     atom   30 type  1   force =     0.58327972   -0.33672493   -0.97199063
     atom   31 type  1   force =     0.00112965    1.17962520    1.33502724
     atom   32 type  1   force =     0.00112524    0.09457074   -0.93237087
     atom   33 type  1   force =     1.02323339   -0.59073143    1.33503202
     atom   34 type  1   force =     0.08355608   -0.04820896   -0.93237077
     atom   35 type  1   force =    -2.73186408   -1.57849584    1.40567073
     atom   36 type  1   force =    -0.58104708   -0.33672310   -0.97199033
     atom   37 type  2   force =    -0.00001146   -0.00000118    0.21640024
     atom   38 type  2   force =    -1.34938660    1.16416262    0.73642576
     atom   39 type  2   force =    -0.14507095    0.12771524   -0.07562052
     atom   40 type  2   force =     0.33349935   -1.75068024    0.73641862
     atom   41 type  2   force =     0.03806411   -0.18948534   -0.07561976
     atom   42 type  2   force =     1.68287196    0.58651470    0.73642204
     atom   43 type  2   force =     0.18312484    0.06176606   -0.07561965
     atom   44 type  2   force =     1.34936283    1.16416558    0.73642011
     atom   45 type  2   force =     0.14504998    0.12771572   -0.07562133
     atom   46 type  2   force =    -0.00001146    0.00000335    0.51394736
     atom   47 type  2   force =    -0.00001106   -0.00000101   -0.01396942
     atom   48 type  2   force =    -1.68289366    0.58651455    0.73642045
     atom   49 type  2   force =    -0.18314782    0.06176628   -0.07562030
     atom   50 type  2   force =    -0.00000872    0.00000259    0.65644524
     atom   51 type  2   force =    -0.00001093   -0.00000053    0.02184409
     atom   52 type  2   force =    -0.33351521   -1.75067181    0.73641869
     atom   53 type  2   force =    -0.03808752   -0.18948439   -0.07562086
     atom   54 type  2   force =    -0.38580397    0.22272610   -1.98410149
     atom   55 type  2   force =    -1.29481525    0.74754915    1.35489215
     atom   56 type  2   force =     0.02149052    0.01229388   -0.48453035
     atom   57 type  2   force =    -0.04549609   -0.02638056    0.52848434
     atom   58 type  2   force =     0.00008463   -0.44563844   -1.98410752
     atom   59 type  2   force =     0.00008373   -1.49528303    1.35490547
     atom   60 type  2   force =     0.38595839    0.22272855   -1.98410882
     atom   61 type  2   force =     1.29498464    0.74755156    1.35490558
     atom   62 type  2   force =     0.00007965    0.52056632   -0.66292057
     atom   63 type  2   force =     0.00008472    0.63021919    0.88692621
     atom   64 type  2   force =     0.45096046   -0.26037808   -0.66292281
     atom   65 type  2   force =     0.54592759   -0.31520340    0.88692751
     atom   66 type  2   force =     0.00008349   -0.02477956   -0.48453038
     atom   67 type  2   force =     0.00008751    0.05257300    0.52848479
     atom   68 type  2   force =    -0.02132086    0.01229492   -0.48452899
     atom   69 type  2   force =     0.04566766   -0.02637825    0.52848738
     atom   70 type  2   force =    -0.45079210   -0.26037255   -0.66292082
     atom   71 type  2   force =    -0.54575454   -0.31520040    0.88692578
     The core correction contribution to forces
     atom    1 type  1   force =    -0.00000579    0.00001264   -0.00158278
     atom    2 type  1   force =    -0.00000532    0.00001285    0.00075148
     atom    3 type  1   force =     0.00007163    0.00112754   -0.00109473
     atom    4 type  1   force =     0.00015538    0.00109835    0.00121489
     atom    5 type  1   force =     0.00099813   -0.00047713   -0.00109420
     atom    6 type  1   force =     0.00101455   -0.00038977    0.00121494
     atom    7 type  1   force =     0.00092168   -0.00061121   -0.00109478
     atom    8 type  1   force =     0.00085451   -0.00066896    0.00121487
     atom    9 type  1   force =    -0.00008230    0.00112808   -0.00109443
     atom   10 type  1   force =    -0.00016608    0.00109871    0.00121494
[...]
     atom   40 type  2   force =     0.00000000    0.00000000    0.00000000
     atom   41 type  2   force =     0.00000000    0.00000000    0.00000000
     atom   42 type  2   force =     0.00000000    0.00000000    0.00000000
     atom   43 type  2   force =     0.00000000    0.00000000    0.00000000
     atom   44 type  2   force =     0.00000000    0.00000000    0.00000000
     atom   45 type  2   force =     0.00000000    0.00000000    0.00000000
     atom   46 type  2   force =     0.00000000    0.00000000    0.00000000
     atom   47 type  2   force =     0.00000000    0.00000000    0.00000000
     atom   48 type  2   force =     0.00000000    0.00000000    0.00000000
     atom   49 type  2   force =     0.00000000    0.00000000    0.00000000
     atom   50 type  2   force =     0.00000000    0.00000000    0.00000000
     atom   51 type  2   force =     0.00000000    0.00000000    0.00000000
     atom   52 type  2   force =     0.00000000    0.00000000    0.00000000
     atom   53 type  2   force =     0.00000000    0.00000000    0.00000000
     atom   54 type  2   force =     0.00000000    0.00000000    0.00000000
     atom   55 type  2   force =     0.00000000    0.00000000    0.00000000
     atom   56 type  2   force =     0.00000000    0.00000000    0.00000000
     atom   57 type  2   force =     0.00000000    0.00000000    0.00000000
     atom   58 type  2   force =     0.00000000    0.00000000    0.00000000
     atom   59 type  2   force =     0.00000000    0.00000000    0.00000000
     atom   60 type  2   force =     0.00000000    0.00000000    0.00000000
     atom   61 type  2   force =     0.00000000    0.00000000    0.00000000
     atom   62 type  2   force =     0.00000000    0.00000000    0.00000000
     atom   63 type  2   force =     0.00000000    0.00000000    0.00000000
     atom   64 type  2   force =     0.00000000    0.00000000    0.00000000
     atom   65 type  2   force =     0.00000000    0.00000000    0.00000000
     atom   66 type  2   force =     0.00000000    0.00000000    0.00000000
     atom   67 type  2   force =     0.00000000    0.00000000    0.00000000
     atom   68 type  2   force =     0.00000000    0.00000000    0.00000000
     atom   69 type  2   force =     0.00000000    0.00000000    0.00000000
     atom   70 type  2   force =     0.00000000    0.00000000    0.00000000
     atom   71 type  2   force =     0.00000000    0.00000000    0.00000000
     The SCF correction term to forces
     atom    1 type  1   force =     0.00000000   -0.00000000   -0.00000368
     atom    2 type  1   force =     0.00000000   -0.00000000   -0.00000501
     atom    3 type  1   force =    -0.00000430    0.00000607   -0.00000071
     atom    4 type  1   force =    -0.00000052    0.00000368   -0.00000286
     atom    5 type  1   force =     0.00000311   -0.00000676   -0.00000071
     atom    6 type  1   force =     0.00000293   -0.00000229   -0.00000286
     atom    7 type  1   force =     0.00000741    0.00000069   -0.00000071
     atom    8 type  1   force =     0.00000345   -0.00000139   -0.00000286
     atom    9 type  1   force =     0.00000430    0.00000607   -0.00000071
     atom   10 type  1   force =     0.00000052    0.00000368   -0.00000286
     atom   11 type  1   force =     0.00000000   -0.00000000    0.00001096
     atom   12 type  1   force =     0.00000000   -0.00000000   -0.00000398
     atom   13 type  1   force =    -0.00000741    0.00000069   -0.00000071
     atom   14 type  1   force =    -0.00000345   -0.00000139   -0.00000286
     atom   15 type  1   force =     0.00000000   -0.00000000    0.00000904
     atom   16 type  1   force =    -0.00000000   -0.00000000   -0.00000043
     atom   17 type  1   force =    -0.00000311   -0.00000676   -0.00000071
     atom   18 type  1   force =    -0.00000293   -0.00000229   -0.00000286
     atom   19 type  1   force =    -0.00001531    0.00000884    0.00001966
     atom   20 type  1   force =    -0.00000573    0.00000331   -0.00002055
     atom   21 type  1   force =     0.00000566    0.00000326    0.00000849
     atom   22 type  1   force =     0.00000052    0.00000030   -0.00001003
     atom   23 type  1   force =     0.00000000   -0.00001768    0.00001966
     atom   24 type  1   force =    -0.00000000   -0.00000661   -0.00002055
     atom   25 type  1   force =     0.00001531    0.00000884    0.00001966
     atom   26 type  1   force =     0.00000573    0.00000331   -0.00002055
     atom   27 type  1   force =    -0.00000000    0.00000714    0.00001183
     atom   28 type  1   force =    -0.00000000    0.00000517   -0.00000600
     atom   29 type  1   force =     0.00000619   -0.00000357    0.00001183
     atom   30 type  1   force =     0.00000448   -0.00000259   -0.00000600
     atom   31 type  1   force =     0.00000000   -0.00000653    0.00000849
     atom   32 type  1   force =     0.00000000   -0.00000060   -0.00001003
     atom   33 type  1   force =    -0.00000565    0.00000326    0.00000849
     atom   34 type  1   force =    -0.00000052    0.00000030   -0.00001003
     atom   35 type  1   force =    -0.00000619   -0.00000357    0.00001183
     atom   36 type  1   force =    -0.00000448   -0.00000259   -0.00000600
     atom   37 type  2   force =     0.00000000    0.00000000   -0.00000394
     atom   38 type  2   force =    -0.00000651    0.00000659    0.00000729
     atom   39 type  2   force =    -0.00000154    0.00000354   -0.00000642
     atom   40 type  2   force =     0.00000245   -0.00000894    0.00000729
     atom   41 type  2   force =     0.00000229   -0.00000310   -0.00000642
     atom   42 type  2   force =     0.00000896    0.00000235    0.00000729
     atom   43 type  2   force =     0.00000383   -0.00000044   -0.00000642
     atom   44 type  2   force =     0.00000651    0.00000659    0.00000729
     atom   45 type  2   force =     0.00000154    0.00000354   -0.00000642
     atom   46 type  2   force =    -0.00000000    0.00000000    0.00000762
     atom   47 type  2   force =     0.00000000   -0.00000000   -0.00000720
     atom   48 type  2   force =    -0.00000896    0.00000235    0.00000729
     atom   49 type  2   force =    -0.00000383   -0.00000044   -0.00000642
     atom   50 type  2   force =     0.00000000   -0.00000000    0.00000857
     atom   51 type  2   force =     0.00000000   -0.00000000   -0.00000614
     atom   52 type  2   force =    -0.00000245   -0.00000894    0.00000729
     atom   53 type  2   force =    -0.00000229   -0.00000310   -0.00000642
     atom   54 type  2   force =    -0.00000423    0.00000244   -0.00000497
     atom   55 type  2   force =    -0.00000688    0.00000397    0.00000262
     atom   56 type  2   force =     0.00000091    0.00000053   -0.00000152
     atom   57 type  2   force =     0.00000026    0.00000015   -0.00000004
     atom   58 type  2   force =    -0.00000000   -0.00000488   -0.00000497
     atom   59 type  2   force =     0.00000000   -0.00000794    0.00000262
     atom   60 type  2   force =     0.00000423    0.00000244   -0.00000497
     atom   61 type  2   force =     0.00000688    0.00000397    0.00000262
     atom   62 type  2   force =     0.00000000    0.00000488   -0.00000240
     atom   63 type  2   force =     0.00000000    0.00000237    0.00000153
     atom   64 type  2   force =     0.00000423   -0.00000244   -0.00000240
     atom   65 type  2   force =     0.00000205   -0.00000118    0.00000153
     atom   66 type  2   force =     0.00000000   -0.00000106   -0.00000152
     atom   67 type  2   force =     0.00000000   -0.00000030   -0.00000004
     atom   68 type  2   force =    -0.00000091    0.00000053   -0.00000152
     atom   69 type  2   force =    -0.00000026    0.00000015   -0.00000004
     atom   70 type  2   force =    -0.00000423   -0.00000244   -0.00000240
     atom   71 type  2   force =    -0.00000205   -0.00000118    0.00000153

     Total force =     0.002258     Total SCF correction =     0.000087


     Computing stress (Cartesian axis) and pressure



     -----------------------------------------------
     Non-local corr. energy    =      19.55961489 Ry
     -----------------------------------------------

          total   stress  (Ry/bohr**3)                   (kbar)     P=      -43.05
  -0.00029692  -0.00000000   0.00000000          -43.68       -0.00        0.00
   0.00000000  -0.00029692   0.00000000            0.00      -43.68        0.00
   0.00000000   0.00000000  -0.00028414            0.00        0.00      -41.80

     kinetic stress (kbar)  18144.34     -0.00      0.00
                               -0.00  18144.34     -0.00
                                0.00     -0.00  18139.04

     local   stress (kbar)   4865.62     -0.07      0.00
                               -0.07   4865.52      0.01
                                0.00      0.01   3466.71

     nonloc. stress (kbar)    134.97     -0.00      0.00
                               -0.00    134.97     -0.00
                                0.00     -0.00    145.39

     hartree stress (kbar)  19832.17     -0.00     -0.00
                               -0.00  19832.17      0.00
                               -0.00      0.00  20465.81

     exc-cor stress (kbar)   5260.35      0.00     -0.00
                                0.00   5260.35      0.00
                               -0.00      0.00   5260.50

     corecor stress (kbar) -14092.23     -0.00     -0.00
                               -0.00 -14092.23     -0.00
                               -0.00     -0.00 -14091.71

     ewald   stress (kbar) -34350.53      0.09     -0.00
                                0.09 -34350.41      0.00
                               -0.00      0.00 -33588.34

     hubbard stress (kbar)      0.00      0.00      0.00
                                0.00      0.00      0.00
                                0.00      0.00      0.00

     DFT-D   stress (kbar)      0.00      0.00      0.00
                                0.00      0.00      0.00
                                0.00      0.00      0.00

     XDM     stress (kbar)      0.00      0.00      0.00
                                0.00      0.00      0.00
                                0.00      0.00      0.00

     dft-nl  stress (kbar)    161.62     -0.00     -0.00
                               -0.00    161.62     -0.00
                               -0.00     -0.00    160.81

     TS-vdW  stress (kbar)      0.00      0.00      0.00
                                0.00      0.00      0.00
                                0.00      0.00      0.00

     MDB     stress (kbar)      0.00      0.00      0.00
                                0.00      0.00      0.00
                                0.00      0.00      0.00

     3D-RISM stress (kbar)      0.00      0.00      0.00
                                0.00      0.00      0.00
                                0.00      0.00      0.00

     Energy error            =      2.3E-05 Ry
     Gradient error          =      9.3E-04 Ry/Bohr

     bfgs converged in  18 scf cycles and  17 bfgs steps
     (criteria: energy <  1.0E-04 Ry, force <  1.0E-03 Ry/Bohr)

     End of BFGS Geometry Optimization

     Final energy             =  -11214.7453471440 Ry

     File ./GaN.bfgs deleted, as requested
Begin final coordinates

ATOMIC_POSITIONS (angstrom)
Ga            1.6222756606        0.9366198184        2.4096687653
Ga            1.6222756606        0.9366198184        7.9288343337
Ga            0.0024101126        3.7615763294        2.6220834494
Ga            0.0040298531        3.7684005890        7.9459337493
Ga           -1.6079956361        6.5508809068        2.6220834494
Ga           -1.6012757836        6.5488715134        7.9459337493
Ga            4.8786925377        0.9269862783        2.6220834494
Ga            4.8837926496        0.9221714120        7.9459337493
Ga            3.2421412086        3.7615763294        2.6220834494
Ga            3.2405214681        3.7684005890        7.9459337493
Ga            1.6222756606        6.5563425246        2.6350548014
Ga            1.6222756606        6.5563425246        7.9413162155
Ga            8.0995040347        0.9269862783        2.6220834494
Ga            8.0944039228        0.9221714120        7.9459337493
Ga            6.4890982862        3.7464811715        2.6321266540
Ga            6.4890982862        3.7464811715        7.9420697948
Ga            4.8525469572        6.5508809068        2.6220834494
Ga            4.8458271048        6.5488715134        7.9459337493
Ga           -0.1367912031        1.9522177501        5.3442281036
Ga           -0.0127279437        1.8805897938       10.5371718986
Ga           -1.6325516964        4.6771712236        5.2987677412
Ga           -1.6275365458        4.6800667221       10.5733548533
Ga           -3.2445503819        7.3350145456        5.3442281036
Ga           -3.2445503819        7.4782704580       10.5371718986
Ga            3.3813356906        1.9522177501        5.3442281036
Ga            3.2572724312        1.8805897938       10.5371718986
Ga            1.6222722437        4.6974913136        5.3045345371
Ga            1.6222722437        4.6889341999       10.5736260182
Ga            0.0124579878        7.4857713957        5.3045345371
Ga            0.0050473099        7.4900499526       10.5736260182
Ga            6.4890948693        1.8851075985        5.2987677412
Ga            6.4890948693        1.8793166015       10.5733548533
Ga            4.8770961839        4.6771712236        5.2987677412
Ga            4.8720810333        4.6800667221       10.5733548533
Ga            3.2320864997        7.4857713957        5.3045345371
Ga            3.2394971776        7.4900499526       10.5736260182
N             1.6222756606        0.9366198184        9.9200055375
N             0.0120231019        3.7478341432        4.6220835920
N            -0.0007473470        3.7505348563        9.9239069345
N            -1.6150902237        6.5660770929        4.6220835920
N            -1.6191365620        6.5536672031        9.9239069345
N             4.8619849607        0.9255322784        4.6220835920
N             4.8707090713        0.9352414550        9.9239069345
N             3.2325282193        3.7478341432        4.6220835920
N             3.2452986682        3.7505348563        9.9239069345
N             1.6222756606        6.5563425246        4.6305022865
N             1.6222756606        6.5563425246        9.9225503131
N             8.1162116117        0.9255322784        4.6220835920
N             8.1074875011        0.9352414550        9.9239069345
N             6.4890982862        3.7464811715        4.6297385960
N             6.4890982862        3.7464811715        9.9217343293
N             4.8596415449        6.5660770929        4.6220835920
N             4.8636878832        6.5536672031        9.9239069345
N            -0.0088982716        1.8783787316        1.9922261611
N            -0.0002889105        1.8734081147        7.2813871382
N            -1.6236202155        4.6823278165        1.9888631823
N            -1.6229013433        4.6827428575        7.2754874730
N            -3.2445503819        7.4826925824        1.9922261611
N            -3.2445503819        7.4926338163        7.2813871382
N             3.2534427591        1.8783787316        1.9922261611
N             3.2448333980        1.8734081147        7.2813871382
N             1.6222722437        4.6840886379        1.9873233894
N             1.6222722437        4.6851923608        7.2809208294
N             0.0008509301        7.4924727336        1.9873233894
N             0.0018067823        7.4919208721        7.2809208294
N             6.4890948693        1.8747944127        1.9888631823
N             6.4890948693        1.8739643306        7.2754874730
N             4.8681647030        4.6823278165        1.9888631823
N             4.8674458308        4.6827428575        7.2754874730
N             3.2436935574        7.4924727336        1.9873233894
N             3.2427377052        7.4919208721        7.2809208294
End final coordinates



     Writing all to output data dir ./GaN.save/
 
     init_run     :      8.08s CPU      8.62s WALL (       1 calls)
     electrons    :    425.50s CPU    433.47s WALL (       2 calls)
     update_pot   :      1.22s CPU      1.23s WALL (       1 calls)
     forces       :      4.99s CPU      5.02s WALL (       2 calls)
     stress       :     72.87s CPU     73.26s WALL (       2 calls)

     Called by init_run:
     wfcinit      :      5.23s CPU      5.35s WALL (       1 calls)
     wfcinit:atom :      0.02s CPU      0.02s WALL (       2 calls)
     wfcinit:wfcr :      4.80s CPU      4.86s WALL (       2 calls)
     potinit      :      1.80s CPU      2.13s WALL (       1 calls)
     hinit0       :      0.49s CPU      0.53s WALL (       1 calls)

     Called by electrons:
     c_bands      :    386.30s CPU    393.79s WALL (      15 calls)
     sum_band     :     25.37s CPU     25.57s WALL (      15 calls)
     v_of_rho     :      7.59s CPU      7.98s WALL (      16 calls)
     v_h          :      0.10s CPU      0.10s WALL (      16 calls)
     v_xc         :      9.13s CPU      9.53s WALL (      20 calls)
     newd         :      1.19s CPU      1.23s WALL (      16 calls)
     PAW_pot      :      7.04s CPU      7.08s WALL (      17 calls)
     mix_rho      :      0.25s CPU      0.26s WALL (      15 calls)
     vdW_kernel   :      0.93s CPU      1.19s WALL (       1 calls)

     Called by c_bands:
     init_us_2    :      1.28s CPU      1.31s WALL (      72 calls)
     init_us_2:cp :      1.28s CPU      1.31s WALL (      72 calls)
     cegterg      :    375.28s CPU    381.08s WALL (      30 calls)

     Called by sum_band:
     sum_band:wei :      0.01s CPU      0.02s WALL (      15 calls)
     sum_band:loo :     22.11s CPU     22.27s WALL (      15 calls)
     sum_band:buf :      0.41s CPU      0.42s WALL (      30 calls)
     sum_band:ini :      0.56s CPU      0.57s WALL (      30 calls)
     sum_band:cal :      5.06s CPU      5.09s WALL (      32 calls)
     sum_band:bec :      0.09s CPU      0.10s WALL (      32 calls)
     addusdens    :      1.52s CPU      1.54s WALL (      15 calls)
     addusd:skk   :      0.09s CPU      0.09s WALL (      30 calls)
     addusd:dgemm :      0.73s CPU      0.75s WALL (      30 calls)
     addusd:qvan2 :      0.29s CPU      0.29s WALL (      30 calls)

     Called by *egterg:
     cdiaghg      :    178.58s CPU    180.89s WALL (     269 calls)
     cegterg:over :     29.32s CPU     29.76s WALL (     243 calls)
     cegterg:upda :     13.75s CPU     14.17s WALL (     243 calls)
     cegterg:last :      7.82s CPU      7.87s WALL (      36 calls)
     h_psi        :    125.89s CPU    127.30s WALL (     275 calls)
     s_psi        :     13.54s CPU     13.60s WALL (     275 calls)
     g_psi        :      0.15s CPU      0.16s WALL (     243 calls)

     Called by h_psi:
     h_psi:calbec :     17.01s CPU     17.09s WALL (     275 calls)
     vloc_psi     :     94.60s CPU     95.42s WALL (     275 calls)
     add_vuspsi   :     13.67s CPU     13.76s WALL (     275 calls)

     General routines
     calbec       :     34.26s CPU     34.41s WALL (     327 calls)
     fft          :      4.60s CPU      4.66s WALL (    1344 calls)
     ffts         :      0.14s CPU      0.14s WALL (      31 calls)
     fftw         :    106.99s CPU    107.84s WALL (   83142 calls)
     interpolate  :      0.15s CPU      0.15s WALL (      16 calls)
 
     Parallel routines

     PAW routines
     PAW_pot      :      7.04s CPU      7.08s WALL (      17 calls)
     PAW_symme    :      0.02s CPU      0.02s WALL (      31 calls)
 
     PWSCF        :   8m35.00s CPU   8m45.86s WALL

 
   This run was terminated on:  13:38:19  23Mar2024            

=------------------------------------------------------------------------------=
   JOB DONE.
=------------------------------------------------------------------------------=
