
     Program PWSCF v.7.1 starts on 23Mar2024 at 13:53:30 

     This program is part of the open-source Quantum ESPRESSO suite
     for quantum simulation of materials; please cite
         "P. Giannozzi et al., J. Phys.:Condens. Matter 21 395502 (2009);
         "P. Giannozzi et al., J. Phys.:Condens. Matter 29 465901 (2017);
         "P. Giannozzi et al., J. Chem. Phys. 152 154105 (2020);
          URL http://www.quantum-espresso.org", 
     in publications or presentations arising from this work. More details at
     http://www.quantum-espresso.org/quote

     Parallel version (MPI & OpenMP), running on      60 processor cores
     Number of MPI processes:                60
     Threads/MPI process:                     1

     MPI processes distributed on     2 nodes
     1972183 MiB available memory on the printing compute node when the environment starts
 
     Reading input from espresso.pwi
Warning: card &CELL ignored
Warning: card    CELL_DYNAMICS    = 'BFGS' ignored
Warning: card / ignored

     Current dimensions of program PWSCF are:
     Max number of different atomic species (ntypx) = 10
     Max number of k-points (npk) =  40000
     Max angular momentum in pseudopotentials (lmaxx) =  4
     file Ga.pbe-dn-kjpaw_psl.1.0.0.UPF: wavefunction(s)  4S renormalized
     file N.pbe-n-kjpaw_psl.1.0.0.UPF: wavefunction(s)  2S renormalized

     **************************************************************************
     Initializing libbeef V0.1.2 with the BEEF-vdW functional.
     Citation: Wellendorff et al., PRB 85, 235149 (2012).
     **************************************************************************


     IMPORTANT: XC functional enforced from input :
     Exchange-correlation= BEEF-VDW
                           (   1   4  43  14   2   0   0)
     Any further DFT definition will be discarded
     Please, verify this is what you really want

 
     K-points division:     npool     =       2
     R & G space division:  proc/nbgrp/npool/nimage =      30
     Subspace diagonalization in iterative solution of the eigenvalue problem:
     a serial algorithm will be used

 
     Parallelization info
     --------------------
     sticks:   dense  smooth     PW     G-vecs:    dense   smooth      PW
     Min         271     216     57                21575    15440    2109
     Max         272     217     58                21584    15447    2114
     Sum        8137    6505   1735               647327   463355   63361
 
     Using Slab Decomposition
 


     bravais-lattice index     =            4
     lattice parameter (alat)  =      18.3939  a.u.
     unit-cell volume          =    5856.2271 (a.u.)^3
     number of atoms/cell      =           71
     number of atomic types    =            2
     number of electrons       =       641.00
     number of Kohn-Sham states=          385
     kinetic-energy cutoff     =      70.0000  Ry
     charge density cutoff     =     350.0000  Ry
     scf convergence threshold =      1.0E-07
     mixing beta               =       0.7000
     number of iterations used =            8  plain     mixing
     Exchange-correlation= BEEF-VDW
                           (   1   4  43  14   2   0   0)

     celldm(1)=  18.393924  celldm(2)=   0.000000  celldm(3)=   1.086586
     celldm(4)=   0.000000  celldm(5)=   0.000000  celldm(6)=   0.000000

     crystal axes: (cart. coord. in units of alat)
               a(1) = (   1.000000   0.000000   0.000000 )  
               a(2) = (  -0.500000   0.866025   0.000000 )  
               a(3) = (   0.000000   0.000000   1.086586 )  

     reciprocal axes: (cart. coord. in units 2 pi/alat)
               b(1) = (  1.000000  0.577350 -0.000000 )  
               b(2) = (  0.000000  1.154701  0.000000 )  
               b(3) = (  0.000000 -0.000000  0.920314 )  


     PseudoPot. # 1 for Ga read from file:
     //group///packages/espresso/pseudo/psl_1.0.0/pslibrary.1.0.0/pbe/PSEUDOPOTENTIALS/Ga.pbe-dn-kjpaw_psl.1.0.0.UPF
     MD5 check sum: cd2a01e492f15b435d17032472d8505c
     Pseudo is Projector augmented-wave + core cor, Zval = 13.0
     Generated using 'atomic' code by A. Dal Corso  v.7.1
     Shape of augmentation charge: PSQ
     Using radial grid of 1205 points,  6 beta functions with: 
                l(1) =   0
                l(2) =   0
                l(3) =   1
                l(4) =   1
                l(5) =   2
                l(6) =   2
     Q(r) pseudized with 0 coefficients 


     PseudoPot. # 2 for N  read from file:
     //group///packages/espresso/pseudo/psl_1.0.0/pslibrary.1.0.0/pbe/PSEUDOPOTENTIALS/N.pbe-n-kjpaw_psl.1.0.0.UPF
     MD5 check sum: f77f775694dac7e2c3fe1c82443d1a16
     Pseudo is Projector augmented-wave + core cor, Zval =  5.0
     Generated using 'atomic' code by A. Dal Corso  v.7.1
     Shape of augmentation charge: PSQ
     Using radial grid of 1085 points,  4 beta functions with: 
                l(1) =   0
                l(2) =   0
                l(3) =   1
                l(4) =   1
     Q(r) pseudized with 0 coefficients 


     atomic species   valence    mass     pseudopotential
        Ga            13.00    69.72300     Ga( 1.00)
        N              5.00    14.00700     N ( 1.00)

      6 Sym. Ops. (no inversion) found ( 4 have fractional translation)


                                    s                        frac. trans.

      isym =  1     identity                                     

 cryst.   s( 1) = (     1          0          0      )
                  (     0          1          0      )
                  (     0          0          1      )

 cart.    s( 1) = (  1.0000000  0.0000000  0.0000000 )
                  (  0.0000000  1.0000000  0.0000000 )
                  (  0.0000000  0.0000000  1.0000000 )


      isym =  2     120 deg rotation - cryst. axis [0,0,1]       

 cryst.   s( 2) = (     0          1          0      )    f =( -0.3333334 )
                  (    -1         -1          0      )       (  0.0000003 )
                  (     0          0          1      )       (  0.0000000 )

 cart.    s( 2) = ( -0.5000000 -0.8660254  0.0000000 )    f =( -0.3333335 )
                  (  0.8660254 -0.5000000  0.0000000 )       (  0.0000002 )
                  (  0.0000000  0.0000000  1.0000000 )       (  0.0000000 )


      isym =  3     120 deg rotation - cryst. axis [0,0,-1]      

 cryst.   s( 3) = (    -1         -1          0      )    f =( -0.3333336 )
                  (     1          0          0      )       ( -0.3333334 )
                  (     0          0          1      )       (  0.0000000 )

 cart.    s( 3) = ( -0.5000000  0.8660254  0.0000000 )    f =( -0.1666669 )
                  ( -0.8660254 -0.5000000  0.0000000 )       ( -0.2886752 )
                  (  0.0000000  0.0000000  1.0000000 )       (  0.0000000 )


      isym =  4     inv. 180 deg rotation - cart. axis [1,0,0]   

 cryst.   s( 4) = (    -1          0          0      )    f =( -0.3333336 )
                  (     1          1          0      )       (  0.0000000 )
                  (     0          0          1      )       (  0.0000000 )

 cart.    s( 4) = ( -1.0000000  0.0000000  0.0000000 )    f =( -0.3333336 )
                  (  0.0000000  1.0000000  0.0000000 )       (  0.0000000 )
                  (  0.0000000  0.0000000  1.0000000 )       (  0.0000000 )


      isym =  5     inv. 180 deg rotation - cryst. axis [0,1,0]  

 cryst.   s( 5) = (     1          1          0      )
                  (     0         -1          0      )
                  (     0          0          1      )

 cart.    s( 5) = (  0.5000000  0.8660254  0.0000000 )
                  (  0.8660254 -0.5000000  0.0000000 )
                  (  0.0000000  0.0000000  1.0000000 )


      isym =  6     inv. 180 deg rotation - cryst. axis [1,1,0]  

 cryst.   s( 6) = (     0         -1          0      )    f =( -0.3333334 )
                  (    -1          0          0      )       ( -0.3333334 )
                  (     0          0          1      )       (  0.0000000 )

 cart.    s( 6) = (  0.5000000 -0.8660254  0.0000000 )    f =( -0.1666667 )
                  ( -0.8660254 -0.5000000  0.0000000 )       ( -0.2886752 )
                  (  0.0000000  0.0000000  1.0000000 )       (  0.0000000 )


     point group C_3v (3m)  
     there are  3 classes
     the character table:

       E     2C3   3s_v 
A_1    1.00  1.00  1.00
A_2    1.00  1.00 -1.00
E      2.00 -1.00  0.00

     the symmetry operations in each class and the name of the first element:

     E        1
          identity                                               
     2C3      2    3
          120 deg rotation - cryst. axis [0,0,1]                 
     3s_v     4    5    6
          inv. 180 deg rotation - cart. axis [1,0,0]             

   Cartesian axes

     site n.     atom                  positions (alat units)
         1           Ga  tau(   1) = (   0.1666668   0.0962250   0.2711914  )
         2           Ga  tau(   2) = (   0.1666668   0.0962250   0.8144844  )
         3           Ga  tau(   3) = (   0.0000001   0.3849001   0.2711914  )
         4           Ga  tau(   4) = (   0.0000001   0.3849001   0.8144844  )
         5           Ga  tau(   5) = (  -0.1666665   0.6735752   0.2711914  )
         6           Ga  tau(   6) = (  -0.1666665   0.6735752   0.8144844  )
         7           Ga  tau(   7) = (   0.5000001   0.0962250   0.2711914  )
         8           Ga  tau(   8) = (   0.5000001   0.0962250   0.8144844  )
         9           Ga  tau(   9) = (   0.3333335   0.3849001   0.2711914  )
        10           Ga  tau(  10) = (   0.3333335   0.3849001   0.8144844  )
        11           Ga  tau(  11) = (   0.1666668   0.6735752   0.2711914  )
        12           Ga  tau(  12) = (   0.1666668   0.6735752   0.8144844  )
        13           Ga  tau(  13) = (   0.8333335   0.0962250   0.2711914  )
        14           Ga  tau(  14) = (   0.8333335   0.0962250   0.8144844  )
        15           Ga  tau(  15) = (   0.6666668   0.3849001   0.2711914  )
        16           Ga  tau(  16) = (   0.6666668   0.3849001   0.8144844  )
        17           Ga  tau(  17) = (   0.5000001   0.6735752   0.2711914  )
        18           Ga  tau(  18) = (   0.5000001   0.6735752   0.8144844  )
        19           Ga  tau(  19) = (  -0.0000002   0.1924502   0.5428379  )
        20           Ga  tau(  20) = (  -0.0000002   0.1924502   1.0861309  )
        21           Ga  tau(  21) = (  -0.1666669   0.4811254   0.5428379  )
        22           Ga  tau(  22) = (  -0.1666669   0.4811254   1.0861309  )
        23           Ga  tau(  23) = (  -0.3333335   0.7698005   0.5428379  )
        24           Ga  tau(  24) = (  -0.3333335   0.7698005   1.0861309  )
        25           Ga  tau(  25) = (   0.3333331   0.1924502   0.5428379  )
        26           Ga  tau(  26) = (   0.3333331   0.1924502   1.0861309  )
        27           Ga  tau(  27) = (   0.1666665   0.4811254   0.5428379  )
        28           Ga  tau(  28) = (   0.1666665   0.4811254   1.0861309  )
        29           Ga  tau(  29) = (  -0.0000002   0.7698005   0.5428379  )
        30           Ga  tau(  30) = (  -0.0000002   0.7698005   1.0861309  )
        31           Ga  tau(  31) = (   0.6666665   0.1924502   0.5428379  )
        32           Ga  tau(  32) = (   0.6666665   0.1924502   1.0861309  )
        33           Ga  tau(  33) = (   0.4999998   0.4811254   0.5428379  )
        34           Ga  tau(  34) = (   0.4999998   0.4811254   1.0861309  )
        35           Ga  tau(  35) = (   0.3333331   0.7698005   0.5428379  )
        36           Ga  tau(  36) = (   0.3333331   0.7698005   1.0861309  )
        37           N   tau(  37) = (   0.1666668   0.0962250   1.0191295  )
        38           N   tau(  38) = (   0.0000001   0.3849001   0.4758365  )
        39           N   tau(  39) = (   0.0000001   0.3849001   1.0191295  )
        40           N   tau(  40) = (  -0.1666665   0.6735752   0.4758365  )
        41           N   tau(  41) = (  -0.1666665   0.6735752   1.0191295  )
        42           N   tau(  42) = (   0.5000001   0.0962250   0.4758365  )
        43           N   tau(  43) = (   0.5000001   0.0962250   1.0191295  )
        44           N   tau(  44) = (   0.3333335   0.3849001   0.4758365  )
        45           N   tau(  45) = (   0.3333335   0.3849001   1.0191295  )
        46           N   tau(  46) = (   0.1666668   0.6735752   0.4758365  )
        47           N   tau(  47) = (   0.1666668   0.6735752   1.0191295  )
        48           N   tau(  48) = (   0.8333335   0.0962250   0.4758365  )
        49           N   tau(  49) = (   0.8333335   0.0962250   1.0191295  )
        50           N   tau(  50) = (   0.6666668   0.3849001   0.4758365  )
        51           N   tau(  51) = (   0.6666668   0.3849001   1.0191295  )
        52           N   tau(  52) = (   0.5000001   0.6735752   0.4758365  )
        53           N   tau(  53) = (   0.5000001   0.6735752   1.0191295  )
        54           N   tau(  54) = (  -0.0000002   0.1924502   0.2041900  )
        55           N   tau(  55) = (  -0.0000002   0.1924502   0.7474830  )
        56           N   tau(  56) = (  -0.1666669   0.4811254   0.2041900  )
        57           N   tau(  57) = (  -0.1666669   0.4811254   0.7474830  )
        58           N   tau(  58) = (  -0.3333335   0.7698005   0.2041900  )
        59           N   tau(  59) = (  -0.3333335   0.7698005   0.7474830  )
        60           N   tau(  60) = (   0.3333331   0.1924502   0.2041900  )
        61           N   tau(  61) = (   0.3333331   0.1924502   0.7474830  )
        62           N   tau(  62) = (   0.1666665   0.4811254   0.2041900  )
        63           N   tau(  63) = (   0.1666665   0.4811254   0.7474830  )
        64           N   tau(  64) = (  -0.0000002   0.7698005   0.2041900  )
        65           N   tau(  65) = (  -0.0000002   0.7698005   0.7474830  )
        66           N   tau(  66) = (   0.6666665   0.1924502   0.2041900  )
        67           N   tau(  67) = (   0.6666665   0.1924502   0.7474830  )
        68           N   tau(  68) = (   0.4999998   0.4811254   0.2041900  )
        69           N   tau(  69) = (   0.4999998   0.4811254   0.7474830  )
        70           N   tau(  70) = (   0.3333331   0.7698005   0.2041900  )
        71           N   tau(  71) = (   0.3333331   0.7698005   0.7474830  )

   Crystallographic axes

     site n.     atom                  positions (cryst. coord.)
         1           Ga  tau(   1) = (  0.2222223  0.1111110  0.2495811  )
         2           Ga  tau(   2) = (  0.2222223  0.1111110  0.7495811  )
         3           Ga  tau(   3) = (  0.2222223  0.4444444  0.2495811  )
         4           Ga  tau(   4) = (  0.2222223  0.4444444  0.7495811  )
         5           Ga  tau(   5) = (  0.2222223  0.7777777  0.2495811  )
         6           Ga  tau(   6) = (  0.2222223  0.7777777  0.7495811  )
         7           Ga  tau(   7) = (  0.5555557  0.1111110  0.2495811  )
         8           Ga  tau(   8) = (  0.5555557  0.1111110  0.7495811  )
         9           Ga  tau(   9) = (  0.5555557  0.4444444  0.2495811  )
        10           Ga  tau(  10) = (  0.5555557  0.4444444  0.7495811  )
        11           Ga  tau(  11) = (  0.5555557  0.7777777  0.2495811  )
        12           Ga  tau(  12) = (  0.5555557  0.7777777  0.7495811  )
        13           Ga  tau(  13) = (  0.8888890  0.1111110  0.2495811  )
        14           Ga  tau(  14) = (  0.8888890  0.1111110  0.7495811  )
        15           Ga  tau(  15) = (  0.8888890  0.4444444  0.2495811  )
        16           Ga  tau(  16) = (  0.8888890  0.4444444  0.7495811  )
        17           Ga  tau(  17) = (  0.8888890  0.7777777  0.2495811  )
        18           Ga  tau(  18) = (  0.8888890  0.7777777  0.7495811  )
        19           Ga  tau(  19) = (  0.1111110  0.2222224  0.4995811  )
        20           Ga  tau(  20) = (  0.1111110  0.2222224  0.9995811  )
        21           Ga  tau(  21) = (  0.1111110  0.5555557  0.4995811  )
        22           Ga  tau(  22) = (  0.1111110  0.5555557  0.9995811  )
        23           Ga  tau(  23) = (  0.1111110  0.8888891  0.4995811  )
        24           Ga  tau(  24) = (  0.1111110  0.8888891  0.9995811  )
        25           Ga  tau(  25) = (  0.4444443  0.2222224  0.4995811  )
        26           Ga  tau(  26) = (  0.4444443  0.2222224  0.9995811  )
        27           Ga  tau(  27) = (  0.4444443  0.5555557  0.4995811  )
        28           Ga  tau(  28) = (  0.4444443  0.5555557  0.9995811  )
        29           Ga  tau(  29) = (  0.4444443  0.8888891  0.4995811  )
        30           Ga  tau(  30) = (  0.4444443  0.8888891  0.9995811  )
        31           Ga  tau(  31) = (  0.7777777  0.2222224  0.4995811  )
        32           Ga  tau(  32) = (  0.7777777  0.2222224  0.9995811  )
        33           Ga  tau(  33) = (  0.7777777  0.5555557  0.4995811  )
        34           Ga  tau(  34) = (  0.7777777  0.5555557  0.9995811  )
        35           Ga  tau(  35) = (  0.7777777  0.8888891  0.4995811  )
        36           Ga  tau(  36) = (  0.7777777  0.8888891  0.9995811  )
        37           N   tau(  37) = (  0.2222223  0.1111110  0.9379189  )
        38           N   tau(  38) = (  0.2222223  0.4444444  0.4379189  )
        39           N   tau(  39) = (  0.2222223  0.4444444  0.9379189  )
        40           N   tau(  40) = (  0.2222223  0.7777777  0.4379189  )
        41           N   tau(  41) = (  0.2222223  0.7777777  0.9379189  )
        42           N   tau(  42) = (  0.5555557  0.1111110  0.4379189  )
        43           N   tau(  43) = (  0.5555557  0.1111110  0.9379189  )
        44           N   tau(  44) = (  0.5555557  0.4444444  0.4379189  )
        45           N   tau(  45) = (  0.5555557  0.4444444  0.9379189  )
        46           N   tau(  46) = (  0.5555557  0.7777777  0.4379189  )
        47           N   tau(  47) = (  0.5555557  0.7777777  0.9379189  )
        48           N   tau(  48) = (  0.8888890  0.1111110  0.4379189  )
        49           N   tau(  49) = (  0.8888890  0.1111110  0.9379189  )
        50           N   tau(  50) = (  0.8888890  0.4444444  0.4379189  )
        51           N   tau(  51) = (  0.8888890  0.4444444  0.9379189  )
        52           N   tau(  52) = (  0.8888890  0.7777777  0.4379189  )
        53           N   tau(  53) = (  0.8888890  0.7777777  0.9379189  )
        54           N   tau(  54) = (  0.1111110  0.2222224  0.1879189  )
        55           N   tau(  55) = (  0.1111110  0.2222224  0.6879189  )
        56           N   tau(  56) = (  0.1111110  0.5555557  0.1879189  )
        57           N   tau(  57) = (  0.1111110  0.5555557  0.6879189  )
        58           N   tau(  58) = (  0.1111110  0.8888891  0.1879189  )
        59           N   tau(  59) = (  0.1111110  0.8888891  0.6879189  )
        60           N   tau(  60) = (  0.4444443  0.2222224  0.1879189  )
        61           N   tau(  61) = (  0.4444443  0.2222224  0.6879189  )
        62           N   tau(  62) = (  0.4444443  0.5555557  0.1879189  )
        63           N   tau(  63) = (  0.4444443  0.5555557  0.6879189  )
        64           N   tau(  64) = (  0.4444443  0.8888891  0.1879189  )
        65           N   tau(  65) = (  0.4444443  0.8888891  0.6879189  )
        66           N   tau(  66) = (  0.7777777  0.2222224  0.1879189  )
        67           N   tau(  67) = (  0.7777777  0.2222224  0.6879189  )
        68           N   tau(  68) = (  0.7777777  0.5555557  0.1879189  )
        69           N   tau(  69) = (  0.7777777  0.5555557  0.6879189  )
        70           N   tau(  70) = (  0.7777777  0.8888891  0.1879189  )
        71           N   tau(  71) = (  0.7777777  0.8888891  0.6879189  )

     number of k points=     4  Gaussian smearing, width (Ry)=  0.0100
                       cart. coord. in units 2pi/alat
        k(    1) = (   0.0000000   0.0000000   0.0000000), wk =   0.2500000
        k(    2) = (   0.0000000   0.0000000  -0.4601568), wk =   0.2500000
        k(    3) = (   0.0000000  -0.5773503   0.0000000), wk =   0.7500000
        k(    4) = (   0.0000000  -0.5773503  -0.4601568), wk =   0.7500000

                       cryst. coord.
        k(    1) = (   0.0000000   0.0000000   0.0000000), wk =   0.2500000
        k(    2) = (   0.0000000   0.0000000  -0.5000000), wk =   0.2500000
        k(    3) = (   0.0000000  -0.5000000   0.0000000), wk =   0.7500000
        k(    4) = (   0.0000000  -0.5000000  -0.5000000), wk =   0.7500000

     Dense  grid:   647327 G-vectors     FFT dimensions: ( 120, 120, 120)

     Smooth grid:   463355 G-vectors     FFT dimensions: ( 108, 108, 108)

     Dynamical RAM for                 wfc:      11.34 MB

     Dynamical RAM for     wfc (w. buffer):      34.01 MB

     Dynamical RAM for           str. fact:       0.66 MB

     Dynamical RAM for           local pot:       0.00 MB

     Dynamical RAM for          nlocal pot:      27.33 MB

     Dynamical RAM for                qrad:       3.00 MB

     Dynamical RAM for          rho,v,vnew:       2.31 MB

     Dynamical RAM for               rhoin:       0.77 MB

     Dynamical RAM for            rho*nmix:       5.27 MB

     Dynamical RAM for           G-vectors:       1.35 MB

     Dynamical RAM for          h,s,v(r/c):     108.56 MB

     Dynamical RAM for          <psi|beta>:       5.45 MB

     Dynamical RAM for                 psi:      45.35 MB

     Dynamical RAM for                hpsi:      45.35 MB

     Dynamical RAM for                spsi:      45.35 MB

     Dynamical RAM for      wfcinit/wfcrot:      26.07 MB

     Dynamical RAM for           addusdens:      36.71 MB

     Dynamical RAM for          addusforce:      48.37 MB

     Dynamical RAM for         addusstress:      33.17 MB

     Estimated static dynamical RAM per process >      72.62 MB

     Estimated max dynamical RAM per process >     327.96 MB

     Estimated total dynamical RAM >      19.06 GB

     Atomic positions and unit cell read from directory:
     ./GaN.save/
     Atomic positions from file used, from input discarded
 

     Check: negative core charge=   -0.000003

     The initial density is read from file :
     ./GaN.save/charge-density



     %%%%%%%%%%%%%%%%%%%%%%%%%%%%%%%%%%%%%%%%%%%%%%%%%%%%%%%%%%%%%%%%%%%%%%%%
     %                                                                      %
     % You are using vdW-DF, which was implemented by the Thonhauser group. %
     % Please cite the following two papers that made this development      %
     % possible and the two reviews that describe the various versions:     %
     %                                                                      %
     %   T. Thonhauser et al., PRL 115, 136402 (2015).                      %
     %   T. Thonhauser et al., PRB 76, 125112 (2007).                       %
     %   K. Berland et al., Rep. Prog. Phys. 78, 066501 (2015).             %
     %   D.C. Langreth et al., J. Phys.: Condens. Matter 21, 084203 (2009). %
     %                                                                      %
     % If you are calculating stress with vdW-DF, please also cite:         %
     %                                                                      %
     %   R. Sabatini et al., J. Phys.: Condens. Matter 24, 424209 (2012).   %
     %                                                                      %
     %%%%%%%%%%%%%%%%%%%%%%%%%%%%%%%%%%%%%%%%%%%%%%%%%%%%%%%%%%%%%%%%%%%%%%%%

     %%%%%%%%%%%%%%%%%%%%%%%%%%%%%%%%%%%%%%%%%%%%%%%%%%%%%%%%%%%%%%%%%%%%%%%%
     %                                                                      %
     %  vdW-DF NEWS:                                                        %
     %                                                                      %
     %  * vdW-DF3 is now available. DOI: 10.1021/acs.jctc.0c00471           %
     %    use with input_dft = 'vdW-DF3-opt1' or 'vdW-DF3-opt2'             %
     %                                                                      %
     %  * Unscreened and range-separated vdW-DF hybrid functionals          %
     %    DOI: 10.1063/1.4986522 and 10.1088/1361-648X/ac2ad2               %
     %    use with input_dft = 'vdW-DF-cx0' (etc) and 'vdW-DF-ahcx'         %
     %                                                                      %
     %%%%%%%%%%%%%%%%%%%%%%%%%%%%%%%%%%%%%%%%%%%%%%%%%%%%%%%%%%%%%%%%%%%%%%%%


     Carrying out vdW-DF run using the following parameters:
     Nqs    =  20  Npoints =  1024  r_max =  100.000
     q_mesh =  0.00001000  0.04494208  0.09755937  0.15916263
               0.23128650  0.31572767  0.41458969  0.53033537
               0.66584808  0.82450364  1.01025438  1.22772762
               1.48234092  1.78043706  2.12944203  2.53805004
               3.01644009  3.57652955  4.23227104  5.00000000


     -----------------------------------------------
     Non-local corr. energy    =      19.55961489 Ry
     -----------------------------------------------

     Starting wfcs from file
     Checking if some PAW data can be deallocated... 
       PAW data deallocated on   35 nodes for type:  1
       PAW data deallocated on   25 nodes for type:  2

     total cpu time spent up to now is        6.8 secs

     Self-consistent Calculation

     iteration #  1     ecut=    70.00 Ry     beta= 0.70
     Davidson diagonalization with overlap

---- Real-time Memory Report at c_bands before calling an iterative solver
           277 MiB given to the printing process from OS
             0 MiB allocation reported by mallinfo(arena+hblkhd)
       1969455 MiB available memory on the node where the printing process lives
------------------
     ethr =  1.00E-05,  avg # of iterations =  1.0

     Threshold (ethr) on eigenvalues was too large:
     Diagonalizing with lowered threshold

     Davidson diagonalization with overlap

---- Real-time Memory Report at c_bands before calling an iterative solver
           446 MiB given to the printing process from OS
             0 MiB allocation reported by mallinfo(arena+hblkhd)
       1968043 MiB available memory on the node where the printing process lives
------------------
     ethr =  3.43E-13,  avg # of iterations = 13.3


     -----------------------------------------------
     Non-local corr. energy    =      19.55961686 Ry
     -----------------------------------------------


     total cpu time spent up to now is       53.6 secs

     End of self-consistent calculation

          k = 0.0000 0.0000 0.0000 ( 57971 PWs)   bands (ev):

    -7.0049  -6.7332  -6.7238  -6.7197  -6.7196  -6.7054  -6.7054  -6.6413
    -6.6413  -6.6377  -6.6190  -6.6190  -6.5895  -6.5114  -6.4720  -6.4571
    -6.4384  -6.4384  -6.4277  -6.3943  -6.3906  -6.3905  -6.3772  -6.3663
    -6.3662  -6.3598  -6.3520  -6.3520  -6.3399  -6.3399  -6.3241  -6.3241
    -6.3204  -6.2915  -6.2726  -5.7933  -5.7847  -5.7847  -5.7784  -5.7784
    -5.7754  -5.7570  -5.7570  -5.7568  -5.7490  -5.7490  -5.7331  -5.5749
    -5.5702  -5.5701  -5.5355  -5.5355  -5.5232  -5.5118  -5.5118  -5.3559
    -5.3559  -5.3236  -5.3152  -5.3048  -5.3048  -5.2986  -5.2875  -5.2875
    -5.2811  -5.2811  -5.2674  -5.2674  -5.2576  -5.2576  -5.2517  -5.2506
    -5.2456  -5.2456  -5.2412  -5.2318  -5.2318  -5.2198  -5.2197  -5.2144
    -5.2144  -5.2107  -5.2107  -5.2009  -5.2000  -5.1983  -5.1983  -5.1902
    -5.1902  -5.1844  -5.1844  -5.1801  -5.1756  -5.1756  -5.1745  -5.1666
    -5.1656  -5.1656  -5.1628  -5.1610  -5.1598  -5.1541  -5.1541  -5.1496
    -5.1390  -5.1390  -5.1373  -5.1373  -5.1311  -5.1279  -5.1279  -5.1276
    -5.1176  -5.1176  -5.1156  -5.1137  -5.1137  -5.1110  -5.1110  -5.1085
    -5.1071  -5.1027  -5.1027  -5.0989  -5.0911  -5.0911  -5.0846  -5.0846
    -5.0818  -5.0796  -5.0796  -5.0778  -5.0778  -5.0707  -5.0707  -5.0677
    -5.0657  -5.0629  -5.0605  -5.0605  -5.0505  -5.0499  -5.0499  -5.0471
    -5.0471  -5.0441  -5.0379  -5.0379  -5.0345  -5.0329  -5.0329  -5.0300
    -5.0261  -5.0155  -5.0153  -5.0153  -5.0123  -5.0123  -5.0033  -5.0033
    -4.9836  -4.9802  -4.9752  -4.9752  -4.9714  -4.9714  -4.9628  -4.9627
    -4.9620  -4.9608  -4.9608  -4.9525  -4.9525  -4.9445  -4.9445  -4.9382
    -4.9111  -4.9111  -4.9046  -4.9046  -4.9036  -4.8336  -4.7977  -4.5203
    -4.5203  -4.4710  -4.4710  -4.4152  -4.3591  -4.0001  -4.0001  -3.9576
    -3.9532  -3.9531  -3.9440  -3.9440  -3.8472  -3.8445  -3.8445  -3.8412
    -3.6467  -3.4933  -3.3314  -3.1794  -3.1794  -3.1093  -3.1093  -3.0915
    -3.0264  -3.0194  -3.0194  -3.0090  -2.9905  -2.9905  -2.9354   1.9996
     2.5304   2.7513   2.7993   2.7993   2.8073   2.9125   2.9125   2.9410
     2.9737   2.9737   3.0735   3.3450   3.3576   3.3577   3.3664   3.3664
     3.4159   3.4174   3.4174   3.4354   3.4354   3.4706   3.4760   3.4835
     3.5400   3.5400   3.9168   3.9169   4.0500   4.0995   4.0995   4.2559
     4.2625   4.2625   4.6406   4.8001   4.8001   4.8093   4.8093   4.8251
     4.8792   4.8792   4.9227   5.0812   5.1994   5.1994   5.8380   5.9265
     5.9265   6.0937   6.1589   6.1589   6.3623   6.4645   6.4646   6.4794
     6.5353   6.5363   6.5363   6.6771   6.6771   6.6969   6.6969   6.7497
     6.7587   6.7587   6.7780   6.7780   6.7999   7.0439   7.0667   7.0667
     7.0767   7.1154   7.1623   7.1623   7.1657   7.2105   7.2115   7.2115
     7.2603   7.2785   7.2785   7.3317   7.4693   7.4694   7.5111   7.5111
     7.5605   7.5606   7.5914   7.7658   7.7658   7.9181   8.0079   8.0112
     8.0112   8.0989   8.0990   8.1911   8.1911   8.5287   8.5555   8.6587
     8.6587  10.5928  11.5577  11.9819  11.9821  12.6420  12.6771  12.7874
    13.2532  13.3129  13.3129  13.3305  13.3306  13.3494  13.4927  13.4927
    13.5038  13.5212  13.5212  13.5522  13.5523  13.5721  13.6221  13.6221
    13.8379  14.1652  14.2168  14.2169  14.3066  14.3066  14.3227  14.4301
    14.4301  14.8106  14.8339  14.9234  14.9235  15.4052  15.4094  15.4094
    15.5789  15.5789  15.7828  15.9072  15.9191  15.9191  15.9585  16.0191
    16.0684  16.0895  16.0895  16.2082  16.2082  16.2181  16.2181  16.2380
    16.2380  16.2610  16.2780  16.2780  16.6469  16.6469  16.6766  16.7500
    16.9081

     occupation numbers 
     1.0000   1.0000   1.0000   1.0000   1.0000   1.0000   1.0000   1.0000
     1.0000   1.0000   1.0000   1.0000   1.0000   1.0000   1.0000   1.0000
     1.0000   1.0000   1.0000   1.0000   1.0000   1.0000   1.0000   1.0000
     1.0000   1.0000   1.0000   1.0000   1.0000   1.0000   1.0000   1.0000
     1.0000   1.0000   1.0000   1.0000   1.0000   1.0000   1.0000   1.0000
     1.0000   1.0000   1.0000   1.0000   1.0000   1.0000   1.0000   1.0000
     1.0000   1.0000   1.0000   1.0000   1.0000   1.0000   1.0000   1.0000
     1.0000   1.0000   1.0000   1.0000   1.0000   1.0000   1.0000   1.0000
     1.0000   1.0000   1.0000   1.0000   1.0000   1.0000   1.0000   1.0000
     1.0000   1.0000   1.0000   1.0000   1.0000   1.0000   1.0000   1.0000
     1.0000   1.0000   1.0000   1.0000   1.0000   1.0000   1.0000   1.0000
     1.0000   1.0000   1.0000   1.0000   1.0000   1.0000   1.0000   1.0000
     1.0000   1.0000   1.0000   1.0000   1.0000   1.0000   1.0000   1.0000
     1.0000   1.0000   1.0000   1.0000   1.0000   1.0000   1.0000   1.0000
     1.0000   1.0000   1.0000   1.0000   1.0000   1.0000   1.0000   1.0000
     1.0000   1.0000   1.0000   1.0000   1.0000   1.0000   1.0000   1.0000
     1.0000   1.0000   1.0000   1.0000   1.0000   1.0000   1.0000   1.0000
     1.0000   1.0000   1.0000   1.0000   1.0000   1.0000   1.0000   1.0000
     1.0000   1.0000   1.0000   1.0000   1.0000   1.0000   1.0000   1.0000
     1.0000   1.0000   1.0000   1.0000   1.0000   1.0000   1.0000   1.0000
     1.0000   1.0000   1.0000   1.0000   1.0000   1.0000   1.0000   1.0000
     1.0000   1.0000   1.0000   1.0000   1.0000   1.0000   1.0000   1.0000
     1.0000   1.0000   1.0000   1.0000   1.0000   1.0000   1.0000   1.0000
     1.0000   1.0000   1.0000   1.0000   1.0000   1.0000   1.0000   1.0000
     1.0000   1.0000   1.0000   1.0000   1.0000   1.0000   1.0000   1.0000
     1.0000   1.0000   1.0000   1.0000   1.0000   1.0000   1.0000   1.0000
     1.0000   1.0000   1.0000   1.0000   1.0000   1.0000   1.0000   1.0000
     1.0000   1.0000   1.0000   1.0000   1.0000   1.0000   1.0000   1.0000
     1.0000   1.0000   1.0000   1.0000   1.0000   1.0000   1.0000   1.0000
     1.0000   1.0000   1.0000   1.0000   1.0000   1.0000   1.0000   1.0000
     1.0000   1.0000   1.0000   1.0000   1.0000   1.0000   1.0000   1.0000
     1.0000   1.0000   1.0000   1.0000   1.0000   1.0000   1.0000   1.0000
     1.0000   1.0000   1.0000   1.0000   1.0000   1.0000   1.0000   1.0000
     1.0000   1.0000   1.0000   1.0000   1.0000   1.0000   1.0000   1.0000
     1.0000   1.0000   1.0000   1.0000   1.0000   1.0000   1.0000   1.0000
     1.0000   1.0000   1.0000   1.0000   1.0000   1.0000   1.0000   1.0000
     1.0000   1.0000   1.0000   1.0000   1.0000   1.0000   1.0000   1.0000
     1.0000   1.0000   1.0000   1.0000   1.0000   1.0000   1.0000   1.0000
     1.0000   1.0000   1.0000   1.0000   1.0000   1.0000   1.0000   1.0000
     1.0000   1.0000   1.0000   1.0000   1.0000   1.0000   1.0000   1.0000
     1.0000   0.0000   0.0000   0.0000   0.0000   0.0000   0.0000   0.0000
     0.0000   0.0000   0.0000   0.0000   0.0000   0.0000   0.0000   0.0000
     0.0000   0.0000   0.0000   0.0000   0.0000   0.0000   0.0000   0.0000
     0.0000   0.0000   0.0000   0.0000   0.0000   0.0000   0.0000   0.0000
     0.0000   0.0000   0.0000   0.0000   0.0000   0.0000   0.0000   0.0000
     0.0000   0.0000   0.0000   0.0000   0.0000   0.0000   0.0000   0.0000
     0.0000   0.0000   0.0000   0.0000   0.0000   0.0000   0.0000   0.0000
     0.0000   0.0000   0.0000   0.0000   0.0000   0.0000   0.0000   0.0000
     0.0000

          k = 0.0000 0.0000-0.4602 ( 58014 PWs)   bands (ev):

    -6.9315  -6.8482  -6.7073  -6.7072  -6.7018  -6.7017  -6.6964  -6.6436
    -6.6436  -6.6372  -6.6287  -6.6287  -6.5765  -6.5200  -6.4713  -6.4463
    -6.4297  -6.4297  -6.4270  -6.4030  -6.3868  -6.3868  -6.3813  -6.3812
    -6.3802  -6.3626  -6.3587  -6.3586  -6.3345  -6.3345  -6.3266  -6.3266
    -6.3212  -6.2900  -6.2736  -5.7915  -5.7840  -5.7840  -5.7783  -5.7783
    -5.7743  -5.7576  -5.7576  -5.7565  -5.7486  -5.7486  -5.7357  -5.5752
    -5.5704  -5.5704  -5.5354  -5.5354  -5.5233  -5.5122  -5.5122  -5.3558
    -5.3558  -5.3227  -5.3052  -5.3052  -5.2983  -5.2931  -5.2873  -5.2873
    -5.2793  -5.2793  -5.2658  -5.2658  -5.2609  -5.2609  -5.2600  -5.2488
    -5.2432  -5.2432  -5.2334  -5.2334  -5.2186  -5.2186  -5.2152  -5.2128
    -5.2128  -5.2091  -5.2091  -5.2052  -5.2052  -5.2021  -5.1994  -5.1978
    -5.1894  -5.1894  -5.1858  -5.1858  -5.1790  -5.1779  -5.1779  -5.1769
    -5.1670  -5.1629  -5.1629  -5.1565  -5.1546  -5.1546  -5.1523  -5.1469
    -5.1454  -5.1431  -5.1431  -5.1297  -5.1297  -5.1291  -5.1280  -5.1280
    -5.1259  -5.1259  -5.1242  -5.1227  -5.1188  -5.1188  -5.1079  -5.1072
    -5.1072  -5.1058  -5.1058  -5.1052  -5.0950  -5.0910  -5.0910  -5.0834
    -5.0834  -5.0790  -5.0786  -5.0757  -5.0756  -5.0712  -5.0712  -5.0663
    -5.0663  -5.0660  -5.0588  -5.0588  -5.0571  -5.0523  -5.0523  -5.0496
    -5.0496  -5.0433  -5.0425  -5.0373  -5.0372  -5.0351  -5.0335  -5.0335
    -5.0301  -5.0173  -5.0172  -5.0172  -5.0154  -5.0098  -5.0098  -5.0013
    -5.0013  -4.9844  -4.9792  -4.9759  -4.9759  -4.9724  -4.9724  -4.9645
    -4.9645  -4.9615  -4.9592  -4.9592  -4.9513  -4.9513  -4.9443  -4.9443
    -4.9384  -4.9124  -4.9124  -4.9053  -4.9053  -4.9039  -4.4442  -4.4441
    -4.3976  -4.3976  -4.3418  -4.3249  -4.3249  -4.3170  -4.2540  -4.2540
    -4.2399  -4.2277  -4.0153  -3.9269  -3.4787  -3.4786  -3.3654  -3.3654
    -3.3421  -3.3421  -3.3314  -3.3233  -3.2986  -3.2494  -3.2454  -3.2454
    -3.2102  -3.1179  -3.1179  -3.0786  -3.0786  -3.0264  -3.0137   2.3427
     2.8297   2.8734   2.8836   2.8836   2.9438   2.9438   2.9620   2.9829
     2.9829   3.0003   3.0003   3.0143   3.0216   3.0516   3.0876   3.0969
     3.1382   3.1382   3.1558   3.1559   3.2900   3.6037   3.9580   3.9580
     4.0700   4.0828   4.0828   4.1158   4.1217   4.1217   4.1403   4.1404
     4.1657   4.1658   4.2209   4.4622   4.4623   5.1581   5.1581   5.1840
     5.2275   5.2620   5.2620   5.2832   5.2832   5.3013   5.3172   5.3172
     5.6154   5.7243   5.7243   5.8253   5.8253   6.3746   6.5180   6.5180
     6.5659   6.6154   6.6154   6.6303   6.6319   6.6490   6.6490   6.6598
     6.6899   6.7164   6.7164   6.7307   6.7344   6.7344   6.8174   6.8810
     6.9966   6.9966   7.2569   7.4720   7.4720   7.5243   7.5324   7.5324
     7.5842   7.6001   7.6001   7.6174   7.6228   7.6228   7.6703   7.6755
     7.6755   7.6969   7.7174   7.7175   7.7271   7.7394   7.7395   7.8046
     7.8070   7.8070   7.8967   7.8967   8.3810   8.3811   8.5964   8.5965
     8.8150  11.0800  11.6418  11.9273  11.9274  12.2099  12.7516  12.7912
    12.8685  12.9731  12.9731  12.9881  12.9882  13.0088  13.0595  13.0595
    13.1494  13.2609  13.2609  13.8092  14.1526  14.1526  14.2886  14.3027
    14.3027  14.3520  14.3521  14.3646  14.4266  14.4267  14.5145  14.8501
    14.8501  15.0034  15.0034  15.2470  15.4377  15.4626  15.4972  15.4972
    15.5137  15.5303  15.5409  15.5409  15.6383  15.6383  15.6792  15.7344
    15.7344  15.7741  15.8200  15.8200  16.0890  16.0890  16.3600  16.4132
    16.5037  16.5472  16.5472  16.6071  16.6071  16.6516  16.7059  16.7059
    16.8072

     occupation numbers 
     1.0000   1.0000   1.0000   1.0000   1.0000   1.0000   1.0000   1.0000
     1.0000   1.0000   1.0000   1.0000   1.0000   1.0000   1.0000   1.0000
     1.0000   1.0000   1.0000   1.0000   1.0000   1.0000   1.0000   1.0000
     1.0000   1.0000   1.0000   1.0000   1.0000   1.0000   1.0000   1.0000
     1.0000   1.0000   1.0000   1.0000   1.0000   1.0000   1.0000   1.0000
     1.0000   1.0000   1.0000   1.0000   1.0000   1.0000   1.0000   1.0000
     1.0000   1.0000   1.0000   1.0000   1.0000   1.0000   1.0000   1.0000
     1.0000   1.0000   1.0000   1.0000   1.0000   1.0000   1.0000   1.0000
     1.0000   1.0000   1.0000   1.0000   1.0000   1.0000   1.0000   1.0000
     1.0000   1.0000   1.0000   1.0000   1.0000   1.0000   1.0000   1.0000
     1.0000   1.0000   1.0000   1.0000   1.0000   1.0000   1.0000   1.0000
     1.0000   1.0000   1.0000   1.0000   1.0000   1.0000   1.0000   1.0000
     1.0000   1.0000   1.0000   1.0000   1.0000   1.0000   1.0000   1.0000
     1.0000   1.0000   1.0000   1.0000   1.0000   1.0000   1.0000   1.0000
     1.0000   1.0000   1.0000   1.0000   1.0000   1.0000   1.0000   1.0000
     1.0000   1.0000   1.0000   1.0000   1.0000   1.0000   1.0000   1.0000
     1.0000   1.0000   1.0000   1.0000   1.0000   1.0000   1.0000   1.0000
     1.0000   1.0000   1.0000   1.0000   1.0000   1.0000   1.0000   1.0000
     1.0000   1.0000   1.0000   1.0000   1.0000   1.0000   1.0000   1.0000
     1.0000   1.0000   1.0000   1.0000   1.0000   1.0000   1.0000   1.0000
     1.0000   1.0000   1.0000   1.0000   1.0000   1.0000   1.0000   1.0000
     1.0000   1.0000   1.0000   1.0000   1.0000   1.0000   1.0000   1.0000
     1.0000   1.0000   1.0000   1.0000   1.0000   1.0000   1.0000   1.0000
     1.0000   1.0000   1.0000   1.0000   1.0000   1.0000   1.0000   1.0000
     1.0000   1.0000   1.0000   1.0000   1.0000   1.0000   1.0000   1.0000
     1.0000   1.0000   1.0000   1.0000   1.0000   1.0000   1.0000   1.0000
     1.0000   1.0000   1.0000   1.0000   1.0000   1.0000   1.0000   1.0000
     1.0000   1.0000   1.0000   1.0000   1.0000   1.0000   1.0000   1.0000
     1.0000   1.0000   1.0000   1.0000   1.0000   1.0000   1.0000   1.0000
     1.0000   1.0000   1.0000   1.0000   1.0000   1.0000   1.0000   1.0000
     1.0000   1.0000   1.0000   1.0000   1.0000   1.0000   1.0000   1.0000
     1.0000   1.0000   1.0000   1.0000   1.0000   1.0000   1.0000   1.0000
     1.0000   1.0000   1.0000   1.0000   1.0000   1.0000   1.0000   1.0000
     1.0000   1.0000   1.0000   1.0000   1.0000   1.0000   1.0000   1.0000
     1.0000   1.0000   1.0000   1.0000   1.0000   1.0000   1.0000   1.0000
     1.0000   1.0000   1.0000   1.0000   1.0000   1.0000   1.0000   1.0000
     1.0000   1.0000   1.0000   1.0000   1.0000   1.0000   1.0000   1.0000
     1.0000   1.0000   1.0000   1.0000   1.0000   1.0000   1.0000   1.0000
     1.0000   1.0000   1.0000   1.0000   1.0000   1.0000   1.0000   1.0000
     1.0000   1.0000   1.0000   1.0000   1.0000   1.0000   1.0000   1.0000
     0.9996   0.0000   0.0000   0.0000   0.0000   0.0000   0.0000   0.0000
     0.0000   0.0000   0.0000   0.0000   0.0000   0.0000   0.0000   0.0000
     0.0000   0.0000   0.0000   0.0000   0.0000   0.0000   0.0000   0.0000
     0.0000   0.0000   0.0000   0.0000   0.0000   0.0000   0.0000   0.0000
     0.0000   0.0000   0.0000   0.0000   0.0000   0.0000   0.0000   0.0000
     0.0000   0.0000   0.0000   0.0000   0.0000   0.0000   0.0000   0.0000
     0.0000   0.0000   0.0000   0.0000   0.0000   0.0000   0.0000   0.0000
     0.0000   0.0000   0.0000   0.0000   0.0000   0.0000   0.0000   0.0000
     0.0000

          k = 0.0000-0.5774 0.0000 ( 57942 PWs)   bands (ev):

    -6.8706  -6.8507  -6.7410  -6.7155  -6.6941  -6.6850  -6.6707  -6.6583
    -6.6568  -6.6364  -6.6338  -6.6191  -6.5605  -6.5393  -6.4843  -6.4533
    -6.4399  -6.4389  -6.4191  -6.4026  -6.3963  -6.3859  -6.3840  -6.3734
    -6.3683  -6.3621  -6.3491  -6.3462  -6.3371  -6.3357  -6.3318  -6.3303
    -6.3215  -6.2882  -6.2760  -5.7870  -5.7820  -5.7804  -5.7789  -5.7771
    -5.7714  -5.7641  -5.7611  -5.7565  -5.7541  -5.7488  -5.7325  -5.5808
    -5.5640  -5.5597  -5.5411  -5.5391  -5.5226  -5.5115  -5.5072  -5.3517
    -5.3509  -5.3270  -5.3136  -5.3070  -5.3007  -5.2955  -5.2919  -5.2900
    -5.2889  -5.2808  -5.2650  -5.2625  -5.2589  -5.2569  -5.2564  -5.2496
    -5.2445  -5.2383  -5.2349  -5.2326  -5.2264  -5.2218  -5.2181  -5.2136
    -5.2124  -5.2070  -5.2055  -5.2037  -5.2018  -5.1929  -5.1915  -5.1915
    -5.1908  -5.1857  -5.1839  -5.1816  -5.1767  -5.1733  -5.1729  -5.1702
    -5.1693  -5.1655  -5.1648  -5.1624  -5.1622  -5.1519  -5.1509  -5.1490
    -5.1440  -5.1425  -5.1422  -5.1398  -5.1387  -5.1354  -5.1319  -5.1277
    -5.1265  -5.1224  -5.1201  -5.1185  -5.1157  -5.1154  -5.1123  -5.1058
    -5.1054  -5.1035  -5.1008  -5.1008  -5.0985  -5.0927  -5.0909  -5.0899
    -5.0868  -5.0848  -5.0845  -5.0826  -5.0795  -5.0751  -5.0734  -5.0709
    -5.0688  -5.0673  -5.0642  -5.0622  -5.0559  -5.0546  -5.0518  -5.0508
    -5.0502  -5.0458  -5.0441  -5.0393  -5.0353  -5.0341  -5.0331  -5.0325
    -5.0277  -5.0256  -5.0196  -5.0175  -5.0145  -5.0034  -5.0005  -4.9956
    -4.9954  -4.9876  -4.9822  -4.9724  -4.9701  -4.9701  -4.9678  -4.9641
    -4.9606  -4.9593  -4.9566  -4.9558  -4.9513  -4.9457  -4.9439  -4.9380
    -4.9282  -4.9233  -4.9173  -4.9108  -4.9098  -4.8941  -4.7122  -4.6786
    -4.6090  -4.5835  -4.5595  -4.4863  -4.1431  -4.1316  -4.1005  -4.0593
    -3.8766  -3.8168  -3.8137  -3.7086  -3.6329  -3.5151  -3.4748  -3.4669
    -3.4491  -3.4484  -3.4177  -3.3782  -3.3700  -3.3455  -3.3437  -3.3391
    -3.1279  -3.1220  -3.0835  -2.9496  -2.9218  -2.8949  -2.8936   2.1836
     2.3592   2.3908   2.4596   2.4695   2.6072   2.7190   2.7532   2.7673
     2.7846   2.8399   2.8509   2.8681   2.8982   2.9228   2.9442   2.9496
     3.0365   3.0416   3.3792   3.6402   3.7402   3.8156   3.8168   3.8905
     3.9504   4.0151   4.0674   4.4727   4.6773   4.7004   4.7164   4.7245
     4.7489   4.8011   4.8102   4.8692   4.9541   5.0265   5.1317   5.1720
     5.3150   5.3706   5.3883   5.4431   5.7474   5.7862   5.8161   5.8366
     5.8661   5.8792   5.9361   5.9770   6.0566   6.2219   6.2294   6.3407
     6.4132   6.6207   6.6778   6.6925   6.6948   6.7029   6.7542   6.7779
     6.8139   6.8254   6.8398   6.8405   6.8805   6.9146   6.9180   6.9211
     6.9330   6.9458   6.9670   7.0277   7.0515   7.0649   7.0744   7.0895
     7.0969   7.1067   7.1130   7.1275   7.1343   7.1476   7.1651   7.1740
     7.1872   7.1963   7.2252   7.4931   7.6603   7.6947   7.7212   7.7415
     7.7712   7.7955   7.8448   7.8595   8.2305   8.3381   8.4035   8.4832
     9.1855  11.0414  11.7189  11.8331  11.9824  12.2546  13.0733  13.1168
    13.3005  13.4725  13.5209  13.5569  13.6038  13.6709  13.8223  13.8437
    13.8802  13.9371  13.9774  14.0009  14.0443  14.0636  14.1051  14.1088
    14.1328  14.1792  14.2668  14.2724  14.3440  14.5398  14.6443  14.6634
    14.7198  14.7848  14.8579  14.9622  14.9899  15.0510  15.2666  15.2856
    15.3306  15.4249  15.5113  15.6028  16.0140  16.0267  16.0712  16.1444
    16.1589  16.2125  16.2128  16.2674  16.2984  16.3018  16.3518  16.3598
    16.3669  16.3804  16.4449  16.4474  16.4891  16.5264  16.5405  16.5420
    16.6311

     occupation numbers 
     1.0000   1.0000   1.0000   1.0000   1.0000   1.0000   1.0000   1.0000
     1.0000   1.0000   1.0000   1.0000   1.0000   1.0000   1.0000   1.0000
     1.0000   1.0000   1.0000   1.0000   1.0000   1.0000   1.0000   1.0000
     1.0000   1.0000   1.0000   1.0000   1.0000   1.0000   1.0000   1.0000
     1.0000   1.0000   1.0000   1.0000   1.0000   1.0000   1.0000   1.0000
     1.0000   1.0000   1.0000   1.0000   1.0000   1.0000   1.0000   1.0000
     1.0000   1.0000   1.0000   1.0000   1.0000   1.0000   1.0000   1.0000
     1.0000   1.0000   1.0000   1.0000   1.0000   1.0000   1.0000   1.0000
     1.0000   1.0000   1.0000   1.0000   1.0000   1.0000   1.0000   1.0000
     1.0000   1.0000   1.0000   1.0000   1.0000   1.0000   1.0000   1.0000
     1.0000   1.0000   1.0000   1.0000   1.0000   1.0000   1.0000   1.0000
     1.0000   1.0000   1.0000   1.0000   1.0000   1.0000   1.0000   1.0000
     1.0000   1.0000   1.0000   1.0000   1.0000   1.0000   1.0000   1.0000
     1.0000   1.0000   1.0000   1.0000   1.0000   1.0000   1.0000   1.0000
     1.0000   1.0000   1.0000   1.0000   1.0000   1.0000   1.0000   1.0000
     1.0000   1.0000   1.0000   1.0000   1.0000   1.0000   1.0000   1.0000
     1.0000   1.0000   1.0000   1.0000   1.0000   1.0000   1.0000   1.0000
     1.0000   1.0000   1.0000   1.0000   1.0000   1.0000   1.0000   1.0000
     1.0000   1.0000   1.0000   1.0000   1.0000   1.0000   1.0000   1.0000
     1.0000   1.0000   1.0000   1.0000   1.0000   1.0000   1.0000   1.0000
     1.0000   1.0000   1.0000   1.0000   1.0000   1.0000   1.0000   1.0000
     1.0000   1.0000   1.0000   1.0000   1.0000   1.0000   1.0000   1.0000
     1.0000   1.0000   1.0000   1.0000   1.0000   1.0000   1.0000   1.0000
     1.0000   1.0000   1.0000   1.0000   1.0000   1.0000   1.0000   1.0000
     1.0000   1.0000   1.0000   1.0000   1.0000   1.0000   1.0000   1.0000
     1.0000   1.0000   1.0000   1.0000   1.0000   1.0000   1.0000   1.0000
     1.0000   1.0000   1.0000   1.0000   1.0000   1.0000   1.0000   1.0000
     1.0000   1.0000   1.0000   1.0000   1.0000   1.0000   1.0000   1.0000
     1.0000   1.0000   1.0000   1.0000   1.0000   1.0000   1.0000   1.0000
     1.0000   1.0000   1.0000   1.0000   1.0000   1.0000   1.0000   1.0000
     1.0000   1.0000   1.0000   1.0000   1.0000   1.0000   1.0000   1.0000
     1.0000   1.0000   1.0000   1.0000   1.0000   1.0000   1.0000   1.0000
     1.0000   1.0000   1.0000   1.0000   1.0000   1.0000   1.0000   1.0000
     1.0000   1.0000   1.0000   1.0000   1.0000   1.0000   1.0000   1.0000
     1.0000   1.0000   1.0000   1.0000   1.0000   1.0000   1.0000   1.0000
     1.0000   1.0000   1.0000   1.0000   1.0000   1.0000   1.0000   1.0000
     1.0000   1.0000   1.0000   1.0000   1.0000   1.0000   1.0000   1.0000
     1.0000   1.0000   1.0000   1.0000   1.0000   1.0000   1.0000   1.0000
     1.0000   1.0000   1.0000   1.0000   1.0000   1.0000   1.0000   1.0000
     1.0000   1.0000   1.0000   1.0000   1.0000   1.0000   1.0000   1.0000
     0.3110   0.0000   0.0000   0.0000   0.0000   0.0000   0.0000   0.0000
     0.0000   0.0000   0.0000   0.0000   0.0000   0.0000   0.0000   0.0000
     0.0000   0.0000   0.0000   0.0000   0.0000   0.0000   0.0000   0.0000
     0.0000   0.0000   0.0000   0.0000   0.0000   0.0000   0.0000   0.0000
     0.0000   0.0000   0.0000   0.0000   0.0000   0.0000   0.0000   0.0000
     0.0000   0.0000   0.0000   0.0000   0.0000   0.0000   0.0000   0.0000
     0.0000   0.0000   0.0000   0.0000   0.0000   0.0000   0.0000   0.0000
     0.0000   0.0000   0.0000   0.0000   0.0000   0.0000   0.0000   0.0000
     0.0000

          k = 0.0000-0.5774-0.4602 ( 57848 PWs)   bands (ev):

    -6.8226  -6.8160  -6.7642  -6.7287  -6.6998  -6.6897  -6.6709  -6.6640
    -6.6572  -6.6446  -6.6372  -6.6264  -6.5504  -6.5172  -6.5102  -6.4754
    -6.4479  -6.4328  -6.4190  -6.3935  -6.3905  -6.3866  -6.3816  -6.3742
    -6.3726  -6.3627  -6.3561  -6.3499  -6.3436  -6.3402  -6.3302  -6.3299
    -6.3203  -6.2877  -6.2762  -5.7859  -5.7813  -5.7799  -5.7791  -5.7771
    -5.7690  -5.7638  -5.7607  -5.7571  -5.7545  -5.7483  -5.7351  -5.5809
    -5.5645  -5.5602  -5.5402  -5.5385  -5.5218  -5.5125  -5.5099  -5.3515
    -5.3509  -5.3260  -5.3138  -5.3056  -5.3007  -5.2948  -5.2889  -5.2875
    -5.2808  -5.2803  -5.2712  -5.2636  -5.2628  -5.2580  -5.2574  -5.2494
    -5.2412  -5.2372  -5.2364  -5.2292  -5.2269  -5.2247  -5.2195  -5.2132
    -5.2059  -5.2035  -5.2004  -5.2003  -5.1982  -5.1963  -5.1941  -5.1931
    -5.1912  -5.1911  -5.1864  -5.1838  -5.1804  -5.1776  -5.1759  -5.1742
    -5.1696  -5.1685  -5.1630  -5.1596  -5.1589  -5.1558  -5.1506  -5.1493
    -5.1451  -5.1448  -5.1433  -5.1392  -5.1371  -5.1359  -5.1335  -5.1252
    -5.1249  -5.1215  -5.1206  -5.1149  -5.1137  -5.1113  -5.1096  -5.1076
    -5.1048  -5.1036  -5.1025  -5.0995  -5.0951  -5.0930  -5.0883  -5.0872
    -5.0864  -5.0842  -5.0803  -5.0778  -5.0756  -5.0739  -5.0680  -5.0679
    -5.0669  -5.0660  -5.0619  -5.0600  -5.0548  -5.0519  -5.0509  -5.0458
    -5.0441  -5.0436  -5.0403  -5.0371  -5.0349  -5.0345  -5.0273  -5.0254
    -5.0230  -5.0192  -5.0153  -5.0123  -5.0051  -4.9991  -4.9990  -4.9979
    -4.9948  -4.9913  -4.9884  -4.9768  -4.9735  -4.9715  -4.9664  -4.9647
    -4.9633  -4.9615  -4.9559  -4.9509  -4.9506  -4.9448  -4.9443  -4.9410
    -4.9372  -4.9292  -4.9204  -4.9173  -4.9157  -4.9117  -4.9108  -4.8947
    -4.6306  -4.5179  -4.5137  -4.5074  -3.9363  -3.8831  -3.8416  -3.8189
    -3.7825  -3.7803  -3.7595  -3.6961  -3.6680  -3.6608  -3.6420  -3.6084
    -3.5490  -3.5444  -3.5261  -3.4058  -3.3941  -3.3152  -3.1980  -3.1785
    -3.1332  -3.1156  -3.0961  -3.0568  -3.0153  -3.0015  -2.9949   2.2389
     2.2865   2.4272   2.6195   2.6279   2.6693   2.7001   2.7239   2.7387
     2.8085   2.8127   3.0232   3.0799   3.0879   3.1855   3.1858   3.2108
     3.2326   3.2704   3.2724   3.3304   3.3418   3.3881   3.4294   3.4349
     3.5047   3.5220   3.6132   4.4045   4.7567   4.7738   4.7884   5.1133
     5.1258   5.1378   5.1867   5.2075   5.2115   5.2784   5.3119   5.4311
     5.4861   5.5258   5.5702   5.6545   5.6749   5.7409   5.8012   5.8344
     5.8924   5.9115   5.9167   5.9372   5.9578   6.0083   6.1471   6.1692
     6.3101   6.3213   6.3309   6.3627   6.3657   6.3932   6.4364   6.4412
     6.4766   6.5368   6.5805   6.5835   6.6112   6.6194   6.6479   6.6809
     6.7283   6.8029   7.0180   7.1583   7.1777   7.1956   7.2418   7.2444
     7.2795   7.2885   7.3071   7.3359   7.3540   7.3643   7.3887   7.4152
     7.4738   7.4982   7.4997   7.5112   7.6348   7.7427   7.7862   7.8006
     7.9150   7.9806   7.9920   8.0058   8.0305   8.2186   8.2816   8.3432
     9.1737  11.2127  11.5531  11.8338  12.4589  12.5332  12.6385  12.7243
    13.0020  13.0616  13.3897  13.4145  13.5107  13.5123  13.7254  13.7461
    13.8377  13.8721  13.8811  13.8840  13.9062  13.9084  13.9426  14.0068
    14.1320  14.1420  14.3481  14.7313  14.8402  15.0064  15.0453  15.0867
    15.1247  15.1290  15.1428  15.1448  15.2503  15.2860  15.3725  15.5933
    15.6544  15.6871  15.7299  15.7381  15.7890  15.8611  15.8867  15.8966
    15.9428  15.9649  16.0431  16.0996  16.1271  16.2676  16.2906  16.3676
    16.3925  16.4240  16.4283  16.4637  16.4698  16.4843  16.4946  16.5029
    16.5211

     occupation numbers 
     1.0000   1.0000   1.0000   1.0000   1.0000   1.0000   1.0000   1.0000
     1.0000   1.0000   1.0000   1.0000   1.0000   1.0000   1.0000   1.0000
     1.0000   1.0000   1.0000   1.0000   1.0000   1.0000   1.0000   1.0000
     1.0000   1.0000   1.0000   1.0000   1.0000   1.0000   1.0000   1.0000
     1.0000   1.0000   1.0000   1.0000   1.0000   1.0000   1.0000   1.0000
     1.0000   1.0000   1.0000   1.0000   1.0000   1.0000   1.0000   1.0000
     1.0000   1.0000   1.0000   1.0000   1.0000   1.0000   1.0000   1.0000
     1.0000   1.0000   1.0000   1.0000   1.0000   1.0000   1.0000   1.0000
     1.0000   1.0000   1.0000   1.0000   1.0000   1.0000   1.0000   1.0000
     1.0000   1.0000   1.0000   1.0000   1.0000   1.0000   1.0000   1.0000
     1.0000   1.0000   1.0000   1.0000   1.0000   1.0000   1.0000   1.0000
     1.0000   1.0000   1.0000   1.0000   1.0000   1.0000   1.0000   1.0000
     1.0000   1.0000   1.0000   1.0000   1.0000   1.0000   1.0000   1.0000
     1.0000   1.0000   1.0000   1.0000   1.0000   1.0000   1.0000   1.0000
     1.0000   1.0000   1.0000   1.0000   1.0000   1.0000   1.0000   1.0000
     1.0000   1.0000   1.0000   1.0000   1.0000   1.0000   1.0000   1.0000
     1.0000   1.0000   1.0000   1.0000   1.0000   1.0000   1.0000   1.0000
     1.0000   1.0000   1.0000   1.0000   1.0000   1.0000   1.0000   1.0000
     1.0000   1.0000   1.0000   1.0000   1.0000   1.0000   1.0000   1.0000
     1.0000   1.0000   1.0000   1.0000   1.0000   1.0000   1.0000   1.0000
     1.0000   1.0000   1.0000   1.0000   1.0000   1.0000   1.0000   1.0000
     1.0000   1.0000   1.0000   1.0000   1.0000   1.0000   1.0000   1.0000
     1.0000   1.0000   1.0000   1.0000   1.0000   1.0000   1.0000   1.0000
     1.0000   1.0000   1.0000   1.0000   1.0000   1.0000   1.0000   1.0000
     1.0000   1.0000   1.0000   1.0000   1.0000   1.0000   1.0000   1.0000
     1.0000   1.0000   1.0000   1.0000   1.0000   1.0000   1.0000   1.0000
     1.0000   1.0000   1.0000   1.0000   1.0000   1.0000   1.0000   1.0000
     1.0000   1.0000   1.0000   1.0000   1.0000   1.0000   1.0000   1.0000
     1.0000   1.0000   1.0000   1.0000   1.0000   1.0000   1.0000   1.0000
     1.0000   1.0000   1.0000   1.0000   1.0000   1.0000   1.0000   1.0000
     1.0000   1.0000   1.0000   1.0000   1.0000   1.0000   1.0000   1.0000
     1.0000   1.0000   1.0000   1.0000   1.0000   1.0000   1.0000   1.0000
     1.0000   1.0000   1.0000   1.0000   1.0000   1.0000   1.0000   1.0000
     1.0000   1.0000   1.0000   1.0000   1.0000   1.0000   1.0000   1.0000
     1.0000   1.0000   1.0000   1.0000   1.0000   1.0000   1.0000   1.0000
     1.0000   1.0000   1.0000   1.0000   1.0000   1.0000   1.0000   1.0000
     1.0000   1.0000   1.0000   1.0000   1.0000   1.0000   1.0000   1.0000
     1.0000   1.0000   1.0000   1.0000   1.0000   1.0000   1.0000   1.0000
     1.0000   1.0000   1.0000   1.0000   1.0000   1.0000   1.0000   1.0000
     1.0000   1.0000   1.0000   1.0000   1.0000   1.0000   1.0000   1.0000
     0.3558   0.0000   0.0000   0.0000   0.0000   0.0000   0.0000   0.0000
     0.0000   0.0000   0.0000   0.0000   0.0000   0.0000   0.0000   0.0000
     0.0000   0.0000   0.0000   0.0000   0.0000   0.0000   0.0000   0.0000
     0.0000   0.0000   0.0000   0.0000   0.0000   0.0000   0.0000   0.0000
     0.0000   0.0000   0.0000   0.0000   0.0000   0.0000   0.0000   0.0000
     0.0000   0.0000   0.0000   0.0000   0.0000   0.0000   0.0000   0.0000
     0.0000   0.0000   0.0000   0.0000   0.0000   0.0000   0.0000   0.0000
     0.0000   0.0000   0.0000   0.0000   0.0000   0.0000   0.0000   0.0000
     0.0000

     the Fermi energy is     9.1381 ev

!    total energy              =  -11214.74534714 Ry
     total all-electron energy =   -144026.131083 Ry
     estimated scf accuracy    <          2.8E-09 Ry
     smearing contrib. (-TS)   =      -0.00385203 Ry
     internal energy E=F+TS    =  -11214.74149512 Ry

     The total energy is F=E-TS. E is the sum of the following terms:
     one-electron contribution =   -3441.67981697 Ry
     hartree contribution      =    2393.77115090 Ry
     xc contribution           =   -1630.48966774 Ry
     ewald contribution        =   -4072.11817300 Ry
     one-center paw contrib.   =   -4464.22498831 Ry
      -> PAW hartree energy AE =     288.36077491 Ry
      -> PAW hartree energy PS =    -285.43248180 Ry
      -> PAW xc energy AE      =    -313.83494089 Ry
      -> PAW xc energy PS      =      79.39416588 Ry
      -> total E_H with PAW    =    2396.69944402 Ry
      -> total E_XC with PAW   =   -1864.93044275 Ry

     convergence has been achieved in   1 iterations


     -----------------------------------------------
     Non-local corr. energy    =      19.55961686 Ry
     -----------------------------------------------


     Forces acting on atoms (cartesian axes, Ry/au):

     atom    1 type  1   force =     0.00000000    0.00000000   -0.00089584
     atom    2 type  1   force =     0.00000000    0.00000000   -0.00029951
     atom    3 type  1   force =     0.00014276    0.00006492    0.00001130
     atom    4 type  1   force =     0.00017694   -0.00016768   -0.00015572
     atom    5 type  1   force =     0.00012760    0.00009117    0.00001130
     atom    6 type  1   force =    -0.00005674    0.00023707   -0.00015572
     atom    7 type  1   force =    -0.00001515   -0.00015609    0.00001130
     atom    8 type  1   force =    -0.00023368   -0.00006939   -0.00015572
     atom    9 type  1   force =    -0.00014276    0.00006492    0.00001130
     atom   10 type  1   force =    -0.00017694   -0.00016768   -0.00015572
     atom   11 type  1   force =     0.00000000    0.00000000    0.00053637
     atom   12 type  1   force =     0.00000000    0.00000000    0.00034071
     atom   13 type  1   force =     0.00001515   -0.00015609    0.00001130
     atom   14 type  1   force =     0.00023368   -0.00006939   -0.00015572
     atom   15 type  1   force =     0.00000000    0.00000000    0.00027282
     atom   16 type  1   force =     0.00000000    0.00000000    0.00013473
     atom   17 type  1   force =    -0.00012760    0.00009117    0.00001130
     atom   18 type  1   force =     0.00005674    0.00023707   -0.00015572
     atom   19 type  1   force =    -0.00006431    0.00003713   -0.00000166
     atom   20 type  1   force =    -0.00008136    0.00004698    0.00026140
     atom   21 type  1   force =     0.00041315    0.00023853   -0.00030774
     atom   22 type  1   force =     0.00015431    0.00008909    0.00001739
     atom   23 type  1   force =     0.00000000   -0.00007426   -0.00000166
     atom   24 type  1   force =     0.00000000   -0.00009395    0.00026140
     atom   25 type  1   force =     0.00006431    0.00003713   -0.00000166
     atom   26 type  1   force =     0.00008136    0.00004698    0.00026140
     atom   27 type  1   force =     0.00000000    0.00000566   -0.00011117
     atom   28 type  1   force =     0.00000000   -0.00003051    0.00000367
     atom   29 type  1   force =     0.00000490   -0.00000283   -0.00011117
     atom   30 type  1   force =    -0.00002642    0.00001526    0.00000367
     atom   31 type  1   force =     0.00000000   -0.00047706   -0.00030774
     atom   32 type  1   force =     0.00000000   -0.00017818    0.00001739
     atom   33 type  1   force =    -0.00041315    0.00023853   -0.00030774
     atom   34 type  1   force =    -0.00015431    0.00008909    0.00001739
     atom   35 type  1   force =    -0.00000490   -0.00000283   -0.00011117
     atom   36 type  1   force =     0.00002642    0.00001526    0.00000367
     atom   37 type  2   force =     0.00000000    0.00000000    0.00001525
     atom   38 type  2   force =     0.00007727    0.00011345   -0.00001923
     atom   39 type  2   force =     0.00010749   -0.00008098   -0.00000566
     atom   40 type  2   force =     0.00013689    0.00001020   -0.00001923
     atom   41 type  2   force =    -0.00001639    0.00013358   -0.00000566
     atom   42 type  2   force =     0.00005961   -0.00012365   -0.00001923
     atom   43 type  2   force =    -0.00012388   -0.00005260   -0.00000566
     atom   44 type  2   force =    -0.00007727    0.00011345   -0.00001923
     atom   45 type  2   force =    -0.00010749   -0.00008098   -0.00000566
     atom   46 type  2   force =     0.00000000    0.00000000    0.00021262
     atom   47 type  2   force =     0.00000000    0.00000000    0.00024660
     atom   48 type  2   force =    -0.00005961   -0.00012365   -0.00001923
     atom   49 type  2   force =     0.00012388   -0.00005260   -0.00000566
     atom   50 type  2   force =     0.00000000    0.00000000    0.00027259
     atom   51 type  2   force =     0.00000000    0.00000000    0.00052482
     atom   52 type  2   force =    -0.00013689    0.00001020   -0.00001923
     atom   53 type  2   force =     0.00001639    0.00013358   -0.00000566
     atom   54 type  2   force =    -0.00009113    0.00005261    0.00002134
     atom   55 type  2   force =     0.00006914   -0.00003992   -0.00010884
     atom   56 type  2   force =     0.00014703    0.00008489    0.00028136
     atom   57 type  2   force =     0.00016667    0.00009623   -0.00010762
     atom   58 type  2   force =     0.00000000   -0.00010523    0.00002134
     atom   59 type  2   force =     0.00000000    0.00007984   -0.00010884
     atom   60 type  2   force =     0.00009113    0.00005261    0.00002134
     atom   61 type  2   force =    -0.00006914   -0.00003992   -0.00010884
     atom   62 type  2   force =     0.00000000    0.00012532    0.00021252
     atom   63 type  2   force =     0.00000000    0.00011846   -0.00027577
     atom   64 type  2   force =     0.00010853   -0.00006266    0.00021252
     atom   65 type  2   force =     0.00010259   -0.00005923   -0.00027577
     atom   66 type  2   force =     0.00000000   -0.00016977    0.00028136
     atom   67 type  2   force =     0.00000000   -0.00019245   -0.00010762
     atom   68 type  2   force =    -0.00014703    0.00008489    0.00028136
     atom   69 type  2   force =    -0.00016667    0.00009623   -0.00010762
     atom   70 type  2   force =    -0.00010853   -0.00006266    0.00021252
     atom   71 type  2   force =    -0.00010259   -0.00005923   -0.00027577
     The non-local contrib.  to forces
     atom    1 type  1   force =     0.00000000   -0.00000000    0.33492604
     atom    2 type  1   force =     0.00000000   -0.00000000   -0.02629908
     atom    3 type  1   force =    -0.00933811   -0.05094406    0.04240359
     atom    4 type  1   force =    -0.01403541   -0.06141329   -0.02923506
     atom    5 type  1   force =    -0.04878790    0.01738499    0.04240359
     atom    6 type  1   force =    -0.06020317    0.01855162   -0.02923506
     atom    7 type  1   force =    -0.03944979    0.03355907    0.04240359
     atom    8 type  1   force =    -0.04616776    0.04286166   -0.02923506
     atom    9 type  1   force =     0.00933811   -0.05094406    0.04240359
     atom   10 type  1   force =     0.01403541   -0.06141329   -0.02923506
     atom   11 type  1   force =     0.00000000    0.00000000    0.00982469
     atom   12 type  1   force =     0.00000000   -0.00000000   -0.02212254
     atom   13 type  1   force =     0.03944979    0.03355907    0.04240359
     atom   14 type  1   force =     0.04616776    0.04286166   -0.02923506
     atom   15 type  1   force =     0.00000000   -0.00000000    0.02306566
     atom   16 type  1   force =     0.00000000   -0.00000000   -0.02851524
     atom   17 type  1   force =     0.04878790    0.01738499    0.04240359
     atom   18 type  1   force =     0.06020317    0.01855162   -0.02923506
     atom   19 type  1   force =     0.29198311   -0.16857653   -0.13360793
     atom   20 type  1   force =     0.02953512   -0.01705211    0.09628176
     atom   21 type  1   force =     0.06279576    0.03625515   -0.07100150
     atom   22 type  1   force =     0.01129532    0.00652136    0.00785216
     atom   23 type  1   force =     0.00000000    0.33715306   -0.13360793
     atom   24 type  1   force =     0.00000000    0.03410421    0.09628176
     atom   25 type  1   force =    -0.29198311   -0.16857653   -0.13360793
     atom   26 type  1   force =    -0.02953512   -0.01705211    0.09628176
     atom   27 type  1   force =     0.00000000   -0.04512448   -0.04378245
     atom   28 type  1   force =     0.00000000   -0.01676875    0.00256412
     atom   29 type  1   force =    -0.03907895    0.02256224   -0.04378245
     atom   30 type  1   force =    -0.01452216    0.00838437    0.00256412
     atom   31 type  1   force =     0.00000000   -0.07251030   -0.07100150
     atom   32 type  1   force =     0.00000000   -0.01304271    0.00785216
     atom   33 type  1   force =    -0.06279576    0.03625515   -0.07100150
     atom   34 type  1   force =    -0.01129532    0.00652136    0.00785216
     atom   35 type  1   force =     0.03907895    0.02256224   -0.04378245
     atom   36 type  1   force =     0.01452216    0.00838437    0.00256412
     atom   37 type  2   force =     0.00000000    0.00000000   -0.01546168
     atom   38 type  2   force =    -0.04993719   -0.09519456    0.09190721
     atom   39 type  2   force =    -0.00375520   -0.03309347   -0.01419875
     atom   40 type  2   force =    -0.10740950    0.00435040    0.09190721
     atom   41 type  2   force =    -0.03053739    0.01329463   -0.01419875
     atom   42 type  2   force =    -0.05747231    0.09084415    0.09190721
     atom   43 type  2   force =    -0.02678219    0.01979884   -0.01419875
     atom   44 type  2   force =     0.04993719   -0.09519456    0.09190721
     atom   45 type  2   force =     0.00375520   -0.03309347   -0.01419875
     atom   46 type  2   force =     0.00000000   -0.00000000    0.05721950
     atom   47 type  2   force =     0.00000000    0.00000000    0.00638365
     atom   48 type  2   force =     0.05747231    0.09084415    0.09190721
     atom   49 type  2   force =     0.02678219    0.01979884   -0.01419875
     atom   50 type  2   force =     0.00000000    0.00000000    0.06584283
     atom   51 type  2   force =     0.00000000   -0.00000000    0.00434963
     atom   52 type  2   force =     0.10740950    0.00435040    0.09190721
     atom   53 type  2   force =     0.03053739    0.01329463   -0.01419875
     atom   54 type  2   force =     0.12586748   -0.07266963    0.02428611
     atom   55 type  2   force =     0.00892505   -0.00515288   -0.11298647
     atom   56 type  2   force =     0.01913019    0.01104482    0.02749240
     atom   57 type  2   force =     0.01639597    0.00946622   -0.01475644
     atom   58 type  2   force =     0.00000000    0.14533925    0.02428611
     atom   59 type  2   force =     0.00000000    0.01030576   -0.11298647
     atom   60 type  2   force =    -0.12586748   -0.07266963    0.02428611
     atom   61 type  2   force =    -0.00892505   -0.00515288   -0.11298647
     atom   62 type  2   force =     0.00000000   -0.02022609    0.03028879
     atom   63 type  2   force =     0.00000000   -0.00940976   -0.00073860
     atom   64 type  2   force =    -0.01751631    0.01011304    0.03028879
     atom   65 type  2   force =    -0.00814909    0.00470488   -0.00073860
     atom   66 type  2   force =     0.00000000   -0.02208964    0.02749240
     atom   67 type  2   force =     0.00000000   -0.01893244   -0.01475644
     atom   68 type  2   force =    -0.01913019    0.01104482    0.02749240
     atom   69 type  2   force =    -0.01639597    0.00946622   -0.01475644
     atom   70 type  2   force =     0.01751631    0.01011304    0.03028879
     atom   71 type  2   force =     0.00814909    0.00470488   -0.00073860
     The ionic contribution  to forces
     atom    1 type  1   force =    -0.00004346    0.00002575   13.51116259
     atom    2 type  1   force =    -0.00003690    0.00002162   -5.25487717
     atom    3 type  1   force =     1.30775301   -2.48099670    2.84341237
     atom    4 type  1   force =     0.71561369   -1.36803492   -1.53749283
     atom    5 type  1   force =    -1.49476019    2.37310313    2.84341119
     atom    6 type  1   force =    -0.82697652    1.30381373   -1.53749017
     atom    7 type  1   force =    -2.80254531    0.10795059    2.84341120
     atom    8 type  1   force =    -1.54262168    0.06427757   -1.53749052
     atom    9 type  1   force =    -1.30782396   -2.48099277    2.84340976
     atom   10 type  1   force =    -0.71568246   -1.36803153   -1.53749046
     atom   11 type  1   force =    -0.00003242    0.00002158    1.68784751
     atom   12 type  1   force =    -0.00003260    0.00002171   -0.98075640
     atom   13 type  1   force =     2.80248483    0.10795283    2.84341205
     atom   14 type  1   force =     1.54256203    0.06427954   -1.53749311
     atom   15 type  1   force =    -0.00003138    0.00002096    1.36717720
     atom   16 type  1   force =    -0.00003137    0.00002095   -0.65136796
     atom   17 type  1   force =     1.49469298    2.37310931    2.84340950
     atom   18 type  1   force =     0.82691103    1.30381911   -1.53749044
     atom   19 type  1   force =    10.53574032   -6.08281766   -4.75487429
     atom   20 type  1   force =     0.43235744   -0.24962566    1.20704712
     atom   21 type  1   force =     0.94410612    0.54504895   -1.24842390
     atom   22 type  1   force =     0.07549468    0.04354820    0.91703933
     atom   23 type  1   force =     0.00005501   12.16563391   -4.75490591
     atom   24 type  1   force =     0.00003467    0.49918259    1.20704202
     atom   25 type  1   force =   -10.53571827   -6.08286855   -4.75490422
     atom   26 type  1   force =    -0.43228851   -0.24962582    1.20704256
     atom   27 type  1   force =     0.00003186   -3.09190164   -1.35034025
     atom   28 type  1   force =     0.00003284   -0.65248768    0.96030002
     atom   29 type  1   force =    -2.67762325    1.54592552   -1.35034287
     atom   30 type  1   force =    -0.56501994    0.32621336    0.96029910
     atom   31 type  1   force =     0.00002625   -1.09014884   -1.24842363
     atom   32 type  1   force =     0.00003264   -0.08715885    0.91703952
     atom   33 type  1   force =    -0.94404137    0.54504193   -1.24842504
     atom   34 type  1   force =    -0.07542771    0.04354723    0.91703943
     atom   35 type  1   force =     2.67768079    1.54592186   -1.35034048
     atom   36 type  1   force =     0.56508649    0.32621377    0.96029984
     atom   37 type  2   force =    -0.00003100    0.00001887   -0.20201380
     atom   38 type  2   force =     1.38474734   -1.06966446   -0.82214194
     atom   39 type  2   force =     0.14643202   -0.08747425    0.08641562
     atom   40 type  2   force =    -0.23401439    1.73410086   -0.82213859
     atom   41 type  2   force =    -0.00257166    0.17060520    0.08641487
     atom   42 type  2   force =    -1.61878139   -0.66438594   -0.82213829
     atom   43 type  2   force =    -0.14903253   -0.08307346    0.08641506
     atom   44 type  2   force =    -1.38480320   -1.06965482   -0.82214415
     atom   45 type  2   force =    -0.14649151   -0.08747316    0.08641531
     atom   46 type  2   force =    -0.00002913    0.00001889   -0.55610531
     atom   47 type  2   force =    -0.00002977    0.00001931    0.00327608
     atom   48 type  2   force =     1.61873206   -0.66439160   -0.82214131
     atom   49 type  2   force =     0.14897291   -0.08307450    0.08641592
     atom   50 type  2   force =    -0.00002909    0.00001907   -0.69943125
     atom   51 type  2   force =    -0.00002931    0.00001923   -0.03086310
     atom   52 type  2   force =     0.23394861    1.73410479   -0.82214381
     atom   53 type  2   force =     0.00251025    0.17060524    0.08641540
     atom   54 type  2   force =     0.25544075   -0.14748148    1.95184300
     atom   55 type  2   force =     1.26544306   -0.73060652   -1.23951749
     atom   56 type  2   force =    -0.03704576   -0.02142380    0.45549041
     atom   57 type  2   force =     0.02471792    0.01423743   -0.51634614
     atom   58 type  2   force =     0.00003014    0.29489605    1.95185239
     atom   59 type  2   force =     0.00002949    1.46115541   -1.23952182
     atom   60 type  2   force =    -0.25537390   -0.14747757    1.95185168
     atom   61 type  2   force =    -1.26538412   -0.73060646   -1.23952194
     atom   62 type  2   force =     0.00003124   -0.49513162    0.62863307
     atom   63 type  2   force =     0.00003046   -0.61378106   -0.88256538
     atom   64 type  2   force =    -0.42875199    0.24753873    0.62863479
     atom   65 type  2   force =    -0.53150678    0.30686429   -0.88256651
     atom   66 type  2   force =     0.00002940    0.04279103    0.45549023
     atom   67 type  2   force =     0.00002779   -0.02852844   -0.51634628
     atom   68 type  2   force =     0.03710637   -0.02142479    0.45549003
     atom   69 type  2   force =    -0.02465896    0.01423554   -0.51634735
     atom   70 type  2   force =     0.42881109    0.24753672    0.62863327
     atom   71 type  2   force =     0.53156418    0.30686219   -0.88256530
     The local contribution  to forces
     atom    1 type  1   force =    -0.00006090    0.00012445  -13.84555000
     atom    2 type  1   force =    -0.00005625    0.00012696    5.28016292
     atom    3 type  1   force =    -1.29847214    2.53108939   -2.88480710
     atom    4 type  1   force =    -0.70167696    1.42836270    1.56529608
     atom    5 type  1   force =     1.54260801   -2.38980608   -2.88479706
     atom    6 type  1   force =     0.88601407   -1.32159944    1.56529670
     atom    7 type  1   force =     2.84103021   -0.14089626   -2.88480578
     atom    8 type  1   force =     1.58764269   -0.10637090    1.56529603
     atom    9 type  1   force =     1.29835708    2.53109475   -2.88480078
     atom   10 type  1   force =     0.70156183    1.42836525    1.56529661
     atom   11 type  1   force =    -0.00006071    0.00013680   -1.69696937
     atom   12 type  1   force =    -0.00005888    0.00013488    1.00214557
     atom   13 type  1   force =    -2.84113078   -0.14089722   -2.88479824
     atom   14 type  1   force =    -1.58774119   -0.10637218    1.56529643
     atom   15 type  1   force =    -0.00005123    0.00013269   -1.38948220
     atom   16 type  1   force =    -0.00004903    0.00013125    0.67884257
     atom   17 type  1   force =    -1.54272378   -2.38980145   -2.88480308
     atom   18 type  1   force =    -0.88613106   -1.32159828    1.56529599
     atom   19 type  1   force =   -10.82454892    6.24957876    4.88739341
     atom   20 type  1   force =    -0.46041699    0.26584516   -1.30185347
     atom   21 type  1   force =    -1.00424828   -0.58106777    1.31714341
     atom   22 type  1   force =    -0.08520984   -0.05045515   -0.92500015
     atom   23 type  1   force =     0.00108304  -12.50109263    4.88744011
     atom   24 type  1   force =     0.00110411   -0.53353583   -1.30184874
     atom   25 type  1   force =    10.82682593    6.24964780    4.88743563
     atom   26 type  1   force =     0.46264300    0.26584670   -1.30185002
     atom   27 type  1   force =     0.00112356    3.13539589    1.39216699
     atom   28 type  1   force =     0.00111556    0.66833448   -0.96304173
     atom   29 type  1   force =     2.71699742   -1.56863421    1.39217207
     atom   30 type  1   force =     0.58044151   -0.33508628   -0.96304115
     atom   31 type  1   force =     0.00112963    1.16026091    1.31714176
     atom   32 type  1   force =     0.00112524    0.09905510   -0.92500010
     atom   33 type  1   force =     1.00646356   -0.58104939    1.31714655
     atom   34 type  1   force =     0.08743961   -0.05045110   -0.92499999
     atom   35 type  1   force =    -2.71475495   -1.56861792    1.39216401
     atom   36 type  1   force =    -0.57820886   -0.33508452   -0.96304085
     atom   37 type  2   force =    -0.00001140   -0.00000115    0.21711486
     atom   38 type  2   force =    -1.33560939    1.16348940    0.73165731
     atom   39 type  2   force =    -0.14267306    0.11998569   -0.07255014
     atom   40 type  2   force =     0.33980488   -1.73841219    0.73165016
     atom   41 type  2   force =     0.03256907   -0.18354395   -0.07254932
     atom   42 type  2   force =     1.67540028    0.57491989    0.73165361
     atom   43 type  2   force =     0.17523193    0.06355423   -0.07254922
     atom   44 type  2   force =     1.33558559    1.16349233    0.73165172
     atom   45 type  2   force =     0.14265217    0.11998618   -0.07255095
     atom   46 type  2   force =    -0.00001148    0.00000334    0.49996647
     atom   47 type  2   force =    -0.00001106   -0.00000103   -0.00940753
     atom   48 type  2   force =    -1.67542198    0.57491972    0.73165201
     atom   49 type  2   force =    -0.17525495    0.06355446   -0.07254988
     atom   50 type  2   force =    -0.00000874    0.00000259    0.63487840
     atom   51 type  2   force =    -0.00001095   -0.00000052    0.02701112
     atom   52 type  2   force =    -0.33982078   -1.73840380    0.73165027
     atom   53 type  2   force =    -0.03259249   -0.18354299   -0.07255046
     atom   54 type  2   force =    -0.37929156    0.21896615   -1.97582720
     atom   55 type  2   force =    -1.27406092    0.73556659    1.35051470
     atom   56 type  2   force =     0.01848831    0.01056059   -0.48233813
     atom   57 type  2   force =    -0.04056629   -0.02353430    0.53068261
     atom   58 type  2   force =     0.00008472   -0.43811854   -1.97583325
     atom   59 type  2   force =     0.00008377   -1.47131790    1.35052802
     atom   60 type  2   force =     0.37944595    0.21896858   -1.97583457
     atom   61 type  2   force =     1.27423022    0.73556895    1.35052814
     atom   62 type  2   force =     0.00007959    0.51509622   -0.65830614
     atom   63 type  2   force =     0.00008472    0.62308798    0.88294072
     atom   64 type  2   force =     0.44622310   -0.25764302   -0.65830832
     atom   65 type  2   force =     0.53975167   -0.31163775    0.88294201
     atom   66 type  2   force =     0.00008343   -0.02131298   -0.48233819
     atom   67 type  2   force =     0.00008745    0.04688052    0.53068303
     atom   68 type  2   force =    -0.01831869    0.01056160   -0.48233682
     atom   69 type  2   force =     0.04073780   -0.02353201    0.53068560
     atom   70 type  2   force =    -0.44605478   -0.25763752   -0.65830635
     atom   71 type  2   force =    -0.53957866   -0.31163483    0.88294031
     The core correction contribution to forces
     atom    1 type  1   force =    -0.00000581    0.00001264   -0.00154613
     atom    2 type  1   force =    -0.00000532    0.00001285    0.00065194
     atom    3 type  1   force =     0.00008049    0.00110959   -0.00108666
     atom    4 type  1   force =     0.00016394    0.00109311    0.00119726
     atom    5 type  1   force =     0.00098702   -0.00046048   -0.00108613
     atom    6 type  1   force =     0.00101429   -0.00037973    0.00119731
     atom    7 type  1   force =     0.00090171   -0.00060991   -0.00108671
     atom    8 type  1   force =     0.00084568   -0.00067375    0.00119723
     atom    9 type  1   force =    -0.00009117    0.00111013   -0.00108636
     atom   10 type  1   force =    -0.00017464    0.00109347    0.00119730
     atom   11 type  1   force =    -0.00000564    0.00001377   -0.00024278
     atom   12 type  1   force =    -0.00000540    0.00001367    0.00098542
     atom   13 type  1   force =    -0.00091140   -0.00061004   -0.00108609
     atom   14 type  1   force =    -0.00085519   -0.00067394    0.00119729
     atom   15 type  1   force =    -0.00000500    0.00001336   -0.00056379
[...]
              0.614892970906534E+02
              0.180118785932807E+01
              0.191608205529474E+03
              0.265817099711281E+02
             -0.278760533109080E+02
              0.107054302439092E+02
             -0.256673931821054E+02
              0.150485489143013E+03
             -0.105119599246925E+01
              0.288791444983580E+02
              0.104467340286762E+03
              0.279546703917098E+02
             -0.794432628838242E+02
             -0.128754297560081E+03
              0.729201778540005E+01
             -0.146416062758692E+03
              0.491080729497027E+02
             -0.254511446862680E+02
             -0.564643974988953E+02
              0.572378975880195E+02
              0.197477477735495E+02
              0.550259896236244E+02
              0.244725302278744E+01
              0.816413030435941E+02
             -0.138527148111670E+03
             -0.988821528250276E+01
             -0.121630956935627E+03
              0.270125402195980E+02
              0.667296557391136E+02
             -0.676842818464962E+01
             -0.445197923927271E+02
              0.997656112967463E+02
             -0.461144610792990E+02
              0.341391783592192E+02
             -0.293591679617454E+02
              0.789897241535756E+02
              0.832884593030274E+02
             -0.359896825378528E+02
              0.711708073576556E+02
              0.267376721746575E+02
             -0.718714152710094E+02
             -0.470514556056221E+02
              0.115569366071202E+03
              0.566850856718707E+02
             -0.500040591937542E+01
             -0.122419844426017E+02
              0.177892955974365E+03
              0.104967920736702E+03
              0.373165339119088E+02
             -0.112011558177103E+03
              0.179627317068279E+03
             -0.837601511148475E+02
             -0.103500193265869E+03
             -0.156137945750221E+03
              0.695511125201097E+02
             -0.140323775653435E+03
              0.633952804238635E+02
              0.102420348930081E+03
              0.729790499121546E+02
              0.184456433696057E+02
              0.483614026936221E+02
             -0.115554939099494E+03
             -0.414123378293233E+02
             -0.314482585524236E+02
              0.592137621087829E+02
              0.117694841907815E+03
              0.121458759384504E+03
              0.936264832138006E+02
             -0.215053262663091E+02
              0.298983299438441E+02
              0.178162460632109E+01
             -0.385726926056526E+02
              0.496467041793308E+02
              0.540517882013454E+02
             -0.683571820656051E+02
             -0.812281688702494E+02
             -0.321125586354209E+02
              0.842091699205106E+02
              0.403347503149237E+02
             -0.577823149261515E+02
             -0.887078303190564E+02
             -0.129225616545310E+03
              0.270474110810096E+01
              0.347731166118427E+02
             -0.487642614002112E+02
              0.180719264452912E+03
              0.875264284851471E+01
             -0.204646960551575E+03
              0.452455487571208E+02
              0.896175588427946E+02
             -0.410847209560088E+02
              0.485796363873936E+01
             -0.568740580005906E+02
              0.837556319144917E+02
              0.387583712020211E+02
             -0.107102919849594E+03
              0.127554335789040E+03
              0.375025210129598E+01
             -0.546120898654048E+02
             -0.649224206209318E+02
              0.254035246063172E+03
              0.113143027062512E+03
             -0.315729683979346E+02
              0.622397145999963E+02
             -0.111077350499097E+03
             -0.199813276784948E+02
             -0.112649332611095E+03
              0.450879122586591E+02
              0.768139729823771E+02
              0.910996389977220E+02
             -0.362532725019237E+02
              0.107441725968961E+02
              0.104053536788637E+03
              0.384201294778511E+02
              0.652408398030066E+02
              0.277695821775603E+02
             -0.186490837137584E+02
              0.288003096520777E+01
             -0.171682782311328E+02
              0.264988792351184E+02
              0.585902544832925E+01
             -0.948120598533930E+02
              0.144233115861984E+03
              0.577028490925751E+02
             -0.103707789429743E+03
             -0.770690024803423E+02
             -0.111477438719600E+03
             -0.526742528373522E+02
             -0.388247350084943E+02
             -0.861529240559725E+02
             -0.843586338438019E+02
              0.106190354866099E+03
              0.838543491805412E+02
             -0.104012174467575E+02
              0.122321332717121E+03
              0.231172361180340E+02
             -0.197383318953933E+03
              0.111455375602256E+03
              0.256983244948394E+02
              0.857913717368943E+02
              0.190855251327688E+02
              0.143051293049286E+02
              0.169888053857604E+02
              0.446420108318450E+02
             -0.819154671936976E+02
             -0.408593051726299E+02
             -0.752646564202551E+02
             -0.625479054736747E+02
              0.284180914004510E+02
             -0.714553797313313E+02
              0.334869095391061E+02
              0.442353342365776E+02
             -0.471249240928125E+02
             -0.248622699579997E+02
             -0.212426927313345E+01
              0.122153084345441E+03
              0.195198116523172E+02
              0.121052438733576E+03
              0.432053003670771E+02
             -0.156439679273779E+03
             -0.531918873516105E+02
              0.535302266826052E+02
              0.120555264727395E+03
              0.230427361450895E+02
              0.470950766826218E+02
              0.113523626448638E+03
             -0.659759583632029E+02
             -0.107189595202608E+03
              0.139264731583589E+03
              0.241811477673627E+01
             -0.147666277686892E+03
              0.494908548127535E+02
              0.976569131270541E+02
             -0.226256398763521E+02
             -0.925541137108833E+02
              0.165589920926058E+02
              0.597277004464104E+01
             -0.506432494108485E+02
              0.182907936954052E+02
             -0.156868257013255E+02
              0.217744295235864E+03
              0.600857126285158E+02
             -0.998265489308705E+02
              0.302189789491407E+02
              0.139785732210299E+03
             -0.896484707925902E+02
             -0.237910126832943E+02
             -0.792683191304026E+02
              0.634110506951602E+02
              0.268489316041922E+02
              0.421410970255880E+02
              0.327811230665077E+01
              0.157031346964215E+03
             -0.877219536168691E+02
             -0.665734002186108E+02
             -0.735373776359806E+02
              0.631791829575434E+02
              0.151066466470267E+03
             -0.192008518575936E+02
              0.623570193021267E+02
             -0.845193627864123E+02
              0.855467636281878E+01
             -0.250339835834217E+02
             -0.824666211760473E+01
             -0.359159491685123E+02
             -0.330099746830165E+02
             -0.243845673981171E+02
              0.259871523919777E+02
              0.440922401766212E+02
             -0.101311391753056E+03
              0.736502637421587E+02
             -0.119016061768966E+03
              0.888856574662510E+02
             -0.103025868132802E+03
              0.155996562886187E+03
              0.832042993993334E+02
              0.929277106508593E+02
              0.213146233454212E+02
              0.239722723863310E+02
             -0.209444108790633E+03
              0.358285214979509E+02
              0.951329243465239E+01
              0.165409159627427E+02
             -0.312675065016277E+02
              0.163107432639098E+03
             -0.494112827902140E+02
             -0.644449470274590E+02
             -0.161519398308957E+03
             -0.537134224012887E+02
             -0.734137972218439E+02
             -0.650659139323167E+02
             -0.178520975473310E+02
             -0.340945132339345E+02
             -0.451691162818976E+02
             -0.678228852274981E+02
              0.505030522894276E+02
              0.167237175938138E+03
              0.142632301263573E+03
             -0.282026960673086E+02
             -0.174949174305773E+03
             -0.735980217124611E+02
              0.336365570935737E+02
              0.374456498011759E+02
              0.541973321413319E+02
              0.420571336338216E+02
              0.136575401641257E+02
              0.162039460397649E+03
             -0.401668842154588E+02
              0.821439753102052E+02
              0.378236296950088E+02
             -0.529900728685263E+02
             -0.333163581483660E+02
              0.748644400903632E+02
             -0.434496694628650E+02
             -0.307419333609029E+02
             -0.199867180372704E+02
              0.935038398082081E+02
             -0.125411785488029E+03
             -0.136515255137188E+02
             -0.102663923985822E+03
             -0.221937915012650E+03
              0.754171871368158E+00
             -0.275332824634016E+02
              0.761920998534428E+02
              0.906517331905286E+02
              0.124287825348020E+03
             -0.817550694771148E+02
              0.133015125104276E+03
              0.348495512591938E+02
             -0.398387275728892E+02
              0.239840210434664E+02
             -0.420907688443499E+02
             -0.295800360866090E+02
              0.677811300811782E+02
             -0.659563377338900E+02
              0.160592577755967E+03
             -0.411203278573039E+02
             -0.859265427409620E+02
              0.163497368499625E+03
             -0.918746366833843E+02
             -0.135844849908678E+02
              0.166734585435870E+02
              0.507085718308097E+02
             -0.749025073876694E+02
             -0.561047361323791E+02
              0.852910644343768E+02
             -0.138261845851214E+03
              0.101586004825245E+03
              0.132308294979729E+02
              0.793411553879872E+02
              0.110035802298730E+03
              0.278686418876923E+02
             -0.144970340615146E+03
             -0.639157108721501E+02
             -0.107020426396067E+03
             -0.670795111354453E+02
             -0.219044257418918E+02
              0.264091182488933E+02
             -0.502935328843441E+02
              0.347578276682407E+01
             -0.162540904961978E+03
              0.404100383367688E+01
             -0.102852207027075E+03
              0.101018491801737E+03
             -0.544075907716682E+02
             -0.106471096775071E+02
              0.727176022165540E+02
              0.780278343198038E+01
              0.723016896793834E+02
             -0.129815451834167E+03
              0.284716402410545E+02
              0.885680104643794E+01
              0.522842934858535E+02
              0.936557419227672E+02
             -0.164476154542883E+02
             -0.102629414507613E+03
             -0.588025069881742E+02
             -0.404988928223398E+02
             -0.196672218203641E+02
              0.968542008594591E+02
              0.596519325785649E+02
             -0.623951302003736E+02
             -0.567357940631446E+02
              0.468781097842395E+02
              0.459556206137839E+02
             -0.127435621080122E+03
              0.356180984669604E+02
              0.934166123415321E+02
             -0.461666651569809E+01
              0.109554648299121E+03
              0.554626519862229E+02
              0.875415283282863E+02
              0.133053850095714E+03
              0.219269287976230E+02
             -0.185766931637875E+03
              0.191025290441094E+02
              0.206115863677855E+03
              0.148380300510985E+03
             -0.994574024783016E+02
              0.993933754246381E+01
              0.129209657368642E+03
              0.117368220633765E+03
              0.559039579322737E+02
             -0.295681228285878E+02
              0.535208676856139E+02
              0.112240040907013E+03
             -0.502277051523306E+02
             -0.359846710691958E+02
              0.701150472762233E+02
             -0.497238686348368E+01
              0.659374259367831E+02
             -0.164975369961270E+02
              0.135667001802682E+03
             -0.517640668480975E+02
              0.311003458217345E+02
             -0.631338457588322E+02
              0.640380564962300E+02
             -0.848118751797108E+01
              0.101287875318711E+03
              0.711694117360651E+01
              0.401337547483845E+02
             -0.671963669114522E+02
             -0.413120872847455E+02
             -0.194966980534784E+02
             -0.168606674622424E+02
              0.106270103826418E+03
              0.441538793879197E+02
              0.136366627718860E+03
              0.113773068000382E+03
              0.254669038102594E+02
              0.956946072814361E+00
              0.133354537967798E+03
              0.701883125670989E+02
              0.191934259371169E+01
              0.118455597580105E+03
             -0.106279284261689E+03
              0.348126920879459E+02
             -0.669361476825785E+02
             -0.265878489390743E+02
              0.170706154670056E+03
             -0.261000499032598E+02
             -0.129972626262474E+01
             -0.224403112794117E+02
              0.141899602160428E+03
             -0.330415991264823E+02
             -0.391597677281533E+01
              0.286287038680849E+03
             -0.924538737426619E+02
             -0.989442879775451E+02
             -0.103643881080157E+03
             -0.607984331689318E+02
              0.605008434675281E+02
             -0.258334962624995E+02
              0.166886957545964E+02
             -0.528545763294392E+01
              0.363093103518476E+02
              0.590675850310136E+02
              0.681904981506766E+02
              0.100033631843828E+03
              0.553725323721044E+02
              0.701539429716349E+02
             -0.113547424935325E+03
             -0.108879734446597E+03
             -0.274478687962203E+02
             -0.106619652465881E+03
              0.170568511100498E+03
              0.146191599841709E+03
              0.699081585394385E+02
              0.189297441089378E+03
             -0.985126228502640E+02
             -0.400750868776405E+02
             -0.558749173640816E+02
              0.156667394110152E+03
 
 BEEF-vdW xc energy contributions
            1 :    -1434.325053934698     
            2 :     1291.781728609668     
            3 :    -1053.190450569867     
            4 :     788.6760530014727     
            5 :    -559.7219229653078     
            6 :     395.7103286206923     
            7 :    -290.7917374606438     
            8 :     219.3826733193755     
            9 :    -157.8182777458233     
           10 :     98.05787499676467     
           11 :    -46.89949162641551     
           12 :     14.78449981201265     
           13 :    -4.443877467118909     
           14 :     7.772468719230119     
           15 :    -11.86805695778048     
           16 :     8.223938572432644     
           17 :     2.428396663150579     
           18 :    -12.80352508996066     
           19 :     16.28014780172953     
           20 :    -12.52644339604672     
           21 :     7.343431380374113     
           22 :    -7.498640902953412     
           23 :     15.16087342585070     
           24 :    -26.40147664991650     
           25 :     34.60314779644386     
           26 :    -35.67555545681444     
           27 :     30.83430946363978     
           28 :    -24.99955271510885     
           29 :     22.49680609031975     
           30 :    -23.71894812253595     
           31 :    -122.6130589457398     
           32 :    -83.96282397171058     

     Writing all to output data dir ./GaN.save/
 
     init_run     :      4.73s CPU      6.07s WALL (       1 calls)
     electrons    :     46.02s CPU     47.09s WALL (       1 calls)
     forces       :      2.49s CPU      2.51s WALL (       1 calls)
     stress       :     36.58s CPU     36.79s WALL (       1 calls)

     Called by init_run:
     wfcinit      :      1.12s CPU      2.08s WALL (       1 calls)
     potinit      :      1.84s CPU      2.15s WALL (       1 calls)
     hinit0       :      0.33s CPU      0.35s WALL (       1 calls)

     Called by electrons:
     c_bands      :     41.45s CPU     42.41s WALL (       2 calls)
     sum_band     :      3.32s CPU      3.37s WALL (       2 calls)
     v_of_rho     :      1.78s CPU      2.09s WALL (       2 calls)
     v_h          :      0.01s CPU      0.01s WALL (       2 calls)
     v_xc         :     16.49s CPU     16.91s WALL (      38 calls)
     newd         :      0.15s CPU      0.16s WALL (       2 calls)
     PAW_pot      :      0.83s CPU      0.84s WALL (       2 calls)
     mix_rho      :      0.00s CPU      0.00s WALL (       2 calls)
     vdW_kernel   :      0.95s CPU      1.21s WALL (       1 calls)

     Called by c_bands:
     init_us_2    :      0.21s CPU      0.22s WALL (      12 calls)
     init_us_2:cp :      0.21s CPU      0.22s WALL (      12 calls)
     cegterg      :     39.67s CPU     40.36s WALL (       4 calls)

     Called by sum_band:
     sum_band:wei :      0.00s CPU      0.00s WALL (       2 calls)
     sum_band:loo :      3.06s CPU      3.09s WALL (       2 calls)
     sum_band:buf :      0.05s CPU      0.05s WALL (       4 calls)
     sum_band:ini :      0.08s CPU      0.08s WALL (       4 calls)
     sum_band:cal :      0.62s CPU      0.62s WALL (       4 calls)
     sum_band:bec :      0.01s CPU      0.01s WALL (       4 calls)
     addusdens    :      0.20s CPU      0.22s WALL (       2 calls)
     addusd:skk   :      0.02s CPU      0.02s WALL (       4 calls)
     addusd:dgemm :      0.08s CPU      0.10s WALL (       4 calls)
     addusd:qvan2 :      0.04s CPU      0.04s WALL (       4 calls)

     Called by *egterg:
     cdiaghg      :     20.47s CPU     20.65s WALL (      28 calls)
     cegterg:over :      2.71s CPU      2.79s WALL (      28 calls)
     cegterg:upda :      1.26s CPU      1.31s WALL (      28 calls)
     cegterg:last :      0.54s CPU      0.54s WALL (       4 calls)
     h_psi        :     12.08s CPU     12.26s WALL (      32 calls)
     s_psi        :      1.43s CPU      1.43s WALL (      32 calls)
     g_psi        :      0.02s CPU      0.02s WALL (      28 calls)

     Called by h_psi:
     h_psi:calbec :      1.79s CPU      1.80s WALL (      32 calls)
     vloc_psi     :      8.81s CPU      8.89s WALL (      32 calls)
     add_vuspsi   :      1.43s CPU      1.45s WALL (      32 calls)

     General routines
     calbec       :      8.64s CPU      8.68s WALL (      46 calls)
     fft          :      7.77s CPU      7.85s WALL (    2232 calls)
     ffts         :      0.02s CPU      0.02s WALL (       4 calls)
     fftw         :     10.62s CPU     10.72s WALL (    8950 calls)
     interpolate  :      0.02s CPU      0.02s WALL (       2 calls)
 
     Parallel routines

     PAW routines
     PAW_pot      :      0.83s CPU      0.84s WALL (       2 calls)
     PAW_symme    :      0.00s CPU      0.00s WALL (       3 calls)
 
     PWSCF        :   1m45.16s CPU   1m49.51s WALL

 
   This run was terminated on:  13:55:20  23Mar2024            

=------------------------------------------------------------------------------=
   JOB DONE.
=------------------------------------------------------------------------------=
