
     Program PWSCF v.7.1 starts on 12Apr2024 at  8: 3:58 

     This program is part of the open-source Quantum ESPRESSO suite
     for quantum simulation of materials; please cite
         "P. Giannozzi et al., J. Phys.:Condens. Matter 21 395502 (2009);
         "P. Giannozzi et al., J. Phys.:Condens. Matter 29 465901 (2017);
         "P. Giannozzi et al., J. Chem. Phys. 152 154105 (2020);
          URL http://www.quantum-espresso.org", 
     in publications or presentations arising from this work. More details at
     http://www.quantum-espresso.org/quote

     Parallel version (MPI & OpenMP), running on     128 processor cores
     Number of MPI processes:               128
     Threads/MPI process:                     1

     MPI processes distributed on     1 nodes
     1862926 MiB available memory on the printing compute node when the environment starts
 
     Reading input from espresso.pwi
Warning: card &CELL ignored
Warning: card    CELL_DYNAMICS    = 'BFGS' ignored
Warning: card / ignored

     Current dimensions of program PWSCF are:
     Max number of different atomic species (ntypx) = 10
     Max number of k-points (npk) =  40000
     Max angular momentum in pseudopotentials (lmaxx) =  4
     file Ga.pbe-dn-kjpaw_psl.1.0.0.UPF: wavefunction(s)  4S renormalized
     file N.pbe-n-kjpaw_psl.1.0.0.UPF: wavefunction(s)  2S renormalized

     **************************************************************************
     Initializing libbeef V0.1.2 with the BEEF-vdW functional.
     Citation: Wellendorff et al., PRB 85, 235149 (2012).
     **************************************************************************


     IMPORTANT: XC functional enforced from input :
     Exchange-correlation= BEEF-VDW
                           (   1   4  43  14   2   0   0)
     Any further DFT definition will be discarded
     Please, verify this is what you really want

 
     K-points division:     npool     =       2
     R & G space division:  proc/nbgrp/npool/nimage =      64
     Subspace diagonalization in iterative solution of the eigenvalue problem:
     a serial algorithm will be used

 
     Parallelization info
     --------------------
     sticks:   dense  smooth     PW     G-vecs:    dense   smooth      PW
     Min         226     181     47                26979    19303    2571
     Max         228     182     48                26983    19308    2576
     Sum       14527   11629   3037              1726709  1235535  164709
 
     Using Slab Decomposition
 


     bravais-lattice index     =            4
     lattice parameter (alat)  =      24.5252  a.u.
     unit-cell volume          =   15616.6055 (a.u.)^3
     number of atoms/cell      =          191
     number of atomic types    =            2
     number of electrons       =      1718.00
     number of Kohn-Sham states=         1031
     kinetic-energy cutoff     =      70.0000  Ry
     charge density cutoff     =     350.0000  Ry
     scf convergence threshold =      1.0E-07
     mixing beta               =       0.7000
     number of iterations used =            8  plain     mixing
     Exchange-correlation= BEEF-VDW
                           (   1   4  43  14   2   0   0)

     celldm(1)=  24.525232  celldm(2)=   0.000000  celldm(3)=   1.222409
     celldm(4)=   0.000000  celldm(5)=   0.000000  celldm(6)=   0.000000

     crystal axes: (cart. coord. in units of alat)
               a(1) = (   1.000000   0.000000   0.000000 )  
               a(2) = (  -0.500000   0.866025   0.000000 )  
               a(3) = (   0.000000   0.000000   1.222409 )  

     reciprocal axes: (cart. coord. in units 2 pi/alat)
               b(1) = (  1.000000  0.577350 -0.000000 )  
               b(2) = (  0.000000  1.154701  0.000000 )  
               b(3) = (  0.000000 -0.000000  0.818057 )  


     PseudoPot. # 1 for Ga read from file:
     //group///packages/espresso/pseudo/psl_1.0.0/pslibrary.1.0.0/pbe/PSEUDOPOTENTIALS/Ga.pbe-dn-kjpaw_psl.1.0.0.UPF
     MD5 check sum: cd2a01e492f15b435d17032472d8505c
     Pseudo is Projector augmented-wave + core cor, Zval = 13.0
     Generated using 'atomic' code by A. Dal Corso  v.7.1
     Shape of augmentation charge: PSQ
     Using radial grid of 1205 points,  6 beta functions with: 
                l(1) =   0
                l(2) =   0
                l(3) =   1
                l(4) =   1
                l(5) =   2
                l(6) =   2
     Q(r) pseudized with 0 coefficients 


     PseudoPot. # 2 for N  read from file:
     //group///packages/espresso/pseudo/psl_1.0.0/pslibrary.1.0.0/pbe/PSEUDOPOTENTIALS/N.pbe-n-kjpaw_psl.1.0.0.UPF
     MD5 check sum: f77f775694dac7e2c3fe1c82443d1a16
     Pseudo is Projector augmented-wave + core cor, Zval =  5.0
     Generated using 'atomic' code by A. Dal Corso  v.7.1
     Shape of augmentation charge: PSQ
     Using radial grid of 1085 points,  4 beta functions with: 
                l(1) =   0
                l(2) =   0
                l(3) =   1
                l(4) =   1
     Q(r) pseudized with 0 coefficients 


     atomic species   valence    mass     pseudopotential
        Ga            13.00    69.72300     Ga( 1.00)
        N              5.00    14.00700     N ( 1.00)

      6 Sym. Ops. (no inversion) found ( 4 have fractional translation)


                                    s                        frac. trans.

      isym =  1     identity                                     

 cryst.   s( 1) = (     1          0          0      )
                  (     0          1          0      )
                  (     0          0          1      )

 cart.    s( 1) = (  1.0000000  0.0000000  0.0000000 )
                  (  0.0000000  1.0000000  0.0000000 )
                  (  0.0000000  0.0000000  1.0000000 )


      isym =  2     120 deg rotation - cryst. axis [0,0,1]       

 cryst.   s( 2) = (     0          1          0      )    f =( -0.2500000 )
                  (    -1         -1          0      )       (  0.0000002 )
                  (     0          0          1      )       (  0.0000000 )

 cart.    s( 2) = ( -0.5000000 -0.8660254  0.0000000 )    f =( -0.2500001 )
                  (  0.8660254 -0.5000000  0.0000000 )       (  0.0000002 )
                  (  0.0000000  0.0000000  1.0000000 )       (  0.0000000 )


      isym =  3     120 deg rotation - cryst. axis [0,0,-1]      

 cryst.   s( 3) = (    -1         -1          0      )    f =( -0.2500002 )
                  (     1          0          0      )       ( -0.2500000 )
                  (     0          0          1      )       (  0.0000000 )

 cart.    s( 3) = ( -0.5000000  0.8660254  0.0000000 )    f =( -0.1250002 )
                  ( -0.8660254 -0.5000000  0.0000000 )       ( -0.2165064 )
                  (  0.0000000  0.0000000  1.0000000 )       (  0.0000000 )


      isym =  4     inv. 180 deg rotation - cart. axis [1,0,0]   

 cryst.   s( 4) = (    -1          0          0      )    f =( -0.2500002 )
                  (     1          1          0      )       (  0.0000000 )
                  (     0          0          1      )       (  0.0000000 )

 cart.    s( 4) = ( -1.0000000  0.0000000  0.0000000 )    f =( -0.2500002 )
                  (  0.0000000  1.0000000  0.0000000 )       (  0.0000000 )
                  (  0.0000000  0.0000000  1.0000000 )       (  0.0000000 )


      isym =  5     inv. 180 deg rotation - cryst. axis [0,1,0]  

 cryst.   s( 5) = (     1          1          0      )
                  (     0         -1          0      )
                  (     0          0          1      )

 cart.    s( 5) = (  0.5000000  0.8660254  0.0000000 )
                  (  0.8660254 -0.5000000  0.0000000 )
                  (  0.0000000  0.0000000  1.0000000 )


      isym =  6     inv. 180 deg rotation - cryst. axis [1,1,0]  

 cryst.   s( 6) = (     0         -1          0      )    f =( -0.2500000 )
                  (    -1          0          0      )       ( -0.2500000 )
                  (     0          0          1      )       (  0.0000000 )

 cart.    s( 6) = (  0.5000000 -0.8660254  0.0000000 )    f =( -0.1250000 )
                  ( -0.8660254 -0.5000000  0.0000000 )       ( -0.2165064 )
                  (  0.0000000  0.0000000  1.0000000 )       (  0.0000000 )


     point group C_3v (3m)  
     there are  3 classes
     the character table:

       E     2C3   3s_v 
A_1    1.00  1.00  1.00
A_2    1.00  1.00 -1.00
E      2.00 -1.00  0.00

     the symmetry operations in each class and the name of the first element:

     E        1
          identity                                               
     2C3      2    3
          120 deg rotation - cryst. axis [0,0,1]                 
     3s_v     4    5    6
          inv. 180 deg rotation - cart. axis [1,0,0]             

   Cartesian axes

     site n.     atom                  positions (alat units)
         1           Ga  tau(   1) = (   0.1250001   0.0721687   0.6108633  )
         2           Ga  tau(   2) = (   0.1250001   0.0721687   1.0183331  )
         3           Ga  tau(   3) = (   0.0000001   0.2886751   0.2033935  )
         4           Ga  tau(   4) = (   0.0000001   0.2886751   0.6108633  )
         5           Ga  tau(   5) = (   0.0000001   0.2886751   1.0183331  )
         6           Ga  tau(   6) = (  -0.1249999   0.5051814   0.2033935  )
         7           Ga  tau(   7) = (  -0.1249999   0.5051814   0.6108633  )
         8           Ga  tau(   8) = (  -0.1249999   0.5051814   1.0183331  )
         9           Ga  tau(   9) = (  -0.2499999   0.7216878   0.2033935  )
        10           Ga  tau(  10) = (  -0.2499999   0.7216878   0.6108633  )
        11           Ga  tau(  11) = (  -0.2499999   0.7216878   1.0183331  )
        12           Ga  tau(  12) = (   0.3750001   0.0721687   0.2033935  )
        13           Ga  tau(  13) = (   0.3750001   0.0721687   0.6108633  )
        14           Ga  tau(  14) = (   0.3750001   0.0721687   1.0183331  )
        15           Ga  tau(  15) = (   0.2500001   0.2886751   0.2033935  )
        16           Ga  tau(  16) = (   0.2500001   0.2886751   0.6108633  )
        17           Ga  tau(  17) = (   0.2500001   0.2886751   1.0183331  )
        18           Ga  tau(  18) = (   0.1250001   0.5051814   0.2033935  )
        19           Ga  tau(  19) = (   0.1250001   0.5051814   0.6108633  )
        20           Ga  tau(  20) = (   0.1250001   0.5051814   1.0183331  )
        21           Ga  tau(  21) = (   0.0000001   0.7216878   0.2033935  )
        22           Ga  tau(  22) = (   0.0000001   0.7216878   0.6108633  )
        23           Ga  tau(  23) = (   0.0000001   0.7216878   1.0183331  )
        24           Ga  tau(  24) = (   0.6250001   0.0721687   0.2033935  )
        25           Ga  tau(  25) = (   0.6250001   0.0721687   0.6108633  )
        26           Ga  tau(  26) = (   0.6250001   0.0721687   1.0183331  )
        27           Ga  tau(  27) = (   0.5000001   0.2886751   0.2033935  )
        28           Ga  tau(  28) = (   0.5000001   0.2886751   0.6108633  )
        29           Ga  tau(  29) = (   0.5000001   0.2886751   1.0183331  )
        30           Ga  tau(  30) = (   0.3750001   0.5051814   0.2033935  )
        31           Ga  tau(  31) = (   0.3750001   0.5051814   0.6108633  )
        32           Ga  tau(  32) = (   0.3750001   0.5051814   1.0183331  )
        33           Ga  tau(  33) = (   0.2500001   0.7216878   0.2033935  )
        34           Ga  tau(  34) = (   0.2500001   0.7216878   0.6108633  )
        35           Ga  tau(  35) = (   0.2500001   0.7216878   1.0183331  )
        36           Ga  tau(  36) = (   0.8750001   0.0721687   0.2033935  )
        37           Ga  tau(  37) = (   0.8750001   0.0721687   0.6108633  )
        38           Ga  tau(  38) = (   0.8750001   0.0721687   1.0183331  )
        39           Ga  tau(  39) = (   0.7500001   0.2886751   0.2033935  )
        40           Ga  tau(  40) = (   0.7500001   0.2886751   0.6108633  )
        41           Ga  tau(  41) = (   0.7500001   0.2886751   1.0183331  )
        42           Ga  tau(  42) = (   0.6250001   0.5051814   0.2033935  )
        43           Ga  tau(  43) = (   0.6250001   0.5051814   0.6108633  )
        44           Ga  tau(  44) = (   0.6250001   0.5051814   1.0183331  )
        45           Ga  tau(  45) = (   0.5000001   0.7216878   0.2033935  )
        46           Ga  tau(  46) = (   0.5000001   0.7216878   0.6108633  )
        47           Ga  tau(  47) = (   0.5000001   0.7216878   1.0183331  )
        48           Ga  tau(  48) = (  -0.0000002   0.1443377   0.4071284  )
        49           Ga  tau(  49) = (  -0.0000002   0.1443377   0.8145982  )
        50           Ga  tau(  50) = (  -0.0000002   0.1443377   1.2220680  )
        51           Ga  tau(  51) = (  -0.1250002   0.3608440   0.4071284  )
        52           Ga  tau(  52) = (  -0.1250002   0.3608440   0.8145982  )
        53           Ga  tau(  53) = (  -0.1250002   0.3608440   1.2220680  )
        54           Ga  tau(  54) = (  -0.2500002   0.5773504   0.4071284  )
        55           Ga  tau(  55) = (  -0.2500002   0.5773504   0.8145982  )
        56           Ga  tau(  56) = (  -0.2500002   0.5773504   1.2220680  )
        57           Ga  tau(  57) = (  -0.3750001   0.7938567   0.4071284  )
        58           Ga  tau(  58) = (  -0.3750001   0.7938567   0.8145982  )
        59           Ga  tau(  59) = (  -0.3750001   0.7938567   1.2220680  )
        60           Ga  tau(  60) = (   0.2499998   0.1443377   0.4071284  )
        61           Ga  tau(  61) = (   0.2499998   0.1443377   0.8145982  )
        62           Ga  tau(  62) = (   0.2499998   0.1443377   1.2220680  )
        63           Ga  tau(  63) = (   0.1249998   0.3608440   0.4071284  )
        64           Ga  tau(  64) = (   0.1249998   0.3608440   0.8145982  )
        65           Ga  tau(  65) = (   0.1249998   0.3608440   1.2220680  )
        66           Ga  tau(  66) = (  -0.0000002   0.5773504   0.4071284  )
        67           Ga  tau(  67) = (  -0.0000002   0.5773504   0.8145982  )
        68           Ga  tau(  68) = (  -0.0000002   0.5773504   1.2220680  )
        69           Ga  tau(  69) = (  -0.1250002   0.7938567   0.4071284  )
        70           Ga  tau(  70) = (  -0.1250002   0.7938567   0.8145982  )
        71           Ga  tau(  71) = (  -0.1250002   0.7938567   1.2220680  )
        72           Ga  tau(  72) = (   0.4999998   0.1443377   0.4071284  )
        73           Ga  tau(  73) = (   0.4999998   0.1443377   0.8145982  )
        74           Ga  tau(  74) = (   0.4999998   0.1443377   1.2220680  )
        75           Ga  tau(  75) = (   0.3749998   0.3608440   0.4071284  )
        76           Ga  tau(  76) = (   0.3749998   0.3608440   0.8145982  )
        77           Ga  tau(  77) = (   0.3749998   0.3608440   1.2220680  )
        78           Ga  tau(  78) = (   0.2499998   0.5773504   0.4071284  )
        79           Ga  tau(  79) = (   0.2499998   0.5773504   0.8145982  )
        80           Ga  tau(  80) = (   0.2499998   0.5773504   1.2220680  )
        81           Ga  tau(  81) = (   0.1249998   0.7938567   0.4071284  )
        82           Ga  tau(  82) = (   0.1249998   0.7938567   0.8145982  )
        83           Ga  tau(  83) = (   0.1249998   0.7938567   1.2220680  )
        84           Ga  tau(  84) = (   0.7499998   0.1443377   0.4071284  )
        85           Ga  tau(  85) = (   0.7499998   0.1443377   0.8145982  )
        86           Ga  tau(  86) = (   0.7499998   0.1443377   1.2220680  )
        87           Ga  tau(  87) = (   0.6249998   0.3608440   0.4071284  )
        88           Ga  tau(  88) = (   0.6249998   0.3608440   0.8145982  )
        89           Ga  tau(  89) = (   0.6249998   0.3608440   1.2220680  )
        90           Ga  tau(  90) = (   0.4999998   0.5773504   0.4071284  )
        91           Ga  tau(  91) = (   0.4999998   0.5773504   0.8145982  )
        92           Ga  tau(  92) = (   0.4999998   0.5773504   1.2220680  )
        93           Ga  tau(  93) = (   0.3749998   0.7938567   0.4071284  )
        94           Ga  tau(  94) = (   0.3749998   0.7938567   0.8145982  )
        95           Ga  tau(  95) = (   0.3749998   0.7938567   1.2220680  )
        96           N   tau(  96) = (   0.1250001   0.0721687   0.3568774  )
        97           N   tau(  97) = (   0.1250001   0.0721687   0.7643472  )
        98           N   tau(  98) = (   0.1250001   0.0721687   1.1718169  )
        99           N   tau(  99) = (   0.0000001   0.2886751   0.3568774  )
       100           N   tau( 100) = (   0.0000001   0.2886751   0.7643472  )
       101           N   tau( 101) = (   0.0000001   0.2886751   1.1718169  )
       102           N   tau( 102) = (  -0.1249999   0.5051814   0.3568774  )
       103           N   tau( 103) = (  -0.1249999   0.5051814   0.7643472  )
       104           N   tau( 104) = (  -0.1249999   0.5051814   1.1718169  )
       105           N   tau( 105) = (  -0.2499999   0.7216878   0.3568774  )
       106           N   tau( 106) = (  -0.2499999   0.7216878   0.7643472  )
       107           N   tau( 107) = (  -0.2499999   0.7216878   1.1718169  )
       108           N   tau( 108) = (   0.3750001   0.0721687   0.3568774  )
       109           N   tau( 109) = (   0.3750001   0.0721687   0.7643472  )
       110           N   tau( 110) = (   0.3750001   0.0721687   1.1718169  )
       111           N   tau( 111) = (   0.2500001   0.2886751   0.3568774  )
       112           N   tau( 112) = (   0.2500001   0.2886751   0.7643472  )
       113           N   tau( 113) = (   0.2500001   0.2886751   1.1718169  )
       114           N   tau( 114) = (   0.1250001   0.5051814   0.3568774  )
       115           N   tau( 115) = (   0.1250001   0.5051814   0.7643472  )
       116           N   tau( 116) = (   0.1250001   0.5051814   1.1718169  )
       117           N   tau( 117) = (   0.0000001   0.7216878   0.3568774  )
       118           N   tau( 118) = (   0.0000001   0.7216878   0.7643472  )
       119           N   tau( 119) = (   0.0000001   0.7216878   1.1718169  )
       120           N   tau( 120) = (   0.6250001   0.0721687   0.3568774  )
       121           N   tau( 121) = (   0.6250001   0.0721687   0.7643472  )
       122           N   tau( 122) = (   0.6250001   0.0721687   1.1718169  )
       123           N   tau( 123) = (   0.5000001   0.2886751   0.3568774  )
       124           N   tau( 124) = (   0.5000001   0.2886751   0.7643472  )
       125           N   tau( 125) = (   0.5000001   0.2886751   1.1718169  )
       126           N   tau( 126) = (   0.3750001   0.5051814   0.3568774  )
       127           N   tau( 127) = (   0.3750001   0.5051814   0.7643472  )
       128           N   tau( 128) = (   0.3750001   0.5051814   1.1718169  )
       129           N   tau( 129) = (   0.2500001   0.7216878   0.3568774  )
       130           N   tau( 130) = (   0.2500001   0.7216878   0.7643472  )
       131           N   tau( 131) = (   0.2500001   0.7216878   1.1718169  )
       132           N   tau( 132) = (   0.8750001   0.0721687   0.3568774  )
       133           N   tau( 133) = (   0.8750001   0.0721687   0.7643472  )
       134           N   tau( 134) = (   0.8750001   0.0721687   1.1718169  )
       135           N   tau( 135) = (   0.7500001   0.2886751   0.3568774  )
       136           N   tau( 136) = (   0.7500001   0.2886751   0.7643472  )
       137           N   tau( 137) = (   0.7500001   0.2886751   1.1718169  )
       138           N   tau( 138) = (   0.6250001   0.5051814   0.3568774  )
       139           N   tau( 139) = (   0.6250001   0.5051814   0.7643472  )
       140           N   tau( 140) = (   0.6250001   0.5051814   1.1718169  )
       141           N   tau( 141) = (   0.5000001   0.7216878   0.3568774  )
       142           N   tau( 142) = (   0.5000001   0.7216878   0.7643472  )
       143           N   tau( 143) = (   0.5000001   0.7216878   1.1718169  )
       144           N   tau( 144) = (  -0.0000002   0.1443377   0.1531425  )
       145           N   tau( 145) = (  -0.0000002   0.1443377   0.5606123  )
       146           N   tau( 146) = (  -0.0000002   0.1443377   0.9680820  )
       147           N   tau( 147) = (  -0.1250002   0.3608440   0.1531425  )
       148           N   tau( 148) = (  -0.1250002   0.3608440   0.5606123  )
       149           N   tau( 149) = (  -0.1250002   0.3608440   0.9680820  )
       150           N   tau( 150) = (  -0.2500002   0.5773504   0.1531425  )
       151           N   tau( 151) = (  -0.2500002   0.5773504   0.5606123  )
       152           N   tau( 152) = (  -0.2500002   0.5773504   0.9680820  )
       153           N   tau( 153) = (  -0.3750001   0.7938567   0.1531425  )
       154           N   tau( 154) = (  -0.3750001   0.7938567   0.5606123  )
       155           N   tau( 155) = (  -0.3750001   0.7938567   0.9680820  )
       156           N   tau( 156) = (   0.2499998   0.1443377   0.1531425  )
       157           N   tau( 157) = (   0.2499998   0.1443377   0.5606123  )
       158           N   tau( 158) = (   0.2499998   0.1443377   0.9680820  )
       159           N   tau( 159) = (   0.1249998   0.3608440   0.1531425  )
       160           N   tau( 160) = (   0.1249998   0.3608440   0.5606123  )
       161           N   tau( 161) = (   0.1249998   0.3608440   0.9680820  )
       162           N   tau( 162) = (  -0.0000002   0.5773504   0.1531425  )
       163           N   tau( 163) = (  -0.0000002   0.5773504   0.5606123  )
       164           N   tau( 164) = (  -0.0000002   0.5773504   0.9680820  )
       165           N   tau( 165) = (  -0.1250002   0.7938567   0.1531425  )
       166           N   tau( 166) = (  -0.1250002   0.7938567   0.5606123  )
       167           N   tau( 167) = (  -0.1250002   0.7938567   0.9680820  )
       168           N   tau( 168) = (   0.4999998   0.1443377   0.1531425  )
       169           N   tau( 169) = (   0.4999998   0.1443377   0.5606123  )
       170           N   tau( 170) = (   0.4999998   0.1443377   0.9680820  )
       171           N   tau( 171) = (   0.3749998   0.3608440   0.1531425  )
       172           N   tau( 172) = (   0.3749998   0.3608440   0.5606123  )
       173           N   tau( 173) = (   0.3749998   0.3608440   0.9680820  )
       174           N   tau( 174) = (   0.2499998   0.5773504   0.1531425  )
       175           N   tau( 175) = (   0.2499998   0.5773504   0.5606123  )
       176           N   tau( 176) = (   0.2499998   0.5773504   0.9680820  )
       177           N   tau( 177) = (   0.1249998   0.7938567   0.1531425  )
       178           N   tau( 178) = (   0.1249998   0.7938567   0.5606123  )
       179           N   tau( 179) = (   0.1249998   0.7938567   0.9680820  )
       180           N   tau( 180) = (   0.7499998   0.1443377   0.1531425  )
       181           N   tau( 181) = (   0.7499998   0.1443377   0.5606123  )
       182           N   tau( 182) = (   0.7499998   0.1443377   0.9680820  )
       183           N   tau( 183) = (   0.6249998   0.3608440   0.1531425  )
       184           N   tau( 184) = (   0.6249998   0.3608440   0.5606123  )
       185           N   tau( 185) = (   0.6249998   0.3608440   0.9680820  )
       186           N   tau( 186) = (   0.4999998   0.5773504   0.1531425  )
       187           N   tau( 187) = (   0.4999998   0.5773504   0.5606123  )
       188           N   tau( 188) = (   0.4999998   0.5773504   0.9680820  )
       189           N   tau( 189) = (   0.3749998   0.7938567   0.1531425  )
       190           N   tau( 190) = (   0.3749998   0.7938567   0.5606123  )
       191           N   tau( 191) = (   0.3749998   0.7938567   0.9680820  )

   Crystallographic axes

     site n.     atom                  positions (cryst. coord.)
         1           Ga  tau(   1) = (  0.1666667  0.0833333  0.4997208  )
         2           Ga  tau(   2) = (  0.1666667  0.0833333  0.8330541  )
         3           Ga  tau(   3) = (  0.1666667  0.3333333  0.1663874  )
         4           Ga  tau(   4) = (  0.1666667  0.3333333  0.4997208  )
         5           Ga  tau(   5) = (  0.1666667  0.3333333  0.8330541  )
         6           Ga  tau(   6) = (  0.1666667  0.5833333  0.1663874  )
         7           Ga  tau(   7) = (  0.1666667  0.5833333  0.4997208  )
         8           Ga  tau(   8) = (  0.1666667  0.5833333  0.8330541  )
         9           Ga  tau(   9) = (  0.1666667  0.8333333  0.1663874  )
        10           Ga  tau(  10) = (  0.1666667  0.8333333  0.4997208  )
        11           Ga  tau(  11) = (  0.1666667  0.8333333  0.8330541  )
        12           Ga  tau(  12) = (  0.4166667  0.0833333  0.1663874  )
        13           Ga  tau(  13) = (  0.4166667  0.0833333  0.4997208  )
        14           Ga  tau(  14) = (  0.4166667  0.0833333  0.8330541  )
        15           Ga  tau(  15) = (  0.4166667  0.3333333  0.1663874  )
        16           Ga  tau(  16) = (  0.4166667  0.3333333  0.4997208  )
        17           Ga  tau(  17) = (  0.4166667  0.3333333  0.8330541  )
        18           Ga  tau(  18) = (  0.4166667  0.5833333  0.1663874  )
        19           Ga  tau(  19) = (  0.4166667  0.5833333  0.4997208  )
        20           Ga  tau(  20) = (  0.4166667  0.5833333  0.8330541  )
        21           Ga  tau(  21) = (  0.4166667  0.8333333  0.1663874  )
        22           Ga  tau(  22) = (  0.4166667  0.8333333  0.4997208  )
        23           Ga  tau(  23) = (  0.4166667  0.8333333  0.8330541  )
        24           Ga  tau(  24) = (  0.6666667  0.0833333  0.1663874  )
        25           Ga  tau(  25) = (  0.6666667  0.0833333  0.4997208  )
        26           Ga  tau(  26) = (  0.6666667  0.0833333  0.8330541  )
        27           Ga  tau(  27) = (  0.6666667  0.3333333  0.1663874  )
        28           Ga  tau(  28) = (  0.6666667  0.3333333  0.4997208  )
        29           Ga  tau(  29) = (  0.6666667  0.3333333  0.8330541  )
        30           Ga  tau(  30) = (  0.6666667  0.5833333  0.1663874  )
        31           Ga  tau(  31) = (  0.6666667  0.5833333  0.4997208  )
        32           Ga  tau(  32) = (  0.6666667  0.5833333  0.8330541  )
        33           Ga  tau(  33) = (  0.6666667  0.8333333  0.1663874  )
        34           Ga  tau(  34) = (  0.6666667  0.8333333  0.4997208  )
        35           Ga  tau(  35) = (  0.6666667  0.8333333  0.8330541  )
        36           Ga  tau(  36) = (  0.9166667  0.0833333  0.1663874  )
        37           Ga  tau(  37) = (  0.9166667  0.0833333  0.4997208  )
        38           Ga  tau(  38) = (  0.9166667  0.0833333  0.8330541  )
        39           Ga  tau(  39) = (  0.9166667  0.3333333  0.1663874  )
        40           Ga  tau(  40) = (  0.9166667  0.3333333  0.4997208  )
        41           Ga  tau(  41) = (  0.9166667  0.3333333  0.8330541  )
        42           Ga  tau(  42) = (  0.9166667  0.5833333  0.1663874  )
        43           Ga  tau(  43) = (  0.9166667  0.5833333  0.4997208  )
        44           Ga  tau(  44) = (  0.9166667  0.5833333  0.8330541  )
        45           Ga  tau(  45) = (  0.9166667  0.8333333  0.1663874  )
        46           Ga  tau(  46) = (  0.9166667  0.8333333  0.4997208  )
        47           Ga  tau(  47) = (  0.9166667  0.8333333  0.8330541  )
        48           Ga  tau(  48) = (  0.0833333  0.1666668  0.3330541  )
        49           Ga  tau(  49) = (  0.0833333  0.1666668  0.6663874  )
        50           Ga  tau(  50) = (  0.0833333  0.1666668  0.9997208  )
        51           Ga  tau(  51) = (  0.0833333  0.4166668  0.3330541  )
        52           Ga  tau(  52) = (  0.0833333  0.4166668  0.6663874  )
        53           Ga  tau(  53) = (  0.0833333  0.4166668  0.9997208  )
        54           Ga  tau(  54) = (  0.0833333  0.6666668  0.3330541  )
        55           Ga  tau(  55) = (  0.0833333  0.6666668  0.6663874  )
        56           Ga  tau(  56) = (  0.0833333  0.6666668  0.9997208  )
        57           Ga  tau(  57) = (  0.0833333  0.9166668  0.3330541  )
        58           Ga  tau(  58) = (  0.0833333  0.9166668  0.6663874  )
        59           Ga  tau(  59) = (  0.0833333  0.9166668  0.9997208  )
        60           Ga  tau(  60) = (  0.3333332  0.1666668  0.3330541  )
        61           Ga  tau(  61) = (  0.3333332  0.1666668  0.6663874  )
        62           Ga  tau(  62) = (  0.3333332  0.1666668  0.9997208  )
        63           Ga  tau(  63) = (  0.3333332  0.4166668  0.3330541  )
        64           Ga  tau(  64) = (  0.3333332  0.4166668  0.6663874  )
        65           Ga  tau(  65) = (  0.3333332  0.4166668  0.9997208  )
        66           Ga  tau(  66) = (  0.3333332  0.6666668  0.3330541  )
        67           Ga  tau(  67) = (  0.3333332  0.6666668  0.6663874  )
        68           Ga  tau(  68) = (  0.3333332  0.6666668  0.9997208  )
        69           Ga  tau(  69) = (  0.3333332  0.9166668  0.3330541  )
        70           Ga  tau(  70) = (  0.3333332  0.9166668  0.6663874  )
        71           Ga  tau(  71) = (  0.3333332  0.9166668  0.9997208  )
        72           Ga  tau(  72) = (  0.5833332  0.1666668  0.3330541  )
        73           Ga  tau(  73) = (  0.5833332  0.1666668  0.6663874  )
        74           Ga  tau(  74) = (  0.5833332  0.1666668  0.9997208  )
        75           Ga  tau(  75) = (  0.5833332  0.4166668  0.3330541  )
        76           Ga  tau(  76) = (  0.5833332  0.4166668  0.6663874  )
        77           Ga  tau(  77) = (  0.5833332  0.4166668  0.9997208  )
        78           Ga  tau(  78) = (  0.5833332  0.6666668  0.3330541  )
        79           Ga  tau(  79) = (  0.5833332  0.6666668  0.6663874  )
        80           Ga  tau(  80) = (  0.5833332  0.6666668  0.9997208  )
        81           Ga  tau(  81) = (  0.5833332  0.9166668  0.3330541  )
        82           Ga  tau(  82) = (  0.5833332  0.9166668  0.6663874  )
        83           Ga  tau(  83) = (  0.5833332  0.9166668  0.9997208  )
        84           Ga  tau(  84) = (  0.8333332  0.1666668  0.3330541  )
        85           Ga  tau(  85) = (  0.8333332  0.1666668  0.6663874  )
        86           Ga  tau(  86) = (  0.8333332  0.1666668  0.9997208  )
        87           Ga  tau(  87) = (  0.8333332  0.4166668  0.3330541  )
        88           Ga  tau(  88) = (  0.8333332  0.4166668  0.6663874  )
        89           Ga  tau(  89) = (  0.8333332  0.4166668  0.9997208  )
        90           Ga  tau(  90) = (  0.8333332  0.6666668  0.3330541  )
        91           Ga  tau(  91) = (  0.8333332  0.6666668  0.6663874  )
        92           Ga  tau(  92) = (  0.8333332  0.6666668  0.9997208  )
        93           Ga  tau(  93) = (  0.8333332  0.9166668  0.3330541  )
        94           Ga  tau(  94) = (  0.8333332  0.9166668  0.6663874  )
        95           Ga  tau(  95) = (  0.8333332  0.9166668  0.9997208  )
        96           N   tau(  96) = (  0.1666667  0.0833333  0.2919459  )
        97           N   tau(  97) = (  0.1666667  0.0833333  0.6252792  )
        98           N   tau(  98) = (  0.1666667  0.0833333  0.9586126  )
        99           N   tau(  99) = (  0.1666667  0.3333333  0.2919459  )
       100           N   tau( 100) = (  0.1666667  0.3333333  0.6252792  )
       101           N   tau( 101) = (  0.1666667  0.3333333  0.9586126  )
       102           N   tau( 102) = (  0.1666667  0.5833333  0.2919459  )
       103           N   tau( 103) = (  0.1666667  0.5833333  0.6252792  )
       104           N   tau( 104) = (  0.1666667  0.5833333  0.9586126  )
       105           N   tau( 105) = (  0.1666667  0.8333333  0.2919459  )
       106           N   tau( 106) = (  0.1666667  0.8333333  0.6252792  )
       107           N   tau( 107) = (  0.1666667  0.8333333  0.9586126  )
       108           N   tau( 108) = (  0.4166667  0.0833333  0.2919459  )
       109           N   tau( 109) = (  0.4166667  0.0833333  0.6252792  )
       110           N   tau( 110) = (  0.4166667  0.0833333  0.9586126  )
       111           N   tau( 111) = (  0.4166667  0.3333333  0.2919459  )
       112           N   tau( 112) = (  0.4166667  0.3333333  0.6252792  )
       113           N   tau( 113) = (  0.4166667  0.3333333  0.9586126  )
       114           N   tau( 114) = (  0.4166667  0.5833333  0.2919459  )
       115           N   tau( 115) = (  0.4166667  0.5833333  0.6252792  )
       116           N   tau( 116) = (  0.4166667  0.5833333  0.9586126  )
       117           N   tau( 117) = (  0.4166667  0.8333333  0.2919459  )
       118           N   tau( 118) = (  0.4166667  0.8333333  0.6252792  )
       119           N   tau( 119) = (  0.4166667  0.8333333  0.9586126  )
       120           N   tau( 120) = (  0.6666667  0.0833333  0.2919459  )
       121           N   tau( 121) = (  0.6666667  0.0833333  0.6252792  )
       122           N   tau( 122) = (  0.6666667  0.0833333  0.9586126  )
       123           N   tau( 123) = (  0.6666667  0.3333333  0.2919459  )
       124           N   tau( 124) = (  0.6666667  0.3333333  0.6252792  )
       125           N   tau( 125) = (  0.6666667  0.3333333  0.9586126  )
       126           N   tau( 126) = (  0.6666667  0.5833333  0.2919459  )
       127           N   tau( 127) = (  0.6666667  0.5833333  0.6252792  )
       128           N   tau( 128) = (  0.6666667  0.5833333  0.9586126  )
       129           N   tau( 129) = (  0.6666667  0.8333333  0.2919459  )
       130           N   tau( 130) = (  0.6666667  0.8333333  0.6252792  )
       131           N   tau( 131) = (  0.6666667  0.8333333  0.9586126  )
       132           N   tau( 132) = (  0.9166667  0.0833333  0.2919459  )
       133           N   tau( 133) = (  0.9166667  0.0833333  0.6252792  )
       134           N   tau( 134) = (  0.9166667  0.0833333  0.9586126  )
       135           N   tau( 135) = (  0.9166667  0.3333333  0.2919459  )
       136           N   tau( 136) = (  0.9166667  0.3333333  0.6252792  )
       137           N   tau( 137) = (  0.9166667  0.3333333  0.9586126  )
       138           N   tau( 138) = (  0.9166667  0.5833333  0.2919459  )
       139           N   tau( 139) = (  0.9166667  0.5833333  0.6252792  )
       140           N   tau( 140) = (  0.9166667  0.5833333  0.9586126  )
       141           N   tau( 141) = (  0.9166667  0.8333333  0.2919459  )
       142           N   tau( 142) = (  0.9166667  0.8333333  0.6252792  )
       143           N   tau( 143) = (  0.9166667  0.8333333  0.9586126  )
       144           N   tau( 144) = (  0.0833333  0.1666668  0.1252792  )
       145           N   tau( 145) = (  0.0833333  0.1666668  0.4586126  )
       146           N   tau( 146) = (  0.0833333  0.1666668  0.7919459  )
       147           N   tau( 147) = (  0.0833333  0.4166668  0.1252792  )
       148           N   tau( 148) = (  0.0833333  0.4166668  0.4586126  )
       149           N   tau( 149) = (  0.0833333  0.4166668  0.7919459  )
       150           N   tau( 150) = (  0.0833333  0.6666668  0.1252792  )
       151           N   tau( 151) = (  0.0833333  0.6666668  0.4586126  )
       152           N   tau( 152) = (  0.0833333  0.6666668  0.7919459  )
       153           N   tau( 153) = (  0.0833333  0.9166668  0.1252792  )
       154           N   tau( 154) = (  0.0833333  0.9166668  0.4586126  )
       155           N   tau( 155) = (  0.0833333  0.9166668  0.7919459  )
       156           N   tau( 156) = (  0.3333332  0.1666668  0.1252792  )
       157           N   tau( 157) = (  0.3333332  0.1666668  0.4586126  )
       158           N   tau( 158) = (  0.3333332  0.1666668  0.7919459  )
       159           N   tau( 159) = (  0.3333332  0.4166668  0.1252792  )
       160           N   tau( 160) = (  0.3333332  0.4166668  0.4586126  )
       161           N   tau( 161) = (  0.3333332  0.4166668  0.7919459  )
       162           N   tau( 162) = (  0.3333332  0.6666668  0.1252792  )
       163           N   tau( 163) = (  0.3333332  0.6666668  0.4586126  )
       164           N   tau( 164) = (  0.3333332  0.6666668  0.7919459  )
       165           N   tau( 165) = (  0.3333332  0.9166668  0.1252792  )
       166           N   tau( 166) = (  0.3333332  0.9166668  0.4586126  )
       167           N   tau( 167) = (  0.3333332  0.9166668  0.7919459  )
       168           N   tau( 168) = (  0.5833332  0.1666668  0.1252792  )
       169           N   tau( 169) = (  0.5833332  0.1666668  0.4586126  )
       170           N   tau( 170) = (  0.5833332  0.1666668  0.7919459  )
       171           N   tau( 171) = (  0.5833332  0.4166668  0.1252792  )
       172           N   tau( 172) = (  0.5833332  0.4166668  0.4586126  )
       173           N   tau( 173) = (  0.5833332  0.4166668  0.7919459  )
       174           N   tau( 174) = (  0.5833332  0.6666668  0.1252792  )
       175           N   tau( 175) = (  0.5833332  0.6666668  0.4586126  )
       176           N   tau( 176) = (  0.5833332  0.6666668  0.7919459  )
       177           N   tau( 177) = (  0.5833332  0.9166668  0.1252792  )
       178           N   tau( 178) = (  0.5833332  0.9166668  0.4586126  )
       179           N   tau( 179) = (  0.5833332  0.9166668  0.7919459  )
       180           N   tau( 180) = (  0.8333332  0.1666668  0.1252792  )
       181           N   tau( 181) = (  0.8333332  0.1666668  0.4586126  )
       182           N   tau( 182) = (  0.8333332  0.1666668  0.7919459  )
       183           N   tau( 183) = (  0.8333332  0.4166668  0.1252792  )
       184           N   tau( 184) = (  0.8333332  0.4166668  0.4586126  )
       185           N   tau( 185) = (  0.8333332  0.4166668  0.7919459  )
       186           N   tau( 186) = (  0.8333332  0.6666668  0.1252792  )
       187           N   tau( 187) = (  0.8333332  0.6666668  0.4586126  )
       188           N   tau( 188) = (  0.8333332  0.6666668  0.7919459  )
       189           N   tau( 189) = (  0.8333332  0.9166668  0.1252792  )
       190           N   tau( 190) = (  0.8333332  0.9166668  0.4586126  )
       191           N   tau( 191) = (  0.8333332  0.9166668  0.7919459  )

     number of k points=     4  Gaussian smearing, width (Ry)=  0.0100
                       cart. coord. in units 2pi/alat
        k(    1) = (   0.0000000   0.0000000   0.0000000), wk =   0.2500000
        k(    2) = (   0.0000000   0.0000000  -0.4090283), wk =   0.2500000
        k(    3) = (   0.0000000  -0.5773503   0.0000000), wk =   0.7500000
        k(    4) = (   0.0000000  -0.5773503  -0.4090283), wk =   0.7500000

                       cryst. coord.
        k(    1) = (   0.0000000   0.0000000   0.0000000), wk =   0.2500000
        k(    2) = (   0.0000000   0.0000000  -0.5000000), wk =   0.2500000
        k(    3) = (   0.0000000  -0.5000000   0.0000000), wk =   0.7500000
        k(    4) = (   0.0000000  -0.5000000  -0.5000000), wk =   0.7500000

     Dense  grid:  1726709 G-vectors     FFT dimensions: ( 160, 160, 180)

     Smooth grid:  1235535 G-vectors     FFT dimensions: ( 144, 144, 160)

     Dynamical RAM for                 wfc:      37.96 MB

     Dynamical RAM for     wfc (w. buffer):     113.88 MB

     Dynamical RAM for           str. fact:       0.82 MB

     Dynamical RAM for           local pot:       0.00 MB

     Dynamical RAM for          nlocal pot:      91.24 MB

     Dynamical RAM for                qrad:       3.00 MB

     Dynamical RAM for          rho,v,vnew:       2.99 MB

     Dynamical RAM for               rhoin:       1.00 MB

     Dynamical RAM for            rho*nmix:       6.59 MB

     Dynamical RAM for           G-vectors:       1.69 MB

     Dynamical RAM for          h,s,v(r/c):     778.54 MB

     Dynamical RAM for          <psi|beta>:      38.98 MB

     Dynamical RAM for                 psi:     151.84 MB

     Dynamical RAM for                hpsi:     151.84 MB

     Dynamical RAM for                spsi:     151.84 MB

     Dynamical RAM for      wfcinit/wfcrot:     100.26 MB

     Dynamical RAM for           addusdens:      58.25 MB

     Dynamical RAM for          addusforce:      97.74 MB

     Dynamical RAM for         addusstress:      41.48 MB

     Estimated static dynamical RAM per process >     218.79 MB

     Estimated max dynamical RAM per process >       1.46 GB

     Estimated total dynamical RAM >     186.89 GB

     Atomic positions and unit cell read from directory:
     ./GaN.save/
     Atomic positions from file used, from input discarded
 

     Check: negative core charge=   -0.000003

     The initial density is read from file :
     ./GaN.save/charge-density



     %%%%%%%%%%%%%%%%%%%%%%%%%%%%%%%%%%%%%%%%%%%%%%%%%%%%%%%%%%%%%%%%%%%%%%%%
     %                                                                      %
     % You are using vdW-DF, which was implemented by the Thonhauser group. %
     % Please cite the following two papers that made this development      %
     % possible and the two reviews that describe the various versions:     %
     %                                                                      %
     %   T. Thonhauser et al., PRL 115, 136402 (2015).                      %
     %   T. Thonhauser et al., PRB 76, 125112 (2007).                       %
     %   K. Berland et al., Rep. Prog. Phys. 78, 066501 (2015).             %
     %   D.C. Langreth et al., J. Phys.: Condens. Matter 21, 084203 (2009). %
     %                                                                      %
     % If you are calculating stress with vdW-DF, please also cite:         %
     %                                                                      %
     %   R. Sabatini et al., J. Phys.: Condens. Matter 24, 424209 (2012).   %
     %                                                                      %
     %%%%%%%%%%%%%%%%%%%%%%%%%%%%%%%%%%%%%%%%%%%%%%%%%%%%%%%%%%%%%%%%%%%%%%%%

     %%%%%%%%%%%%%%%%%%%%%%%%%%%%%%%%%%%%%%%%%%%%%%%%%%%%%%%%%%%%%%%%%%%%%%%%
     %                                                                      %
     %  vdW-DF NEWS:                                                        %
     %                                                                      %
     %  * vdW-DF3 is now available. DOI: 10.1021/acs.jctc.0c00471           %
     %    use with input_dft = 'vdW-DF3-opt1' or 'vdW-DF3-opt2'             %
     %                                                                      %
     %  * Unscreened and range-separated vdW-DF hybrid functionals          %
     %    DOI: 10.1063/1.4986522 and 10.1088/1361-648X/ac2ad2               %
     %    use with input_dft = 'vdW-DF-cx0' (etc) and 'vdW-DF-ahcx'         %
     %                                                                      %
     %%%%%%%%%%%%%%%%%%%%%%%%%%%%%%%%%%%%%%%%%%%%%%%%%%%%%%%%%%%%%%%%%%%%%%%%


     Carrying out vdW-DF run using the following parameters:
     Nqs    =  20  Npoints =  1024  r_max =  100.000
     q_mesh =  0.00001000  0.04494208  0.09755937  0.15916263
               0.23128650  0.31572767  0.41458969  0.53033537
               0.66584808  0.82450364  1.01025438  1.22772762
               1.48234092  1.78043706  2.12944203  2.53805004
               3.01644009  3.57652955  4.23227104  5.00000000


     -----------------------------------------------
     Non-local corr. energy    =      51.87771557 Ry
     -----------------------------------------------

     Starting wfcs from file
     Checking if some PAW data can be deallocated... 
       PAW data deallocated on   80 nodes for type:  1
       PAW data deallocated on   47 nodes for type:  2

     total cpu time spent up to now is       19.1 secs

     Self-consistent Calculation

     iteration #  1     ecut=    70.00 Ry     beta= 0.70
     Davidson diagonalization with overlap

---- Real-time Memory Report at c_bands before calling an iterative solver
           371 MiB given to the printing process from OS
             0 MiB allocation reported by mallinfo(arena+hblkhd)
       1825332 MiB available memory on the node where the printing process lives
------------------
     ethr =  1.00E-05,  avg # of iterations =  1.0

     Threshold (ethr) on eigenvalues was too large:
     Diagonalizing with lowered threshold

     Davidson diagonalization with overlap

---- Real-time Memory Report at c_bands before calling an iterative solver
          1110 MiB given to the printing process from OS
             0 MiB allocation reported by mallinfo(arena+hblkhd)
       1815996 MiB available memory on the node where the printing process lives
------------------
     ethr =  3.15E-12,  avg # of iterations = 15.5


     -----------------------------------------------
     Non-local corr. energy    =      51.87771536 Ry
     -----------------------------------------------


     total cpu time spent up to now is      597.6 secs

     End of self-consistent calculation

          k = 0.0000 0.0000 0.0000 (154543 PWs)   bands (ev):

    -7.0472  -6.8314  -6.7867  -6.7805  -6.7726  -6.7726  -6.7445  -6.7445
    -6.7144  -6.6709  -6.6643  -6.6610  -6.6592  -6.6591  -6.6570  -6.6569
    -6.6484  -6.6422  -6.6422  -6.6386  -6.6386  -6.6308  -6.6308  -6.6248
    -6.6248  -6.6165  -6.6088  -6.6068  -6.6068  -6.6058  -6.5998  -6.5998
    -6.5970  -6.5905  -6.5875  -6.5875  -6.5844  -6.5841  -6.5839  -6.5839
    -6.5678  -6.5678  -6.5643  -6.5637  -6.5600  -6.5448  -6.5448  -6.5345
    -6.5345  -6.5312  -6.5212  -6.5212  -6.5178  -6.5136  -6.5136  -6.5048
    -6.5004  -6.5004  -6.4977  -6.4977  -6.4931  -6.4801  -6.4777  -6.4777
    -6.4603  -6.4542  -6.4542  -6.4441  -6.4310  -6.4153  -6.4153  -6.3972
    -6.3972  -6.3845  -6.3762  -6.3762  -6.3548  -6.3548  -6.3466  -6.3369
    -6.3369  -6.3339  -6.3102  -6.3102  -6.3075  -6.2909  -6.2909  -6.2763
    -6.2703  -6.2547  -6.2547  -6.1728  -5.8097  -5.7500  -5.7306  -5.7305
    -5.5647  -5.5647  -5.5397  -5.5364  -5.5340  -5.5340  -5.5299  -5.5299
    -5.5283  -5.5197  -5.5189  -5.5189  -5.5156  -5.5156  -5.5129  -5.5124
    -5.5123  -5.5123  -5.5062  -5.5062  -5.4970  -5.4970  -5.4964  -5.4951
    -5.4951  -5.4933  -5.4933  -5.4879  -5.4861  -5.4861  -5.4843  -5.4823
    -5.4800  -5.4800  -5.4788  -5.4788  -5.4711  -5.4616  -5.4594  -5.4590
    -5.4590  -5.4579  -5.4541  -5.4535  -5.4535  -5.4524  -5.4524  -5.4483
    -5.4480  -5.4480  -5.4424  -5.4424  -5.4407  -5.4406  -5.4385  -5.4383
    -5.4383  -5.4369  -5.4369  -5.4332  -5.4301  -5.4301  -5.4289  -5.4266
    -5.4266  -5.4234  -5.4234  -5.4196  -5.4183  -5.4183  -5.4175  -5.4174
    -5.4174  -5.4156  -5.4156  -5.4132  -5.4093  -5.4093  -5.4080  -5.4041
    -5.4041  -5.4040  -5.4040  -5.4032  -5.4030  -5.4011  -5.4011  -5.3981
    -5.3981  -5.3966  -5.3949  -5.3949  -5.3940  -5.3911  -5.3902  -5.3902
    -5.3891  -5.3891  -5.3868  -5.3837  -5.3836  -5.3836  -5.3745  -5.3745
    -5.3741  -5.3734  -5.3734  -5.3726  -5.3706  -5.3699  -5.3699  -5.3689
    -5.3675  -5.3675  -5.3641  -5.3633  -5.3633  -5.3613  -5.3611  -5.3611
    -5.3604  -5.3604  -5.3603  -5.3588  -5.3579  -5.3568  -5.3568  -5.3539
    -5.3539  -5.3538  -5.3528  -5.3528  -5.3496  -5.3467  -5.3467  -5.3438
    -5.3432  -5.3428  -5.3428  -5.3408  -5.3390  -5.3390  -5.3355  -5.3355
    -5.3349  -5.3335  -5.3335  -5.3326  -5.3308  -5.3308  -5.3301  -5.3276
    -5.3276  -5.3256  -5.3256  -5.3234  -5.3234  -5.3215  -5.3215  -5.3205
    -5.3191  -5.3191  -5.3185  -5.3162  -5.3146  -5.3146  -5.3134  -5.3130
    -5.3130  -5.3113  -5.3083  -5.3083  -5.3082  -5.3081  -5.3049  -5.3049
    -5.3027  -5.3027  -5.3014  -5.3012  -5.3004  -5.3004  -5.2975  -5.2965
    -5.2965  -5.2949  -5.2949  -5.2926  -5.2909  -5.2909  -5.2906  -5.2905
    -5.2896  -5.2896  -5.2841  -5.2841  -5.2841  -5.2839  -5.2830  -5.2830
    -5.2823  -5.2823  -5.2817  -5.2744  -5.2744  -5.2731  -5.2726  -5.2726
    -5.2712  -5.2708  -5.2708  -5.2685  -5.2674  -5.2668  -5.2668  -5.2648
    -5.2648  -5.2627  -5.2601  -5.2601  -5.2580  -5.2580  -5.2572  -5.2566
    -5.2546  -5.2546  -5.2492  -5.2492  -5.2468  -5.2457  -5.2457  -5.2456
    -5.2425  -5.2415  -5.2390  -5.2390  -5.2373  -5.2361  -5.2361  -5.2323
    -5.2323  -5.2319  -5.2311  -5.2311  -5.2263  -5.2263  -5.2231  -5.2231
    -5.2229  -5.2212  -5.2202  -5.2202  -5.2154  -5.2145  -5.2145  -5.2145
    -5.2121  -5.2120  -5.2101  -5.2101  -5.2091  -5.2078  -5.2078  -5.2068
    -5.2059  -5.2059  -5.2045  -5.2045  -5.2040  -5.2034  -5.1990  -5.1990
    -5.1959  -5.1950  -5.1937  -5.1937  -5.1883  -5.1828  -5.1828  -5.1815
    -5.1809  -5.1794  -5.1794  -5.1790  -5.1726  -5.1726  -5.1721  -5.1697
    -5.1697  -5.1624  -5.1624  -5.1615  -5.1615  -5.1614  -5.1504  -5.1504
    -5.1503  -5.1492  -5.1492  -5.1484  -5.1479  -5.1479  -5.1393  -5.1379
    -5.1338  -5.1338  -5.1251  -5.1251  -5.1232  -5.1216  -5.1212  -5.1212
    -5.1209  -5.1209  -5.1138  -5.1133  -5.1133  -5.1064  -5.1064  -5.1062
    -5.0993  -5.0922  -5.0922  -5.0688  -5.0688  -5.0634  -5.0572  -5.0438
    -5.0438  -5.0437  -5.0377  -5.0377  -5.0301  -5.0271  -5.0270  -5.0046
    -4.9849  -4.9695  -4.9695  -4.9680  -4.9543  -4.9543  -4.9228  -4.9228
    -4.8898  -4.8898  -4.8751  -4.8629  -4.8499  -4.8499  -4.8357  -4.8357
    -4.8296  -4.8279  -4.8279  -4.8031  -4.7927  -4.7875  -4.7875  -4.7770
    -4.7770  -4.7644  -4.7547  -4.7470  -4.7470  -4.7450  -4.7303  -4.7303
    -4.7181  -4.7181  -4.7120  -4.7120  -4.7120  -4.7113  -4.7037  -4.6928
    -4.6888  -4.6888  -4.6829  -4.6829  -4.6717  -4.6717  -4.6633  -4.6611
    -4.6611  -4.6489  -4.6489  -4.6421  -4.6421  -4.6419  -4.6273  -4.6273
    -4.6225  -4.6163  -4.6068  -4.6068  -4.6029  -4.5683  -4.5683  -4.4713
    -4.4071  -4.3553  -3.9921  -3.9864  -3.9864  -3.9781  -3.9621  -3.9621
    -3.9561  -3.9540  -3.9540  -3.9535  -3.9411  -3.9411  -3.8819  -3.8819
    -3.8574  -3.8574  -3.8177  -3.8137  -3.8137  -3.8042  -3.7729  -3.7729
    -3.7528  -3.7494  -3.7494  -3.7485  -3.7238  -3.6923  -3.6923  -3.6718
    -3.6718  -3.6525  -3.6218  -3.6216  -3.6216  -3.6025  -3.5946  -3.4972
    -3.4972  -3.3785  -3.3642  -3.3641  -3.3629  -3.3452  -3.3452  -3.3349
    -3.3013  -3.3013  -3.2980  -3.2672  -3.2672  -3.2625  -3.2625  -3.2548
    -3.2290  -3.2290  -3.1948  -3.1948  -3.1947  -3.1725  -3.1312  -3.1312
    -3.0931  -3.0374  -3.0374  -2.9993  -2.9226  -2.9226  -2.8595  -2.4971
    -2.4184  -2.3764  -2.3763   1.9397   2.1222   2.1222   2.1294   2.1434
     2.1477   2.1477   2.4644   2.4644   2.4672   2.5730   2.6046   2.6047
     2.6649   2.6649   2.6749   2.6750   2.6776   2.6776   2.6842   2.7036
     2.7190   2.7190   2.7272   2.7272   2.7336   2.7414   2.7563   2.7564
     2.7644   2.7977   2.8057   2.8057   2.8352   3.0355   3.0355   3.0864
     3.1420   3.1510   3.1510   3.1746   3.1746   3.1949   3.1950   3.2039
     3.2284   3.2284   3.2307   3.3122   3.3170   3.3170   3.3850   3.3971
     3.4171   3.4328   3.4328   3.4328   3.4575   3.4706   3.4706   3.5171
     3.5171   3.5563   3.5600   3.5600   3.5889   3.5889   3.7102   3.7433
     3.7433   3.7596   3.8265   3.8317   3.8317   4.5715   4.6599   4.6599
     4.6834   4.7200   4.7339   4.7406   4.7407   4.7580   4.7580   4.7627
     4.7628   4.7711   4.7861   4.8009   4.8009   4.8185   4.8185   4.8233
     4.8233   4.8246   4.8325   4.8325   4.8722   4.8747   4.8747   4.8781
     4.9160   4.9405   4.9405   4.9810   4.9810   4.9941   5.0009   5.0118
     5.0328   5.0328   5.0676   5.0896   5.0925   5.0925   5.0972   5.0973
     5.3536   5.3536   5.6578   5.7305   5.7364   5.7365   5.7678   5.7678
     5.7707   5.7905   5.7940   5.7940   5.8394   5.8394   5.8429   5.8768
     5.8768   5.9003   5.9271   5.9271   5.9321   5.9375   5.9397   5.9488
     5.9522   5.9522   5.9823   5.9823   5.9985   5.9985   6.0024   6.0210
     6.0210   6.0283   6.0400   6.0400   6.0521   6.0521   6.0783   6.1578
     6.1578   6.2710   6.2731   6.2731   6.2781   6.2781   6.2908   6.3147
     6.3408   6.3408   6.3545   6.3545   6.3582   6.3837   6.4091   6.4205
     6.4205   6.4984   6.5405   6.5405   6.5639   6.5982   6.5982   6.6337
     6.6606   6.6950   6.6970   6.6970   6.7210   6.7252   6.7252   6.7452
     6.7646   6.7646   6.8050   6.8050   6.8527   6.8981   6.8982   6.9228
     6.9448   6.9448   7.0425   7.0573   7.0573   7.0855   7.0957   7.0958
     7.1210   7.1424   7.1435   7.1435   7.1651   7.1651   7.1723   7.1838
     7.1910   7.1911   7.1940   7.1941   7.2225   7.2410   7.2410   7.2854
     7.3160   7.3160   7.3364   7.3364   7.3440   7.3727   7.3807   7.3807
     7.4176   7.4176   7.4373   7.4519   7.4542   7.4698   7.4699   7.4750
     7.5041   7.5041   7.5220   7.5220   7.5757   7.5757   7.6272   7.6273
     7.7056   7.7056   7.7081   7.7129   7.7481   7.7482   7.7567   7.7691
     7.7691   7.7884   7.8046   7.8047   7.8067   7.8213   7.8214   7.8760
     7.9062   7.9063   7.9080   7.9374   7.9374   7.9643   7.9643   8.0469
     8.1004   8.1004   8.1646   8.1646   8.2242   8.2473   8.2473   8.3465
     8.3733   8.3733   8.4332   8.4333   8.6015   8.6690   8.6691   8.7563
     9.5603   9.7544   9.7544  10.2002  11.8798  11.9347  12.4753  12.5139
    12.5485  12.5486  12.6009  12.6009  12.6496  12.6731  12.6795  12.6796
    12.6870  12.7093  12.7093  12.7349  12.8399  12.9143  12.9466  12.9466
    13.0022  13.0029  13.0030  13.0364  13.0364  13.1011  13.1022  13.1023
    13.3271  13.5119  13.5119  13.5190  13.5619  13.5619  13.5792  13.8003
    13.8004  13.8413  13.9239  13.9239  13.9646  14.1353  14.1416  14.1417
    14.1524  14.1525  14.1758  14.1779  14.1779  14.1812  14.1865  14.1865
    14.2133  14.2224  14.2225  14.2261  14.2261  14.2398  14.2522  14.2522
    14.2642  14.3007  14.3039  14.3039  14.3570  14.3994  14.4249  14.4249
    14.5256  14.5256  14.5321  14.5373  14.5740  14.5740  14.5988  14.5988
    14.6581  14.7202  14.7202  14.7207  14.7476  14.7476  14.7546  14.7546
    14.7551  14.7691  14.7890  14.7890  14.8275  14.8526  14.8526  14.9145
    14.9288  14.9377  14.9377  15.1073  15.1073  15.4655  15.7162  15.7337
    15.7337  15.7380  15.7380  15.7507  15.7641  15.7642  15.7687  15.7702
    15.7703  15.8132  15.9280  15.9291  15.9291  15.9501  15.9501  15.9623
    15.9623  15.9861  15.9966  15.9966  15.9996  16.0008  16.0008  16.0059
    16.0220  16.0431  16.0556  16.0556  16.2280  16.2280  16.2322  16.2369
    16.2369  16.2392  16.2409  16.2568  16.2568  16.2627  16.2628  16.2651
    16.2689  16.2689  16.2853  16.2853  16.2869  16.2991  16.3486  16.3519
    16.3519  16.3580  16.3746  16.4032  16.4094  16.4095  16.4154  16.4154
    16.4276  16.4330  16.4330  16.4490  16.4490  16.4512  16.5007  16.5007
    16.5282  16.5476  16.5476  16.5597  16.5597  16.5608  16.6537

     occupation numbers 
     1.0000   1.0000   1.0000   1.0000   1.0000   1.0000   1.0000   1.0000
     1.0000   1.0000   1.0000   1.0000   1.0000   1.0000   1.0000   1.0000
     1.0000   1.0000   1.0000   1.0000   1.0000   1.0000   1.0000   1.0000
     1.0000   1.0000   1.0000   1.0000   1.0000   1.0000   1.0000   1.0000
     1.0000   1.0000   1.0000   1.0000   1.0000   1.0000   1.0000   1.0000
     1.0000   1.0000   1.0000   1.0000   1.0000   1.0000   1.0000   1.0000
     1.0000   1.0000   1.0000   1.0000   1.0000   1.0000   1.0000   1.0000
     1.0000   1.0000   1.0000   1.0000   1.0000   1.0000   1.0000   1.0000
     1.0000   1.0000   1.0000   1.0000   1.0000   1.0000   1.0000   1.0000
     1.0000   1.0000   1.0000   1.0000   1.0000   1.0000   1.0000   1.0000
     1.0000   1.0000   1.0000   1.0000   1.0000   1.0000   1.0000   1.0000
     1.0000   1.0000   1.0000   1.0000   1.0000   1.0000   1.0000   1.0000
     1.0000   1.0000   1.0000   1.0000   1.0000   1.0000   1.0000   1.0000
     1.0000   1.0000   1.0000   1.0000   1.0000   1.0000   1.0000   1.0000
     1.0000   1.0000   1.0000   1.0000   1.0000   1.0000   1.0000   1.0000
     1.0000   1.0000   1.0000   1.0000   1.0000   1.0000   1.0000   1.0000
     1.0000   1.0000   1.0000   1.0000   1.0000   1.0000   1.0000   1.0000
     1.0000   1.0000   1.0000   1.0000   1.0000   1.0000   1.0000   1.0000
     1.0000   1.0000   1.0000   1.0000   1.0000   1.0000   1.0000   1.0000
     1.0000   1.0000   1.0000   1.0000   1.0000   1.0000   1.0000   1.0000
     1.0000   1.0000   1.0000   1.0000   1.0000   1.0000   1.0000   1.0000
     1.0000   1.0000   1.0000   1.0000   1.0000   1.0000   1.0000   1.0000
     1.0000   1.0000   1.0000   1.0000   1.0000   1.0000   1.0000   1.0000
     1.0000   1.0000   1.0000   1.0000   1.0000   1.0000   1.0000   1.0000
     1.0000   1.0000   1.0000   1.0000   1.0000   1.0000   1.0000   1.0000
     1.0000   1.0000   1.0000   1.0000   1.0000   1.0000   1.0000   1.0000
     1.0000   1.0000   1.0000   1.0000   1.0000   1.0000   1.0000   1.0000
     1.0000   1.0000   1.0000   1.0000   1.0000   1.0000   1.0000   1.0000
     1.0000   1.0000   1.0000   1.0000   1.0000   1.0000   1.0000   1.0000
     1.0000   1.0000   1.0000   1.0000   1.0000   1.0000   1.0000   1.0000
     1.0000   1.0000   1.0000   1.0000   1.0000   1.0000   1.0000   1.0000
     1.0000   1.0000   1.0000   1.0000   1.0000   1.0000   1.0000   1.0000
     1.0000   1.0000   1.0000   1.0000   1.0000   1.0000   1.0000   1.0000
     1.0000   1.0000   1.0000   1.0000   1.0000   1.0000   1.0000   1.0000
     1.0000   1.0000   1.0000   1.0000   1.0000   1.0000   1.0000   1.0000
     1.0000   1.0000   1.0000   1.0000   1.0000   1.0000   1.0000   1.0000
     1.0000   1.0000   1.0000   1.0000   1.0000   1.0000   1.0000   1.0000
     1.0000   1.0000   1.0000   1.0000   1.0000   1.0000   1.0000   1.0000
     1.0000   1.0000   1.0000   1.0000   1.0000   1.0000   1.0000   1.0000
     1.0000   1.0000   1.0000   1.0000   1.0000   1.0000   1.0000   1.0000
     1.0000   1.0000   1.0000   1.0000   1.0000   1.0000   1.0000   1.0000
     1.0000   1.0000   1.0000   1.0000   1.0000   1.0000   1.0000   1.0000
     1.0000   1.0000   1.0000   1.0000   1.0000   1.0000   1.0000   1.0000
     1.0000   1.0000   1.0000   1.0000   1.0000   1.0000   1.0000   1.0000
     1.0000   1.0000   1.0000   1.0000   1.0000   1.0000   1.0000   1.0000
     1.0000   1.0000   1.0000   1.0000   1.0000   1.0000   1.0000   1.0000
     1.0000   1.0000   1.0000   1.0000   1.0000   1.0000   1.0000   1.0000
     1.0000   1.0000   1.0000   1.0000   1.0000   1.0000   1.0000   1.0000
     1.0000   1.0000   1.0000   1.0000   1.0000   1.0000   1.0000   1.0000
     1.0000   1.0000   1.0000   1.0000   1.0000   1.0000   1.0000   1.0000
     1.0000   1.0000   1.0000   1.0000   1.0000   1.0000   1.0000   1.0000
     1.0000   1.0000   1.0000   1.0000   1.0000   1.0000   1.0000   1.0000
     1.0000   1.0000   1.0000   1.0000   1.0000   1.0000   1.0000   1.0000
     1.0000   1.0000   1.0000   1.0000   1.0000   1.0000   1.0000   1.0000
     1.0000   1.0000   1.0000   1.0000   1.0000   1.0000   1.0000   1.0000
     1.0000   1.0000   1.0000   1.0000   1.0000   1.0000   1.0000   1.0000
     1.0000   1.0000   1.0000   1.0000   1.0000   1.0000   1.0000   1.0000
     1.0000   1.0000   1.0000   1.0000   1.0000   1.0000   1.0000   1.0000
     1.0000   1.0000   1.0000   1.0000   1.0000   1.0000   1.0000   1.0000
     1.0000   1.0000   1.0000   1.0000   1.0000   1.0000   1.0000   1.0000
     1.0000   1.0000   1.0000   1.0000   1.0000   1.0000   1.0000   1.0000
     1.0000   1.0000   1.0000   1.0000   1.0000   1.0000   1.0000   1.0000
     1.0000   1.0000   1.0000   1.0000   1.0000   1.0000   1.0000   1.0000
     1.0000   1.0000   1.0000   1.0000   1.0000   1.0000   1.0000   1.0000
     1.0000   1.0000   1.0000   1.0000   1.0000   1.0000   1.0000   1.0000
     1.0000   1.0000   1.0000   1.0000   1.0000   1.0000   1.0000   1.0000
     1.0000   1.0000   1.0000   1.0000   1.0000   1.0000   1.0000   1.0000
     1.0000   1.0000   1.0000   1.0000   1.0000   1.0000   1.0000   1.0000
     1.0000   1.0000   1.0000   1.0000   1.0000   1.0000   1.0000   1.0000
     1.0000   1.0000   1.0000   1.0000   1.0000   1.0000   1.0000   1.0000
     1.0000   1.0000   1.0000   1.0000   1.0000   1.0000   1.0000   1.0000
     1.0000   1.0000   1.0000   1.0000   1.0000   1.0000   1.0000   1.0000
     1.0000   1.0000   1.0000   1.0000   1.0000   1.0000   1.0000   1.0000
     1.0000   1.0000   1.0000   1.0000   1.0000   1.0000   1.0000   1.0000
     1.0000   1.0000   1.0000   1.0000   1.0000   1.0000   1.0000   1.0000
     1.0000   1.0000   1.0000   1.0000   1.0000   1.0000   1.0000   1.0000
     1.0000   1.0000   1.0000   1.0000   1.0000   1.0000   1.0000   1.0000
     1.0000   1.0000   1.0000   1.0000   1.0000   1.0000   1.0000   1.0000
     1.0000   1.0000   1.0000   1.0000   1.0000   1.0000   1.0000   1.0000
     1.0000   1.0000   1.0000   1.0000   1.0000   1.0000   1.0000   1.0000
     1.0000   1.0000   1.0000   1.0000   1.0000   1.0000   1.0000   1.0000
     1.0000   1.0000   1.0000   1.0000   1.0000   1.0000   1.0000   1.0000
     1.0000   1.0000   1.0000   1.0000   1.0000   1.0000   1.0000   1.0000
     1.0000   1.0000   1.0000   1.0000   1.0000   1.0000   1.0000   1.0000
     1.0000   1.0000   1.0000   1.0000   1.0000   1.0000   1.0000   1.0000
     1.0000   1.0000   1.0000   1.0000   1.0000   1.0000   1.0000   1.0000
     1.0000   1.0000   1.0000   1.0000   1.0000   1.0000   1.0000   1.0000
     1.0000   1.0000   1.0000   1.0000   1.0000   1.0000   1.0000   1.0000
     1.0000   1.0000   1.0000   1.0000   1.0000   1.0000   1.0000   1.0000
     1.0000   1.0000   1.0000   1.0000   1.0000   1.0000   1.0000   1.0000
     1.0000   1.0000   1.0000   1.0000   1.0000   1.0000   1.0000   1.0000
     1.0000   1.0000   1.0000   1.0000   1.0000   1.0000   1.0000   1.0000
     1.0000   1.0000   1.0000   1.0000   1.0000   1.0000   1.0000   1.0000
     1.0000   1.0000   1.0000   1.0000   1.0000   1.0000   1.0000   1.0000
     1.0000   1.0000   1.0000   1.0000   1.0000   1.0000   1.0000   1.0000
     1.0000   1.0000   1.0000   1.0000   1.0000   1.0000   1.0000   1.0000
     1.0000   1.0000   1.0000   1.0000   1.0000   1.0000   1.0000   1.0000
     1.0000   1.0000   1.0000   1.0000   1.0000   1.0000   1.0000   1.0000
     1.0000   1.0000   1.0000   1.0000   1.0000   1.0000   1.0000   1.0000
     1.0000   1.0000   1.0000   1.0000   1.0000   1.0000   1.0000   1.0000
     1.0000   1.0000   1.0000   1.0000   1.0000   1.0000   1.0000   1.0000
     1.0000   1.0000   1.0000   1.0000   1.0000   1.0000   1.0000   1.0000
     1.0000   1.0000   1.0000   1.0000   1.0000   1.0000   1.0000   1.0000
     1.0000   1.0000   1.0000   1.0000   1.0000   1.0000   1.0000   1.0000
     1.0000   1.0000   1.0000   1.0000   1.0000   1.0000   1.0000   1.0000
     1.0000   1.0000   1.0000   1.0000   1.0000   1.0000   1.0000   1.0000
     1.0000   1.0000   1.0000   1.0000   1.0000   1.0000   1.0000   1.0000
     1.0000   0.9965   0.9965   0.0263   0.0000   0.0000   0.0000   0.0000
     0.0000   0.0000   0.0000   0.0000   0.0000   0.0000   0.0000   0.0000
     0.0000   0.0000   0.0000   0.0000   0.0000   0.0000   0.0000   0.0000
     0.0000   0.0000   0.0000   0.0000   0.0000   0.0000   0.0000   0.0000
     0.0000   0.0000   0.0000   0.0000   0.0000   0.0000   0.0000   0.0000
     0.0000   0.0000   0.0000   0.0000   0.0000   0.0000   0.0000   0.0000
     0.0000   0.0000   0.0000   0.0000   0.0000   0.0000   0.0000   0.0000
     0.0000   0.0000   0.0000   0.0000   0.0000   0.0000   0.0000   0.0000
     0.0000   0.0000   0.0000   0.0000   0.0000   0.0000   0.0000   0.0000
     0.0000   0.0000   0.0000   0.0000   0.0000   0.0000   0.0000   0.0000
     0.0000   0.0000   0.0000   0.0000   0.0000   0.0000   0.0000   0.0000
     0.0000   0.0000   0.0000   0.0000   0.0000   0.0000   0.0000   0.0000
     0.0000   0.0000   0.0000   0.0000   0.0000   0.0000   0.0000   0.0000
     0.0000   0.0000   0.0000   0.0000   0.0000   0.0000   0.0000   0.0000
     0.0000   0.0000   0.0000   0.0000   0.0000   0.0000   0.0000   0.0000
     0.0000   0.0000   0.0000   0.0000   0.0000   0.0000   0.0000   0.0000
     0.0000   0.0000   0.0000   0.0000   0.0000   0.0000   0.0000   0.0000
     0.0000   0.0000   0.0000   0.0000   0.0000   0.0000   0.0000   0.0000
     0.0000   0.0000   0.0000   0.0000   0.0000   0.0000   0.0000   0.0000
     0.0000   0.0000   0.0000   0.0000   0.0000   0.0000   0.0000   0.0000
     0.0000   0.0000   0.0000   0.0000   0.0000   0.0000   0.0000   0.0000
     0.0000   0.0000   0.0000   0.0000   0.0000   0.0000   0.0000

          k = 0.0000 0.0000-0.4090 (154532 PWs)   bands (ev):

    -7.0304  -6.8975  -6.7779  -6.7677  -6.7676  -6.7414  -6.7414  -6.7157
    -6.7122  -6.6899  -6.6753  -6.6732  -6.6732  -6.6601  -6.6570  -6.6570
    -6.6420  -6.6416  -6.6416  -6.6375  -6.6375  -6.6334  -6.6334  -6.6254
    -6.6254  -6.6193  -6.6084  -6.6077  -6.6058  -6.6057  -6.6008  -6.6006
    -6.6006  -6.5909  -6.5879  -6.5879  -6.5842  -6.5810  -6.5810  -6.5803
    -6.5662  -6.5662  -6.5646  -6.5642  -6.5568  -6.5448  -6.5448  -6.5334
    -6.5319  -6.5319  -6.5212  -6.5211  -6.5182  -6.5143  -6.5143  -6.5050
    -6.5003  -6.5003  -6.4981  -6.4981  -6.4936  -6.4792  -6.4768  -6.4768
    -6.4636  -6.4543  -6.4543  -6.4400  -6.4300  -6.4177  -6.4176  -6.3946
    -6.3946  -6.3855  -6.3765  -6.3765  -6.3546  -6.3546  -6.3469  -6.3365
    -6.3365  -6.3339  -6.3103  -6.3103  -6.3071  -6.2910  -6.2910  -6.2763
    -6.2703  -6.2546  -6.2546  -6.1728  -5.8097  -5.7500  -5.7305  -5.7305
    -5.5647  -5.5647  -5.5394  -5.5364  -5.5340  -5.5340  -5.5297  -5.5297
    -5.5282  -5.5197  -5.5189  -5.5188  -5.5155  -5.5155  -5.5127  -5.5124
    -5.5124  -5.5124  -5.5061  -5.5061  -5.4969  -5.4969  -5.4953  -5.4952
    -5.4952  -5.4932  -5.4932  -5.4877  -5.4860  -5.4860  -5.4843  -5.4814
    -5.4798  -5.4798  -5.4787  -5.4787  -5.4726  -5.4613  -5.4597  -5.4595
    -5.4595  -5.4583  -5.4542  -5.4542  -5.4541  -5.4526  -5.4526  -5.4497
    -5.4487  -5.4487  -5.4420  -5.4420  -5.4416  -5.4403  -5.4385  -5.4383
    -5.4383  -5.4373  -5.4373  -5.4320  -5.4304  -5.4304  -5.4289  -5.4261
    -5.4261  -5.4245  -5.4245  -5.4233  -5.4181  -5.4181  -5.4177  -5.4177
    -5.4172  -5.4152  -5.4152  -5.4134  -5.4090  -5.4090  -5.4078  -5.4053
    -5.4044  -5.4044  -5.4042  -5.4041  -5.4041  -5.4007  -5.4007  -5.3974
    -5.3974  -5.3967  -5.3946  -5.3946  -5.3938  -5.3898  -5.3898  -5.3888
    -5.3885  -5.3885  -5.3847  -5.3838  -5.3838  -5.3805  -5.3763  -5.3754
    -5.3745  -5.3745  -5.3729  -5.3729  -5.3706  -5.3696  -5.3696  -5.3695
    -5.3684  -5.3678  -5.3678  -5.3652  -5.3652  -5.3645  -5.3631  -5.3619
    -5.3619  -5.3616  -5.3596  -5.3583  -5.3583  -5.3557  -5.3557  -5.3547
    -5.3545  -5.3545  -5.3526  -5.3526  -5.3496  -5.3477  -5.3443  -5.3443
    -5.3437  -5.3423  -5.3423  -5.3416  -5.3386  -5.3371  -5.3371  -5.3363
    -5.3363  -5.3334  -5.3333  -5.3330  -5.3319  -5.3319  -5.3294  -5.3285
    -5.3285  -5.3249  -5.3248  -5.3245  -5.3245  -5.3223  -5.3207  -5.3207
    -5.3204  -5.3187  -5.3179  -5.3179  -5.3159  -5.3159  -5.3149  -5.3145
    -5.3130  -5.3130  -5.3117  -5.3098  -5.3098  -5.3078  -5.3078  -5.3065
    -5.3046  -5.3033  -5.3033  -5.3029  -5.3009  -5.3009  -5.3007  -5.2968
    -5.2968  -5.2947  -5.2947  -5.2937  -5.2933  -5.2899  -5.2899  -5.2894
    -5.2884  -5.2884  -5.2870  -5.2870  -5.2841  -5.2841  -5.2838  -5.2818
    -5.2803  -5.2803  -5.2786  -5.2739  -5.2739  -5.2731  -5.2731  -5.2731
    -5.2725  -5.2697  -5.2697  -5.2697  -5.2670  -5.2670  -5.2646  -5.2632
    -5.2632  -5.2627  -5.2625  -5.2625  -5.2582  -5.2580  -5.2580  -5.2551
    -5.2551  -5.2529  -5.2486  -5.2486  -5.2459  -5.2448  -5.2444  -5.2444
    -5.2424  -5.2413  -5.2401  -5.2401  -5.2352  -5.2352  -5.2336  -5.2336
    -5.2318  -5.2307  -5.2299  -5.2299  -5.2283  -5.2283  -5.2229  -5.2229
    -5.2216  -5.2194  -5.2194  -5.2154  -5.2154  -5.2147  -5.2129  -5.2110
    -5.2109  -5.2109  -5.2085  -5.2085  -5.2085  -5.2072  -5.2072  -5.2053
    -5.2053  -5.2050  -5.2050  -5.2048  -5.2034  -5.1988  -5.1988  -5.1972
    -5.1953  -5.1931  -5.1931  -5.1893  -5.1834  -5.1834  -5.1832  -5.1814
    -5.1791  -5.1791  -5.1780  -5.1736  -5.1729  -5.1729  -5.1691  -5.1691
    -5.1632  -5.1632  -5.1614  -5.1614  -5.1614  -5.1510  -5.1503  -5.1503
    -5.1494  -5.1494  -5.1485  -5.1480  -5.1480  -5.1444  -5.1378  -5.1332
    -5.1331  -5.1278  -5.1247  -5.1247  -5.1217  -5.1214  -5.1214  -5.1206
    -5.1206  -5.1137  -5.1132  -5.1132  -5.1075  -5.0993  -5.0950  -5.0950
    -5.0913  -5.0913  -5.0775  -5.0734  -5.0734  -5.0636  -5.0437  -5.0427
    -5.0427  -5.0422  -5.0331  -5.0331  -5.0320  -5.0251  -5.0251  -4.9982
    -4.9849  -4.9834  -4.9833  -4.9710  -4.9710  -4.9613  -4.9255  -4.9255
    -4.9058  -4.9058  -4.9045  -4.8788  -4.8751  -4.8627  -4.8627  -4.8376
    -4.8376  -4.8256  -4.8127  -4.8127  -4.8054  -4.8054  -4.7974  -4.7927
    -4.7806  -4.7806  -4.7644  -4.7609  -4.7609  -4.7454  -4.7297  -4.7297
    -4.7240  -4.7240  -4.7231  -4.7201  -4.7201  -4.7113  -4.7037  -4.6912
    -4.6912  -4.6911  -4.6826  -4.6826  -4.6768  -4.6768  -4.6682  -4.6601
    -4.6601  -4.6462  -4.6462  -4.6419  -4.6417  -4.6335  -4.6335  -4.6229
    -4.6229  -4.6225  -4.6029  -4.4510  -4.4247  -4.4041  -4.4041  -4.3856
    -4.3856  -4.3233  -4.3233  -4.2963  -4.2963  -4.2560  -4.1166  -3.9794
    -3.9794  -3.9621  -3.9561  -3.9561  -3.9519  -3.9500  -3.8298  -3.8298
    -3.8160  -3.8159  -3.8132  -3.8060  -3.7998  -3.7998  -3.7843  -3.7599
    -3.6363  -3.6363  -3.6116  -3.5941  -3.5728  -3.5728  -3.5668  -3.5668
    -3.5632  -3.5428  -3.5428  -3.5338  -3.5338  -3.5242  -3.4971  -3.4971
    -3.4838  -3.4838  -3.4741  -3.4600  -3.4482  -3.4482  -3.4457  -3.4360
    -3.4131  -3.4131  -3.3541  -3.3250  -3.3249  -3.2907  -3.2907  -3.2847
    -3.2476  -3.2476  -3.2168  -3.1285  -3.1285  -3.1016  -3.0763  -3.0763
    -3.0721  -3.0610  -3.0610  -3.0100  -2.9474  -2.9474  -2.8805  -2.4841
    -2.4354  -2.3794  -2.3794   2.1620   2.1620   2.1631   2.2328   2.2329
     2.2357   2.2987   2.3294   2.3472   2.3473   2.4484   2.4548   2.4549
     2.4762   2.7372   2.7372   2.7619   2.7619   2.7682   2.7705   2.7764
     2.7884   2.7884   2.7963   2.7964   2.8158   2.8158   2.8306   2.8486
     2.8487   2.8501   2.8709   2.8791   2.8791   2.8871   2.8968   2.9064
     2.9064   2.9545   2.9545   2.9871   3.0188   3.0188   3.0419   3.0420
     3.1121   3.1234   3.1543   3.1593   3.1594   3.1709   3.1709   3.3044
     3.3440   3.3441   3.4771   3.4771   3.4917   3.5128   3.5394   3.5394
     3.5750   3.6552   3.6552   3.7086   3.7734   3.7734   4.0763   4.0852
     4.1102   4.1103   4.1264   4.1353   4.1353   4.2071   4.2072   4.2286
     4.2286   4.2842   4.7120   4.7377   4.7484   4.7537   4.7537   4.7810
     4.7810   4.8828   4.8874   4.9018   4.9018   4.9023   4.9181   4.9182
     4.9266   4.9307   4.9308   4.9398   5.0027   5.0027   5.0051   5.0206
     5.0206   5.0217   5.0977   5.0988   5.0989   5.1412   5.1412   5.1571
     5.1793   5.1793   5.2200   5.2200   5.2515   5.2576   5.2773   5.2773
     5.3429   5.3429   5.4110   5.4190   5.4386   5.4427   5.4427   5.4428
     5.4656   5.4735   5.4819   5.4820   5.4902   5.4902   5.5002   5.5003
     5.5284   5.5333   5.5333   5.5631   5.5741   5.5741   5.6416   5.6750
     5.6751   5.6930   5.6931   5.8721   5.8728   5.8728   6.0575   6.0615
     6.0616   6.2562   6.2873   6.2873   6.3803   6.3841   6.3897   6.3897
     6.4676   6.4676   6.4923   6.5375   6.5789   6.5789   6.6223   6.6322
     6.6416   6.6416   6.6481   6.6481   6.6878   6.7005   6.7005   6.7216
     6.7216   6.7358   6.7397   6.7427   6.7428   6.7519   6.7519   6.7597
     6.7672   6.7673   6.7683   6.7683   6.7903   6.7962   6.7963   6.8072
     6.8118   6.8237   6.8237   6.8298   6.8532   6.8532   6.8976   6.9046
     6.9046   6.9340   6.9481   6.9482   6.9661   6.9661   6.9696   6.9831
     6.9831   6.9850   6.9884   6.9884   6.9907   6.9941   7.0031   7.0031
     7.0369   7.0424   7.0424   7.0807   7.1035   7.1035   7.1429   7.1554
     7.1554   7.1924   7.1924   7.2122   7.2663   7.2664   7.2823   7.3892
     7.4041   7.4041   7.4344   7.4470   7.4470   7.4489   7.4677   7.4677
     7.4845   7.4956   7.4963   7.4964   7.5097   7.5097   7.5814   7.5814
     7.6310   7.6311   7.6917   7.7487   7.7643   7.7785   7.7785   7.8174
     7.8511   7.8511   7.8560   7.8913   7.9204   7.9205   7.9431   7.9431
     7.9599   7.9599   7.9680   7.9791   7.9791   8.0011   8.0113   8.0114
     8.1245   8.1245   8.1291   8.1795   8.1796   8.1869   8.2032   8.2033
     8.2386   8.2387   8.3253   8.5274   8.5275   8.6470   8.6470   8.7843
     9.5184   9.7535   9.7535  10.8616  11.0024  12.4393  12.4965  12.5177
    12.5455  12.5456  12.5926  12.6000  12.6000  12.6283  12.6518  12.6928
    12.6929  12.7762  12.7762  12.8155  12.9417  12.9417  12.9437  12.9523
    12.9523  12.9642  12.9736  13.2075  13.2075  13.2175  13.3011  13.3012
    13.3645  13.5843  13.6083  13.6084  13.6255  13.6288  13.6289  13.6433
    13.6621  13.6621  13.6884  13.6884  13.7204  13.7205  13.7464  13.8610
    13.8998  13.8998  13.9707  14.2218  14.2379  14.2379  14.2466  14.2467
    14.2666  14.2714  14.2775  14.2776  14.2868  14.2868  14.2930  14.2930
    14.2985  14.3421  14.3700  14.3700  14.3968  14.4107  14.4608  14.4609
    14.4945  14.4945  14.5308  14.5389  14.5389  14.5945  14.6055  14.6057
    14.6057  14.6318  14.6393  14.6393  14.6583  14.6583  14.7063  14.7063
    14.7262  14.7740  14.8170  14.8170  14.8194  14.8584  14.8584  14.8917
    15.0853  15.0853  15.3443  15.5091  15.5091  15.5328  15.5573  15.5573
    15.6235  15.7856  15.7896  15.7896  15.7946  15.7983  15.7984  15.8954
    15.8955  15.9127  15.9346  15.9346  15.9354  15.9932  15.9978  15.9978
    16.0164  16.0164  16.0236  16.0236  16.0298  16.0322  16.0432  16.0432
    16.0571  16.0757  16.0827  16.0827  16.1005  16.1154  16.1154  16.1347
    16.1348  16.1421  16.1501  16.1501  16.1809  16.2101  16.2101  16.2160
    16.2160  16.2177  16.2641  16.2652  16.2652  16.2787  16.2805  16.2811
    16.2811  16.3589  16.3590  16.3630  16.3644  16.3721  16.3974  16.3975
    16.4012  16.4122  16.4122  16.4377  16.4566  16.4566  16.5244  16.5244
    16.5497  16.5497  16.5990  16.6679  16.6679  16.7274  16.7275

     occupation numbers 
     1.0000   1.0000   1.0000   1.0000   1.0000   1.0000   1.0000   1.0000
     1.0000   1.0000   1.0000   1.0000   1.0000   1.0000   1.0000   1.0000
     1.0000   1.0000   1.0000   1.0000   1.0000   1.0000   1.0000   1.0000
     1.0000   1.0000   1.0000   1.0000   1.0000   1.0000   1.0000   1.0000
     1.0000   1.0000   1.0000   1.0000   1.0000   1.0000   1.0000   1.0000
     1.0000   1.0000   1.0000   1.0000   1.0000   1.0000   1.0000   1.0000
     1.0000   1.0000   1.0000   1.0000   1.0000   1.0000   1.0000   1.0000
     1.0000   1.0000   1.0000   1.0000   1.0000   1.0000   1.0000   1.0000
     1.0000   1.0000   1.0000   1.0000   1.0000   1.0000   1.0000   1.0000
     1.0000   1.0000   1.0000   1.0000   1.0000   1.0000   1.0000   1.0000
     1.0000   1.0000   1.0000   1.0000   1.0000   1.0000   1.0000   1.0000
     1.0000   1.0000   1.0000   1.0000   1.0000   1.0000   1.0000   1.0000
     1.0000   1.0000   1.0000   1.0000   1.0000   1.0000   1.0000   1.0000
     1.0000   1.0000   1.0000   1.0000   1.0000   1.0000   1.0000   1.0000
     1.0000   1.0000   1.0000   1.0000   1.0000   1.0000   1.0000   1.0000
     1.0000   1.0000   1.0000   1.0000   1.0000   1.0000   1.0000   1.0000
     1.0000   1.0000   1.0000   1.0000   1.0000   1.0000   1.0000   1.0000
     1.0000   1.0000   1.0000   1.0000   1.0000   1.0000   1.0000   1.0000
     1.0000   1.0000   1.0000   1.0000   1.0000   1.0000   1.0000   1.0000
     1.0000   1.0000   1.0000   1.0000   1.0000   1.0000   1.0000   1.0000
     1.0000   1.0000   1.0000   1.0000   1.0000   1.0000   1.0000   1.0000
     1.0000   1.0000   1.0000   1.0000   1.0000   1.0000   1.0000   1.0000
     1.0000   1.0000   1.0000   1.0000   1.0000   1.0000   1.0000   1.0000
     1.0000   1.0000   1.0000   1.0000   1.0000   1.0000   1.0000   1.0000
     1.0000   1.0000   1.0000   1.0000   1.0000   1.0000   1.0000   1.0000
     1.0000   1.0000   1.0000   1.0000   1.0000   1.0000   1.0000   1.0000
     1.0000   1.0000   1.0000   1.0000   1.0000   1.0000   1.0000   1.0000
     1.0000   1.0000   1.0000   1.0000   1.0000   1.0000   1.0000   1.0000
     1.0000   1.0000   1.0000   1.0000   1.0000   1.0000   1.0000   1.0000
     1.0000   1.0000   1.0000   1.0000   1.0000   1.0000   1.0000   1.0000
     1.0000   1.0000   1.0000   1.0000   1.0000   1.0000   1.0000   1.0000
     1.0000   1.0000   1.0000   1.0000   1.0000   1.0000   1.0000   1.0000
     1.0000   1.0000   1.0000   1.0000   1.0000   1.0000   1.0000   1.0000
     1.0000   1.0000   1.0000   1.0000   1.0000   1.0000   1.0000   1.0000
     1.0000   1.0000   1.0000   1.0000   1.0000   1.0000   1.0000   1.0000
     1.0000   1.0000   1.0000   1.0000   1.0000   1.0000   1.0000   1.0000
     1.0000   1.0000   1.0000   1.0000   1.0000   1.0000   1.0000   1.0000
     1.0000   1.0000   1.0000   1.0000   1.0000   1.0000   1.0000   1.0000
     1.0000   1.0000   1.0000   1.0000   1.0000   1.0000   1.0000   1.0000
     1.0000   1.0000   1.0000   1.0000   1.0000   1.0000   1.0000   1.0000
     1.0000   1.0000   1.0000   1.0000   1.0000   1.0000   1.0000   1.0000
     1.0000   1.0000   1.0000   1.0000   1.0000   1.0000   1.0000   1.0000
     1.0000   1.0000   1.0000   1.0000   1.0000   1.0000   1.0000   1.0000
     1.0000   1.0000   1.0000   1.0000   1.0000   1.0000   1.0000   1.0000
     1.0000   1.0000   1.0000   1.0000   1.0000   1.0000   1.0000   1.0000
     1.0000   1.0000   1.0000   1.0000   1.0000   1.0000   1.0000   1.0000
     1.0000   1.0000   1.0000   1.0000   1.0000   1.0000   1.0000   1.0000
     1.0000   1.0000   1.0000   1.0000   1.0000   1.0000   1.0000   1.0000
     1.0000   1.0000   1.0000   1.0000   1.0000   1.0000   1.0000   1.0000
     1.0000   1.0000   1.0000   1.0000   1.0000   1.0000   1.0000   1.0000
     1.0000   1.0000   1.0000   1.0000   1.0000   1.0000   1.0000   1.0000
     1.0000   1.0000   1.0000   1.0000   1.0000   1.0000   1.0000   1.0000
     1.0000   1.0000   1.0000   1.0000   1.0000   1.0000   1.0000   1.0000
     1.0000   1.0000   1.0000   1.0000   1.0000   1.0000   1.0000   1.0000
     1.0000   1.0000   1.0000   1.0000   1.0000   1.0000   1.0000   1.0000
     1.0000   1.0000   1.0000   1.0000   1.0000   1.0000   1.0000   1.0000
     1.0000   1.0000   1.0000   1.0000   1.0000   1.0000   1.0000   1.0000
     1.0000   1.0000   1.0000   1.0000   1.0000   1.0000   1.0000   1.0000
     1.0000   1.0000   1.0000   1.0000   1.0000   1.0000   1.0000   1.0000
     1.0000   1.0000   1.0000   1.0000   1.0000   1.0000   1.0000   1.0000
     1.0000   1.0000   1.0000   1.0000   1.0000   1.0000   1.0000   1.0000
     1.0000   1.0000   1.0000   1.0000   1.0000   1.0000   1.0000   1.0000
     1.0000   1.0000   1.0000   1.0000   1.0000   1.0000   1.0000   1.0000
     1.0000   1.0000   1.0000   1.0000   1.0000   1.0000   1.0000   1.0000
     1.0000   1.0000   1.0000   1.0000   1.0000   1.0000   1.0000   1.0000
     1.0000   1.0000   1.0000   1.0000   1.0000   1.0000   1.0000   1.0000
     1.0000   1.0000   1.0000   1.0000   1.0000   1.0000   1.0000   1.0000
     1.0000   1.0000   1.0000   1.0000   1.0000   1.0000   1.0000   1.0000
     1.0000   1.0000   1.0000   1.0000   1.0000   1.0000   1.0000   1.0000
     1.0000   1.0000   1.0000   1.0000   1.0000   1.0000   1.0000   1.0000
     1.0000   1.0000   1.0000   1.0000   1.0000   1.0000   1.0000   1.0000
     1.0000   1.0000   1.0000   1.0000   1.0000   1.0000   1.0000   1.0000
     1.0000   1.0000   1.0000   1.0000   1.0000   1.0000   1.0000   1.0000
     1.0000   1.0000   1.0000   1.0000   1.0000   1.0000   1.0000   1.0000
     1.0000   1.0000   1.0000   1.0000   1.0000   1.0000   1.0000   1.0000
     1.0000   1.0000   1.0000   1.0000   1.0000   1.0000   1.0000   1.0000
     1.0000   1.0000   1.0000   1.0000   1.0000   1.0000   1.0000   1.0000
     1.0000   1.0000   1.0000   1.0000   1.0000   1.0000   1.0000   1.0000
[...]
              0.163287928867282E+03
              0.484842819107472E+01
              0.508982669245328E+03
              0.707169585904026E+02
             -0.742353131913414E+02
              0.290154867542160E+02
             -0.681800700333029E+02
              0.399796561819603E+03
             -0.236309395003951E+01
              0.763713043646542E+02
              0.277594617617151E+03
              0.744836299384574E+02
             -0.210818308659815E+03
             -0.341839259884930E+03
              0.191588444258887E+02
             -0.388943282391670E+03
              0.130393016923142E+03
             -0.674878575336675E+02
             -0.149804050969501E+03
              0.151752131625316E+03
              0.525700983602401E+02
              0.146012149571828E+03
              0.629346379003755E+01
              0.216806063764219E+03
             -0.368196802094660E+03
             -0.261987455686221E+02
             -0.323202193709260E+03
              0.721320342010908E+02
              0.177269356159117E+03
             -0.179830627933952E+02
             -0.118036036823911E+03
              0.265062720373592E+03
             -0.122715042053979E+03
              0.907000721171214E+02
             -0.779335605761371E+02
              0.209801049672601E+03
              0.220706225162290E+03
             -0.955798770432975E+02
              0.189418435623883E+03
              0.711110972558040E+02
             -0.191136252636533E+03
             -0.124774078095960E+03
              0.307014291181795E+03
              0.150620423338634E+03
             -0.129146357063879E+02
             -0.325745928357292E+02
              0.472892211809055E+03
              0.278803810077314E+03
              0.991872604428204E+02
             -0.297812513385238E+03
              0.477088737001824E+03
             -0.222840181898621E+03
             -0.275156253143562E+03
             -0.414522335667486E+03
              0.184846499822184E+03
             -0.372607900866413E+03
              0.168536252484543E+03
              0.272399849466522E+03
              0.193943994773202E+03
              0.494551149701969E+02
              0.128469769329038E+03
             -0.307133130673663E+03
             -0.109998845463766E+03
             -0.835298614655117E+02
              0.157664363010657E+03
              0.312222930620474E+03
              0.322798850670783E+03
              0.248921740252385E+03
             -0.570277902886651E+02
              0.793596974772640E+02
              0.432361525072042E+01
             -0.102334223063692E+03
              0.131546586106498E+03
              0.143177115093541E+03
             -0.181457986501571E+03
             -0.215767007620551E+03
             -0.851039787733238E+02
              0.224229523944291E+03
              0.107474674806507E+03
             -0.153844089893307E+03
             -0.235583109326913E+03
             -0.342952225229182E+03
              0.703808658097728E+01
              0.919806232273795E+02
             -0.129570175286978E+03
              0.479689463804342E+03
              0.232303927737403E+02
             -0.543683070757650E+03
              0.120387725327497E+03
              0.238443809671266E+03
             -0.109231994742241E+03
              0.132811809074692E+02
             -0.151435265651910E+03
              0.222279876343577E+03
              0.102816994969037E+03
             -0.284518717318006E+03
              0.338834743694499E+03
              0.947757378371841E+01
             -0.145479944506150E+03
             -0.172571483375918E+03
              0.674670588580871E+03
              0.300585451936499E+03
             -0.837828652797562E+02
              0.165557473108124E+03
             -0.295053739631993E+03
             -0.526895307834479E+02
             -0.299183363229782E+03
              0.119894770830774E+03
              0.203647229893247E+03
              0.241877276160638E+03
             -0.963784993921668E+02
              0.284327969670062E+02
              0.276215144439890E+03
              0.102299299214041E+03
              0.173105536560190E+03
              0.736630191124448E+02
             -0.497628956618423E+02
              0.737505410763367E+01
             -0.456000754445087E+02
              0.702966862055900E+02
              0.155198328401182E+02
             -0.251615059025052E+03
              0.383079671307573E+03
              0.153201151203940E+03
             -0.275244280568726E+03
             -0.204100960936205E+03
             -0.295925243742061E+03
             -0.140158931794313E+03
             -0.103104220605862E+03
             -0.228927138516744E+03
             -0.224109163262725E+03
              0.282584447332365E+03
              0.222824321706487E+03
             -0.278217950503756E+02
              0.324896138943461E+03
              0.615096898855463E+02
             -0.524427039892801E+03
              0.295760339024901E+03
              0.683321107418778E+02
              0.228197407486274E+03
              0.510025261313156E+02
              0.381672767994544E+02
              0.451868108193194E+02
              0.118834423103366E+03
             -0.217422087565464E+03
             -0.108585922052319E+03
             -0.199657819849558E+03
             -0.165742956421123E+03
              0.755729421895039E+02
             -0.189866104281345E+03
              0.887632371554452E+02
              0.117473760648537E+03
             -0.124954652411132E+03
             -0.659004170848182E+02
             -0.583338886120384E+01
              0.324678175738032E+03
              0.515154127223875E+02
              0.321884571630712E+03
              0.114470093833055E+03
             -0.415850200487916E+03
             -0.141599677630273E+03
              0.142066454159623E+03
              0.319711615228294E+03
              0.615672019124218E+02
              0.124956454061349E+03
              0.301565147567439E+03
             -0.175519366579361E+03
             -0.284848238284432E+03
              0.370072428197620E+03
              0.607248881123041E+01
             -0.392425666525776E+03
              0.131539620092440E+03
              0.259787401896692E+03
             -0.600074104477508E+02
             -0.245544705566999E+03
              0.436181792240350E+02
              0.161002958503209E+02
             -0.134370765454953E+03
              0.488320787817283E+02
             -0.419924190538210E+02
              0.578142787649763E+03
              0.159437278275738E+03
             -0.265345647528636E+03
              0.802558107950155E+02
              0.371274525703530E+03
             -0.237902584621644E+03
             -0.634936580515823E+02
             -0.210584825468618E+03
              0.168048623589174E+03
              0.714532830659533E+02
              0.111570748410121E+03
              0.857043065673065E+01
              0.416894264264500E+03
             -0.233206646869265E+03
             -0.177050253469485E+03
             -0.195349149164750E+03
              0.167963583564566E+03
              0.401056216922026E+03
             -0.506747839227753E+02
              0.165699108361889E+03
             -0.224188849769880E+03
              0.225189012510052E+02
             -0.664260834395306E+02
             -0.223830214138995E+02
             -0.954861218866837E+02
             -0.879242633099487E+02
             -0.648206398742360E+02
              0.693506366420336E+02
              0.116766066723483E+03
             -0.269100445165327E+03
              0.195548929023807E+03
             -0.316084693782599E+03
              0.236038308690695E+03
             -0.274140186191727E+03
              0.414711871040082E+03
              0.221073067609106E+03
              0.246675102959331E+03
              0.564685500980818E+02
              0.633299778888304E+02
             -0.556474039643418E+03
              0.955029366161000E+02
              0.252850739023725E+02
              0.436649944311921E+02
             -0.829946903451083E+02
              0.432962990669906E+03
             -0.131696253209619E+03
             -0.171045144643168E+03
             -0.429404801277998E+03
             -0.142950857740226E+03
             -0.194995238320053E+03
             -0.172895016797932E+03
             -0.473542013789033E+02
             -0.905257010162122E+02
             -0.119914779509182E+03
             -0.180394534464271E+03
              0.134496671495074E+03
              0.444257602766414E+03
              0.378817613146039E+03
             -0.754157432561838E+02
             -0.464902529846146E+03
             -0.195485746107688E+03
              0.896841775671183E+02
              0.992415639249876E+02
              0.143671474982297E+03
              0.111880564772050E+03
              0.364636343852844E+02
              0.430118764321263E+03
             -0.106719655254537E+03
              0.218279482165178E+03
              0.100157631702634E+03
             -0.140885017589121E+03
             -0.885889740981024E+02
              0.198879945402528E+03
             -0.115119847501448E+03
             -0.817831669384285E+02
             -0.530318432908118E+02
              0.248556421599744E+03
             -0.333019466226271E+03
             -0.367984709315074E+02
             -0.272656369288245E+03
             -0.589565944822994E+03
              0.219700504793514E+01
             -0.729626309266791E+02
              0.202525514679530E+03
              0.240707775204462E+03
              0.330239111845548E+03
             -0.217233125125143E+03
              0.353319470366494E+03
              0.923686455866953E+02
             -0.105287228979622E+03
              0.638264941285479E+02
             -0.112273394786072E+03
             -0.784445121321514E+02
              0.179908674883670E+03
             -0.175440171655749E+03
              0.426775854746795E+03
             -0.109072574291848E+03
             -0.228241666425356E+03
              0.434361508015373E+03
             -0.243989614389422E+03
             -0.361093292156670E+02
              0.443278777130940E+02
              0.134735684401997E+03
             -0.198944324939660E+03
             -0.149030839923621E+03
              0.226500227312539E+03
             -0.367338728970521E+03
              0.269771555957941E+03
              0.353244569060124E+02
              0.210740666873261E+03
              0.292132367611665E+03
              0.734858542952863E+02
             -0.384409512510184E+03
             -0.169845699714215E+03
             -0.284242756159169E+03
             -0.178247305023991E+03
             -0.587831795179859E+02
              0.698175842969056E+02
             -0.133311797662621E+03
              0.940324765642299E+01
             -0.432461846434641E+03
              0.107305752406071E+02
             -0.273238552451121E+03
              0.268446975957932E+03
             -0.144267129858270E+03
             -0.283973092044451E+02
              0.193210556166810E+03
              0.207949815586417E+02
              0.192369727179480E+03
             -0.344576416800144E+03
              0.755609175113223E+02
              0.238332635898835E+02
              0.138456417066808E+03
              0.248745742226425E+03
             -0.434586601731235E+02
             -0.272873301984019E+03
             -0.156108101473915E+03
             -0.107935436819814E+03
             -0.525387391797985E+02
              0.257342728981982E+03
              0.158420234085186E+03
             -0.165465176466644E+03
             -0.150990565588645E+03
              0.124714107914990E+03
              0.122080900151110E+03
             -0.338244705043741E+03
              0.947506229440435E+02
              0.248266839724137E+03
             -0.121737286528787E+02
              0.290849936653488E+03
              0.147612289299964E+03
              0.232457142761609E+03
              0.352954299286838E+03
              0.578588973446774E+02
             -0.493732727085577E+03
              0.507145657807088E+02
              0.547555279390569E+03
              0.393924960168054E+03
             -0.264109114642634E+03
              0.262977056659330E+02
              0.342718414649713E+03
              0.311590387072512E+03
              0.148153966516833E+03
             -0.785817419955706E+02
              0.141982702807316E+03
              0.298375859288232E+03
             -0.133405925287939E+03
             -0.954519670540594E+02
              0.186245682228973E+03
             -0.134179801890291E+02
              0.174689487605375E+03
             -0.436867967146970E+02
              0.360493640418520E+03
             -0.137336312466863E+03
              0.821508062044904E+02
             -0.168008764291827E+03
              0.170320275760655E+03
             -0.225239179951880E+02
              0.269000454086642E+03
              0.188236056810023E+02
              0.106165829262493E+03
             -0.178543411008395E+03
             -0.109891593580743E+03
             -0.518674278552596E+02
             -0.446088890828865E+02
              0.282536883286240E+03
              0.117027738600133E+03
              0.362681981973372E+03
              0.301561615660491E+03
              0.674729831844775E+02
              0.262861775351513E+01
              0.354308090617058E+03
              0.186462334736139E+03
              0.501310860073681E+01
              0.314779038983758E+03
             -0.282444367460066E+03
              0.927153424779995E+02
             -0.177536806997106E+03
             -0.712227287037010E+02
              0.453229710545176E+03
             -0.694245984163331E+02
             -0.334301249329201E+01
             -0.596907945711730E+02
              0.376670044390557E+03
             -0.878906461738370E+02
             -0.104533357527832E+02
              0.760534477861343E+03
             -0.245713269972558E+03
             -0.262364766809907E+03
             -0.275398235337917E+03
             -0.161497933908292E+03
              0.160758258288001E+03
             -0.687055647161073E+02
              0.445169051312096E+02
             -0.138968403403728E+02
              0.961930828651087E+02
              0.156887866770295E+03
              0.180682037794139E+03
              0.266079642167058E+03
              0.146858863346822E+03
              0.186794103800944E+03
             -0.301724354342033E+03
             -0.288673475174783E+03
             -0.730998166172595E+02
             -0.283045450462686E+03
              0.453288675808689E+03
              0.388496252031150E+03
              0.185613955266971E+03
              0.502595523682830E+03
             -0.261572924790559E+03
             -0.106669878273838E+03
             -0.148274615233679E+03
              0.415644954521742E+03
 
 BEEF-vdW xc energy contributions
            1 :    -3810.530840146801     
            2 :     3432.267179454635     
            3 :    -2798.354478630702     
            4 :     2094.097786340320     
            5 :    -1482.736057940437     
            6 :     1043.435631224134     
            7 :    -762.3273767196947     
            8 :     572.5342617455603     
            9 :    -410.9342864143496     
           10 :     254.7952364610983     
           11 :    -120.7197357314840     
           12 :     35.92596712543855     
           13 :    -8.307672765732150     
           14 :     17.43285653800103     
           15 :    -29.59884222636947     
           16 :     21.80214902588023     
           17 :     4.981097314071576     
           18 :    -32.06267787629031     
           19 :     41.67666252615572     
           20 :    -32.15282499884916     
           21 :     18.25822647076575     
           22 :    -18.06678849213722     
           23 :     38.07822837624963     
           24 :    -68.53783233623699     
           25 :     91.80825452066301     
           26 :    -96.16395558688555     
           27 :     83.81247293181468     
           28 :    -67.45925964054231     
           29 :     59.20743428986543     
           30 :    -61.24266472758836     
           31 :    -326.8044130663425     
           32 :    -223.9868178278034     

     Writing all to output data dir ./GaN.save/
 
     init_run     :      7.60s CPU     17.48s WALL (       1 calls)
     electrons    :    566.10s CPU    579.59s WALL (       1 calls)
     forces       :     18.71s CPU     19.14s WALL (       1 calls)
     stress       :    343.28s CPU    345.76s WALL (       1 calls)

     Called by init_run:
     wfcinit      :      4.35s CPU     13.86s WALL (       1 calls)
     potinit      :      1.33s CPU      1.52s WALL (       1 calls)
     hinit0       :      1.01s CPU      1.11s WALL (       1 calls)

     Called by electrons:
     c_bands      :    550.63s CPU    563.20s WALL (       2 calls)
     sum_band     :     13.24s CPU     13.74s WALL (       2 calls)
     v_of_rho     :      1.27s CPU      1.38s WALL (       2 calls)
     v_h          :      0.01s CPU      0.01s WALL (       2 calls)
     v_xc         :     20.43s CPU     20.78s WALL (      38 calls)
     newd         :      0.30s CPU      0.34s WALL (       2 calls)
     PAW_pot      :      1.05s CPU      1.06s WALL (       2 calls)
     mix_rho      :      0.00s CPU      0.00s WALL (       2 calls)
     vdW_kernel   :      0.24s CPU      0.25s WALL (       1 calls)

     Called by c_bands:
     init_us_2    :      1.05s CPU      1.10s WALL (      12 calls)
     init_us_2:cp :      1.05s CPU      1.10s WALL (      12 calls)
     cegterg      :    502.16s CPU    512.87s WALL (       4 calls)

     Called by sum_band:
     sum_band:wei :      0.00s CPU      0.00s WALL (       2 calls)
     sum_band:loo :     12.88s CPU     13.00s WALL (       2 calls)
     sum_band:buf :      0.20s CPU      0.21s WALL (       4 calls)
     sum_band:ini :      0.42s CPU      0.42s WALL (       4 calls)
     sum_band:cal :      7.63s CPU      7.69s WALL (       4 calls)
     sum_band:bec :      0.10s CPU      0.10s WALL (       4 calls)
     addusdens    :      0.29s CPU      0.36s WALL (       2 calls)
     addusd:skk   :      0.06s CPU      0.07s WALL (       4 calls)
     addusd:dgemm :      0.15s CPU      0.21s WALL (       4 calls)
     addusd:qvan2 :      0.06s CPU      0.06s WALL (       4 calls)

     Called by *egterg:
     cdiaghg      :    377.36s CPU    383.77s WALL (      32 calls)
     cegterg:over :     22.13s CPU     22.88s WALL (      32 calls)
     cegterg:upda :     12.11s CPU     12.41s WALL (      32 calls)
     cegterg:last :      6.82s CPU      6.87s WALL (       4 calls)
     h_psi        :     57.54s CPU     58.59s WALL (      36 calls)
     s_psi        :     17.62s CPU     18.01s WALL (      36 calls)
     g_psi        :      0.10s CPU      0.10s WALL (      32 calls)

     Called by h_psi:
     h_psi:calbec :     18.82s CPU     18.96s WALL (      36 calls)
     vloc_psi     :     20.79s CPU     21.00s WALL (      36 calls)
     add_vuspsi   :     17.61s CPU     18.04s WALL (      36 calls)

     General routines
     calbec       :     51.72s CPU     52.06s WALL (      50 calls)
     fft          :      9.30s CPU      9.41s WALL (    2232 calls)
     ffts         :      0.02s CPU      0.02s WALL (       4 calls)
     fftw         :     23.65s CPU     23.90s WALL (   23346 calls)
     interpolate  :      0.01s CPU      0.01s WALL (       2 calls)
 
     Parallel routines

     PAW routines
     PAW_pot      :      1.05s CPU      1.06s WALL (       2 calls)
     PAW_symme    :      0.00s CPU      0.00s WALL (       3 calls)
 
     PWSCF        :  15m57.98s CPU  16m33.09s WALL

 
   This run was terminated on:   8:20:31  12Apr2024            

=------------------------------------------------------------------------------=
   JOB DONE.
=------------------------------------------------------------------------------=
