
     Program PWSCF v.7.1 starts on 10Apr2024 at 17:11:23 

     This program is part of the open-source Quantum ESPRESSO suite
     for quantum simulation of materials; please cite
         "P. Giannozzi et al., J. Phys.:Condens. Matter 21 395502 (2009);
         "P. Giannozzi et al., J. Phys.:Condens. Matter 29 465901 (2017);
         "P. Giannozzi et al., J. Chem. Phys. 152 154105 (2020);
          URL http://www.quantum-espresso.org", 
     in publications or presentations arising from this work. More details at
     http://www.quantum-espresso.org/quote

     Parallel version (MPI & OpenMP), running on     128 processor cores
     Number of MPI processes:               128
     Threads/MPI process:                     1

     MPI processes distributed on     1 nodes
     1677476 MiB available memory on the printing compute node when the environment starts
 
     Reading input from espresso.pwi
Warning: card &CELL ignored
Warning: card    CELL_DYNAMICS    = 'BFGS' ignored
Warning: card / ignored

     Current dimensions of program PWSCF are:
     Max number of different atomic species (ntypx) = 10
     Max number of k-points (npk) =  40000
     Max angular momentum in pseudopotentials (lmaxx) =  4
     file Ga.pbe-dn-kjpaw_psl.1.0.0.UPF: wavefunction(s)  4S renormalized
     file N.pbe-n-kjpaw_psl.1.0.0.UPF: wavefunction(s)  2S renormalized

     **************************************************************************
     Initializing libbeef V0.1.2 with the BEEF-vdW functional.
     Citation: Wellendorff et al., PRB 85, 235149 (2012).
     **************************************************************************


     IMPORTANT: XC functional enforced from input :
     Exchange-correlation= BEEF-VDW
                           (   1   4  43  14   2   0   0)
     Any further DFT definition will be discarded
     Please, verify this is what you really want

 
     K-points division:     npool     =       2
     R & G space division:  proc/nbgrp/npool/nimage =      64
     Subspace diagonalization in iterative solution of the eigenvalue problem:
     a serial algorithm will be used

 
     Parallelization info
     --------------------
     sticks:   dense  smooth     PW     G-vecs:    dense   smooth      PW
     Min         226     181     47                26979    19303    2571
     Max         228     182     48                26983    19308    2576
     Sum       14527   11629   3037              1726709  1235535  164709
 
     Using Slab Decomposition
 


     bravais-lattice index     =            4
     lattice parameter (alat)  =      24.5252  a.u.
     unit-cell volume          =   15616.6055 (a.u.)^3
     number of atoms/cell      =          191
     number of atomic types    =            2
     number of electrons       =      1718.00
     number of Kohn-Sham states=         1031
     kinetic-energy cutoff     =      70.0000  Ry
     charge density cutoff     =     350.0000  Ry
     scf convergence threshold =      1.0E-07
     mixing beta               =       0.7000
     number of iterations used =            8  plain     mixing
     energy convergence thresh.=      1.0E-04
     force convergence thresh. =      1.0E-03
     Exchange-correlation= BEEF-VDW
                           (   1   4  43  14   2   0   0)
     nstep                     =           50


     celldm(1)=  24.525232  celldm(2)=   0.000000  celldm(3)=   1.222409
     celldm(4)=   0.000000  celldm(5)=   0.000000  celldm(6)=   0.000000

     crystal axes: (cart. coord. in units of alat)
               a(1) = (   1.000000   0.000000   0.000000 )  
               a(2) = (  -0.500000   0.866025   0.000000 )  
               a(3) = (   0.000000   0.000000   1.222409 )  

     reciprocal axes: (cart. coord. in units 2 pi/alat)
               b(1) = (  1.000000  0.577350 -0.000000 )  
               b(2) = (  0.000000  1.154701  0.000000 )  
               b(3) = (  0.000000 -0.000000  0.818057 )  


     PseudoPot. # 1 for Ga read from file:
     //group///packages/espresso/pseudo/psl_1.0.0/pslibrary.1.0.0/pbe/PSEUDOPOTENTIALS/Ga.pbe-dn-kjpaw_psl.1.0.0.UPF
     MD5 check sum: cd2a01e492f15b435d17032472d8505c
     Pseudo is Projector augmented-wave + core cor, Zval = 13.0
     Generated using 'atomic' code by A. Dal Corso  v.7.1
     Shape of augmentation charge: PSQ
     Using radial grid of 1205 points,  6 beta functions with: 
                l(1) =   0
                l(2) =   0
                l(3) =   1
                l(4) =   1
                l(5) =   2
                l(6) =   2
     Q(r) pseudized with 0 coefficients 


     PseudoPot. # 2 for N  read from file:
     //group///packages/espresso/pseudo/psl_1.0.0/pslibrary.1.0.0/pbe/PSEUDOPOTENTIALS/N.pbe-n-kjpaw_psl.1.0.0.UPF
     MD5 check sum: f77f775694dac7e2c3fe1c82443d1a16
     Pseudo is Projector augmented-wave + core cor, Zval =  5.0
     Generated using 'atomic' code by A. Dal Corso  v.7.1
     Shape of augmentation charge: PSQ
     Using radial grid of 1085 points,  4 beta functions with: 
                l(1) =   0
                l(2) =   0
                l(3) =   1
                l(4) =   1
     Q(r) pseudized with 0 coefficients 


     atomic species   valence    mass     pseudopotential
        Ga            13.00    69.72300     Ga( 1.00)
        N              5.00    14.00700     N ( 1.00)

      6 Sym. Ops. (no inversion) found ( 4 have fractional translation)


                                    s                        frac. trans.

      isym =  1     identity                                     

 cryst.   s( 1) = (     1          0          0      )
                  (     0          1          0      )
                  (     0          0          1      )

 cart.    s( 1) = (  1.0000000  0.0000000  0.0000000 )
                  (  0.0000000  1.0000000  0.0000000 )
                  (  0.0000000  0.0000000  1.0000000 )


      isym =  2     120 deg rotation - cryst. axis [0,0,1]       

 cryst.   s( 2) = (     0          1          0      )    f =( -0.2500000 )
                  (    -1         -1          0      )       (  0.0000002 )
                  (     0          0          1      )       (  0.0000000 )

 cart.    s( 2) = ( -0.5000000 -0.8660254  0.0000000 )    f =( -0.2500001 )
                  (  0.8660254 -0.5000000  0.0000000 )       (  0.0000002 )
                  (  0.0000000  0.0000000  1.0000000 )       (  0.0000000 )


      isym =  3     120 deg rotation - cryst. axis [0,0,-1]      

 cryst.   s( 3) = (    -1         -1          0      )    f =( -0.2500002 )
                  (     1          0          0      )       ( -0.2500000 )
                  (     0          0          1      )       (  0.0000000 )

 cart.    s( 3) = ( -0.5000000  0.8660254  0.0000000 )    f =( -0.1250002 )
                  ( -0.8660254 -0.5000000  0.0000000 )       ( -0.2165064 )
                  (  0.0000000  0.0000000  1.0000000 )       (  0.0000000 )


      isym =  4     inv. 180 deg rotation - cart. axis [1,0,0]   

 cryst.   s( 4) = (    -1          0          0      )    f =( -0.2500002 )
                  (     1          1          0      )       (  0.0000000 )
                  (     0          0          1      )       (  0.0000000 )

 cart.    s( 4) = ( -1.0000000  0.0000000  0.0000000 )    f =( -0.2500002 )
                  (  0.0000000  1.0000000  0.0000000 )       (  0.0000000 )
                  (  0.0000000  0.0000000  1.0000000 )       (  0.0000000 )


      isym =  5     inv. 180 deg rotation - cryst. axis [0,1,0]  

 cryst.   s( 5) = (     1          1          0      )
                  (     0         -1          0      )
                  (     0          0          1      )

 cart.    s( 5) = (  0.5000000  0.8660254  0.0000000 )
                  (  0.8660254 -0.5000000  0.0000000 )
                  (  0.0000000  0.0000000  1.0000000 )


      isym =  6     inv. 180 deg rotation - cryst. axis [1,1,0]  

 cryst.   s( 6) = (     0         -1          0      )    f =( -0.2500000 )
                  (    -1          0          0      )       ( -0.2500000 )
                  (     0          0          1      )       (  0.0000000 )

 cart.    s( 6) = (  0.5000000 -0.8660254  0.0000000 )    f =( -0.1250000 )
                  ( -0.8660254 -0.5000000  0.0000000 )       ( -0.2165064 )
                  (  0.0000000  0.0000000  1.0000000 )       (  0.0000000 )


     point group C_3v (3m)  
     there are  3 classes
     the character table:

       E     2C3   3s_v 
A_1    1.00  1.00  1.00
A_2    1.00  1.00 -1.00
E      2.00 -1.00  0.00

     the symmetry operations in each class and the name of the first element:

     E        1
          identity                                               
     2C3      2    3
          120 deg rotation - cryst. axis [0,0,1]                 
     3s_v     4    5    6
          inv. 180 deg rotation - cart. axis [1,0,0]             

   Cartesian axes

     site n.     atom                  positions (alat units)
         1           Ga  tau(   1) = (   0.1250001   0.0721687   0.6108633  )
         2           Ga  tau(   2) = (   0.1250001   0.0721687   1.0183331  )
         3           Ga  tau(   3) = (   0.0000001   0.2886751   0.2033935  )
         4           Ga  tau(   4) = (   0.0000001   0.2886751   0.6108633  )
         5           Ga  tau(   5) = (   0.0000001   0.2886751   1.0183331  )
         6           Ga  tau(   6) = (  -0.1249999   0.5051814   0.2033935  )
         7           Ga  tau(   7) = (  -0.1249999   0.5051814   0.6108633  )
         8           Ga  tau(   8) = (  -0.1249999   0.5051814   1.0183331  )
         9           Ga  tau(   9) = (  -0.2499999   0.7216878   0.2033935  )
        10           Ga  tau(  10) = (  -0.2499999   0.7216878   0.6108633  )
        11           Ga  tau(  11) = (  -0.2499999   0.7216878   1.0183331  )
        12           Ga  tau(  12) = (   0.3750001   0.0721687   0.2033935  )
        13           Ga  tau(  13) = (   0.3750001   0.0721687   0.6108633  )
        14           Ga  tau(  14) = (   0.3750001   0.0721687   1.0183331  )
        15           Ga  tau(  15) = (   0.2500001   0.2886751   0.2033935  )
        16           Ga  tau(  16) = (   0.2500001   0.2886751   0.6108633  )
        17           Ga  tau(  17) = (   0.2500001   0.2886751   1.0183331  )
        18           Ga  tau(  18) = (   0.1250001   0.5051814   0.2033935  )
        19           Ga  tau(  19) = (   0.1250001   0.5051814   0.6108633  )
        20           Ga  tau(  20) = (   0.1250001   0.5051814   1.0183331  )
        21           Ga  tau(  21) = (   0.0000001   0.7216878   0.2033935  )
        22           Ga  tau(  22) = (   0.0000001   0.7216878   0.6108633  )
        23           Ga  tau(  23) = (   0.0000001   0.7216878   1.0183331  )
        24           Ga  tau(  24) = (   0.6250001   0.0721687   0.2033935  )
        25           Ga  tau(  25) = (   0.6250001   0.0721687   0.6108633  )
        26           Ga  tau(  26) = (   0.6250001   0.0721687   1.0183331  )
        27           Ga  tau(  27) = (   0.5000001   0.2886751   0.2033935  )
        28           Ga  tau(  28) = (   0.5000001   0.2886751   0.6108633  )
        29           Ga  tau(  29) = (   0.5000001   0.2886751   1.0183331  )
        30           Ga  tau(  30) = (   0.3750001   0.5051814   0.2033935  )
        31           Ga  tau(  31) = (   0.3750001   0.5051814   0.6108633  )
        32           Ga  tau(  32) = (   0.3750001   0.5051814   1.0183331  )
        33           Ga  tau(  33) = (   0.2500001   0.7216878   0.2033935  )
        34           Ga  tau(  34) = (   0.2500001   0.7216878   0.6108633  )
        35           Ga  tau(  35) = (   0.2500001   0.7216878   1.0183331  )
        36           Ga  tau(  36) = (   0.8750001   0.0721687   0.2033935  )
        37           Ga  tau(  37) = (   0.8750001   0.0721687   0.6108633  )
        38           Ga  tau(  38) = (   0.8750001   0.0721687   1.0183331  )
        39           Ga  tau(  39) = (   0.7500001   0.2886751   0.2033935  )
        40           Ga  tau(  40) = (   0.7500001   0.2886751   0.6108633  )
        41           Ga  tau(  41) = (   0.7500001   0.2886751   1.0183331  )
        42           Ga  tau(  42) = (   0.6250001   0.5051814   0.2033935  )
        43           Ga  tau(  43) = (   0.6250001   0.5051814   0.6108633  )
        44           Ga  tau(  44) = (   0.6250001   0.5051814   1.0183331  )
        45           Ga  tau(  45) = (   0.5000001   0.7216878   0.2033935  )
        46           Ga  tau(  46) = (   0.5000001   0.7216878   0.6108633  )
        47           Ga  tau(  47) = (   0.5000001   0.7216878   1.0183331  )
        48           Ga  tau(  48) = (  -0.0000002   0.1443377   0.4071284  )
        49           Ga  tau(  49) = (  -0.0000002   0.1443377   0.8145982  )
        50           Ga  tau(  50) = (  -0.0000002   0.1443377   1.2220680  )
        51           Ga  tau(  51) = (  -0.1250002   0.3608440   0.4071284  )
        52           Ga  tau(  52) = (  -0.1250002   0.3608440   0.8145982  )
        53           Ga  tau(  53) = (  -0.1250002   0.3608440   1.2220680  )
        54           Ga  tau(  54) = (  -0.2500002   0.5773504   0.4071284  )
        55           Ga  tau(  55) = (  -0.2500002   0.5773504   0.8145982  )
        56           Ga  tau(  56) = (  -0.2500002   0.5773504   1.2220680  )
        57           Ga  tau(  57) = (  -0.3750001   0.7938567   0.4071284  )
        58           Ga  tau(  58) = (  -0.3750001   0.7938567   0.8145982  )
        59           Ga  tau(  59) = (  -0.3750001   0.7938567   1.2220680  )
        60           Ga  tau(  60) = (   0.2499998   0.1443377   0.4071284  )
        61           Ga  tau(  61) = (   0.2499998   0.1443377   0.8145982  )
        62           Ga  tau(  62) = (   0.2499998   0.1443377   1.2220680  )
        63           Ga  tau(  63) = (   0.1249998   0.3608440   0.4071284  )
        64           Ga  tau(  64) = (   0.1249998   0.3608440   0.8145982  )
        65           Ga  tau(  65) = (   0.1249998   0.3608440   1.2220680  )
        66           Ga  tau(  66) = (  -0.0000002   0.5773504   0.4071284  )
        67           Ga  tau(  67) = (  -0.0000002   0.5773504   0.8145982  )
        68           Ga  tau(  68) = (  -0.0000002   0.5773504   1.2220680  )
        69           Ga  tau(  69) = (  -0.1250002   0.7938567   0.4071284  )
        70           Ga  tau(  70) = (  -0.1250002   0.7938567   0.8145982  )
        71           Ga  tau(  71) = (  -0.1250002   0.7938567   1.2220680  )
        72           Ga  tau(  72) = (   0.4999998   0.1443377   0.4071284  )
        73           Ga  tau(  73) = (   0.4999998   0.1443377   0.8145982  )
        74           Ga  tau(  74) = (   0.4999998   0.1443377   1.2220680  )
        75           Ga  tau(  75) = (   0.3749998   0.3608440   0.4071284  )
        76           Ga  tau(  76) = (   0.3749998   0.3608440   0.8145982  )
        77           Ga  tau(  77) = (   0.3749998   0.3608440   1.2220680  )
        78           Ga  tau(  78) = (   0.2499998   0.5773504   0.4071284  )
        79           Ga  tau(  79) = (   0.2499998   0.5773504   0.8145982  )
        80           Ga  tau(  80) = (   0.2499998   0.5773504   1.2220680  )
        81           Ga  tau(  81) = (   0.1249998   0.7938567   0.4071284  )
        82           Ga  tau(  82) = (   0.1249998   0.7938567   0.8145982  )
        83           Ga  tau(  83) = (   0.1249998   0.7938567   1.2220680  )
        84           Ga  tau(  84) = (   0.7499998   0.1443377   0.4071284  )
        85           Ga  tau(  85) = (   0.7499998   0.1443377   0.8145982  )
        86           Ga  tau(  86) = (   0.7499998   0.1443377   1.2220680  )
        87           Ga  tau(  87) = (   0.6249998   0.3608440   0.4071284  )
        88           Ga  tau(  88) = (   0.6249998   0.3608440   0.8145982  )
        89           Ga  tau(  89) = (   0.6249998   0.3608440   1.2220680  )
        90           Ga  tau(  90) = (   0.4999998   0.5773504   0.4071284  )
        91           Ga  tau(  91) = (   0.4999998   0.5773504   0.8145982  )
        92           Ga  tau(  92) = (   0.4999998   0.5773504   1.2220680  )
        93           Ga  tau(  93) = (   0.3749998   0.7938567   0.4071284  )
        94           Ga  tau(  94) = (   0.3749998   0.7938567   0.8145982  )
        95           Ga  tau(  95) = (   0.3749998   0.7938567   1.2220680  )
        96           N   tau(  96) = (   0.1250001   0.0721687   0.3568774  )
        97           N   tau(  97) = (   0.1250001   0.0721687   0.7643472  )
        98           N   tau(  98) = (   0.1250001   0.0721687   1.1718169  )
        99           N   tau(  99) = (   0.0000001   0.2886751   0.3568774  )
       100           N   tau( 100) = (   0.0000001   0.2886751   0.7643472  )
       101           N   tau( 101) = (   0.0000001   0.2886751   1.1718169  )
       102           N   tau( 102) = (  -0.1249999   0.5051814   0.3568774  )
       103           N   tau( 103) = (  -0.1249999   0.5051814   0.7643472  )
       104           N   tau( 104) = (  -0.1249999   0.5051814   1.1718169  )
       105           N   tau( 105) = (  -0.2499999   0.7216878   0.3568774  )
       106           N   tau( 106) = (  -0.2499999   0.7216878   0.7643472  )
       107           N   tau( 107) = (  -0.2499999   0.7216878   1.1718169  )
       108           N   tau( 108) = (   0.3750001   0.0721687   0.3568774  )
       109           N   tau( 109) = (   0.3750001   0.0721687   0.7643472  )
       110           N   tau( 110) = (   0.3750001   0.0721687   1.1718169  )
       111           N   tau( 111) = (   0.2500001   0.2886751   0.3568774  )
       112           N   tau( 112) = (   0.2500001   0.2886751   0.7643472  )
       113           N   tau( 113) = (   0.2500001   0.2886751   1.1718169  )
       114           N   tau( 114) = (   0.1250001   0.5051814   0.3568774  )
       115           N   tau( 115) = (   0.1250001   0.5051814   0.7643472  )
       116           N   tau( 116) = (   0.1250001   0.5051814   1.1718169  )
       117           N   tau( 117) = (   0.0000001   0.7216878   0.3568774  )
       118           N   tau( 118) = (   0.0000001   0.7216878   0.7643472  )
       119           N   tau( 119) = (   0.0000001   0.7216878   1.1718169  )
       120           N   tau( 120) = (   0.6250001   0.0721687   0.3568774  )
       121           N   tau( 121) = (   0.6250001   0.0721687   0.7643472  )
       122           N   tau( 122) = (   0.6250001   0.0721687   1.1718169  )
       123           N   tau( 123) = (   0.5000001   0.2886751   0.3568774  )
       124           N   tau( 124) = (   0.5000001   0.2886751   0.7643472  )
       125           N   tau( 125) = (   0.5000001   0.2886751   1.1718169  )
       126           N   tau( 126) = (   0.3750001   0.5051814   0.3568774  )
       127           N   tau( 127) = (   0.3750001   0.5051814   0.7643472  )
       128           N   tau( 128) = (   0.3750001   0.5051814   1.1718169  )
       129           N   tau( 129) = (   0.2500001   0.7216878   0.3568774  )
       130           N   tau( 130) = (   0.2500001   0.7216878   0.7643472  )
       131           N   tau( 131) = (   0.2500001   0.7216878   1.1718169  )
       132           N   tau( 132) = (   0.8750001   0.0721687   0.3568774  )
       133           N   tau( 133) = (   0.8750001   0.0721687   0.7643472  )
       134           N   tau( 134) = (   0.8750001   0.0721687   1.1718169  )
       135           N   tau( 135) = (   0.7500001   0.2886751   0.3568774  )
       136           N   tau( 136) = (   0.7500001   0.2886751   0.7643472  )
       137           N   tau( 137) = (   0.7500001   0.2886751   1.1718169  )
       138           N   tau( 138) = (   0.6250001   0.5051814   0.3568774  )
       139           N   tau( 139) = (   0.6250001   0.5051814   0.7643472  )
       140           N   tau( 140) = (   0.6250001   0.5051814   1.1718169  )
       141           N   tau( 141) = (   0.5000001   0.7216878   0.3568774  )
       142           N   tau( 142) = (   0.5000001   0.7216878   0.7643472  )
       143           N   tau( 143) = (   0.5000001   0.7216878   1.1718169  )
       144           N   tau( 144) = (  -0.0000002   0.1443377   0.1531425  )
       145           N   tau( 145) = (  -0.0000002   0.1443377   0.5606123  )
       146           N   tau( 146) = (  -0.0000002   0.1443377   0.9680820  )
       147           N   tau( 147) = (  -0.1250002   0.3608440   0.1531425  )
       148           N   tau( 148) = (  -0.1250002   0.3608440   0.5606123  )
       149           N   tau( 149) = (  -0.1250002   0.3608440   0.9680820  )
       150           N   tau( 150) = (  -0.2500002   0.5773504   0.1531425  )
       151           N   tau( 151) = (  -0.2500002   0.5773504   0.5606123  )
       152           N   tau( 152) = (  -0.2500002   0.5773504   0.9680820  )
       153           N   tau( 153) = (  -0.3750001   0.7938567   0.1531425  )
       154           N   tau( 154) = (  -0.3750001   0.7938567   0.5606123  )
       155           N   tau( 155) = (  -0.3750001   0.7938567   0.9680820  )
       156           N   tau( 156) = (   0.2499998   0.1443377   0.1531425  )
       157           N   tau( 157) = (   0.2499998   0.1443377   0.5606123  )
       158           N   tau( 158) = (   0.2499998   0.1443377   0.9680820  )
       159           N   tau( 159) = (   0.1249998   0.3608440   0.1531425  )
       160           N   tau( 160) = (   0.1249998   0.3608440   0.5606123  )
       161           N   tau( 161) = (   0.1249998   0.3608440   0.9680820  )
       162           N   tau( 162) = (  -0.0000002   0.5773504   0.1531425  )
       163           N   tau( 163) = (  -0.0000002   0.5773504   0.5606123  )
       164           N   tau( 164) = (  -0.0000002   0.5773504   0.9680820  )
       165           N   tau( 165) = (  -0.1250002   0.7938567   0.1531425  )
       166           N   tau( 166) = (  -0.1250002   0.7938567   0.5606123  )
       167           N   tau( 167) = (  -0.1250002   0.7938567   0.9680820  )
       168           N   tau( 168) = (   0.4999998   0.1443377   0.1531425  )
       169           N   tau( 169) = (   0.4999998   0.1443377   0.5606123  )
       170           N   tau( 170) = (   0.4999998   0.1443377   0.9680820  )
       171           N   tau( 171) = (   0.3749998   0.3608440   0.1531425  )
       172           N   tau( 172) = (   0.3749998   0.3608440   0.5606123  )
       173           N   tau( 173) = (   0.3749998   0.3608440   0.9680820  )
       174           N   tau( 174) = (   0.2499998   0.5773504   0.1531425  )
       175           N   tau( 175) = (   0.2499998   0.5773504   0.5606123  )
       176           N   tau( 176) = (   0.2499998   0.5773504   0.9680820  )
       177           N   tau( 177) = (   0.1249998   0.7938567   0.1531425  )
       178           N   tau( 178) = (   0.1249998   0.7938567   0.5606123  )
       179           N   tau( 179) = (   0.1249998   0.7938567   0.9680820  )
       180           N   tau( 180) = (   0.7499998   0.1443377   0.1531425  )
       181           N   tau( 181) = (   0.7499998   0.1443377   0.5606123  )
       182           N   tau( 182) = (   0.7499998   0.1443377   0.9680820  )
       183           N   tau( 183) = (   0.6249998   0.3608440   0.1531425  )
       184           N   tau( 184) = (   0.6249998   0.3608440   0.5606123  )
       185           N   tau( 185) = (   0.6249998   0.3608440   0.9680820  )
       186           N   tau( 186) = (   0.4999998   0.5773504   0.1531425  )
       187           N   tau( 187) = (   0.4999998   0.5773504   0.5606123  )
       188           N   tau( 188) = (   0.4999998   0.5773504   0.9680820  )
       189           N   tau( 189) = (   0.3749998   0.7938567   0.1531425  )
       190           N   tau( 190) = (   0.3749998   0.7938567   0.5606123  )
       191           N   tau( 191) = (   0.3749998   0.7938567   0.9680820  )

   Crystallographic axes

     site n.     atom                  positions (cryst. coord.)
         1           Ga  tau(   1) = (  0.1666667  0.0833333  0.4997208  )
         2           Ga  tau(   2) = (  0.1666667  0.0833333  0.8330541  )
         3           Ga  tau(   3) = (  0.1666667  0.3333333  0.1663874  )
         4           Ga  tau(   4) = (  0.1666667  0.3333333  0.4997208  )
         5           Ga  tau(   5) = (  0.1666667  0.3333333  0.8330541  )
         6           Ga  tau(   6) = (  0.1666667  0.5833333  0.1663874  )
         7           Ga  tau(   7) = (  0.1666667  0.5833333  0.4997208  )
         8           Ga  tau(   8) = (  0.1666667  0.5833333  0.8330541  )
         9           Ga  tau(   9) = (  0.1666667  0.8333333  0.1663874  )
        10           Ga  tau(  10) = (  0.1666667  0.8333333  0.4997208  )
        11           Ga  tau(  11) = (  0.1666667  0.8333333  0.8330541  )
        12           Ga  tau(  12) = (  0.4166667  0.0833333  0.1663874  )
        13           Ga  tau(  13) = (  0.4166667  0.0833333  0.4997208  )
        14           Ga  tau(  14) = (  0.4166667  0.0833333  0.8330541  )
        15           Ga  tau(  15) = (  0.4166667  0.3333333  0.1663874  )
        16           Ga  tau(  16) = (  0.4166667  0.3333333  0.4997208  )
        17           Ga  tau(  17) = (  0.4166667  0.3333333  0.8330541  )
        18           Ga  tau(  18) = (  0.4166667  0.5833333  0.1663874  )
        19           Ga  tau(  19) = (  0.4166667  0.5833333  0.4997208  )
        20           Ga  tau(  20) = (  0.4166667  0.5833333  0.8330541  )
        21           Ga  tau(  21) = (  0.4166667  0.8333333  0.1663874  )
        22           Ga  tau(  22) = (  0.4166667  0.8333333  0.4997208  )
        23           Ga  tau(  23) = (  0.4166667  0.8333333  0.8330541  )
        24           Ga  tau(  24) = (  0.6666667  0.0833333  0.1663874  )
        25           Ga  tau(  25) = (  0.6666667  0.0833333  0.4997208  )
        26           Ga  tau(  26) = (  0.6666667  0.0833333  0.8330541  )
        27           Ga  tau(  27) = (  0.6666667  0.3333333  0.1663874  )
        28           Ga  tau(  28) = (  0.6666667  0.3333333  0.4997208  )
        29           Ga  tau(  29) = (  0.6666667  0.3333333  0.8330541  )
        30           Ga  tau(  30) = (  0.6666667  0.5833333  0.1663874  )
        31           Ga  tau(  31) = (  0.6666667  0.5833333  0.4997208  )
        32           Ga  tau(  32) = (  0.6666667  0.5833333  0.8330541  )
        33           Ga  tau(  33) = (  0.6666667  0.8333333  0.1663874  )
        34           Ga  tau(  34) = (  0.6666667  0.8333333  0.4997208  )
        35           Ga  tau(  35) = (  0.6666667  0.8333333  0.8330541  )
        36           Ga  tau(  36) = (  0.9166667  0.0833333  0.1663874  )
        37           Ga  tau(  37) = (  0.9166667  0.0833333  0.4997208  )
        38           Ga  tau(  38) = (  0.9166667  0.0833333  0.8330541  )
        39           Ga  tau(  39) = (  0.9166667  0.3333333  0.1663874  )
        40           Ga  tau(  40) = (  0.9166667  0.3333333  0.4997208  )
        41           Ga  tau(  41) = (  0.9166667  0.3333333  0.8330541  )
        42           Ga  tau(  42) = (  0.9166667  0.5833333  0.1663874  )
        43           Ga  tau(  43) = (  0.9166667  0.5833333  0.4997208  )
        44           Ga  tau(  44) = (  0.9166667  0.5833333  0.8330541  )
        45           Ga  tau(  45) = (  0.9166667  0.8333333  0.1663874  )
        46           Ga  tau(  46) = (  0.9166667  0.8333333  0.4997208  )
        47           Ga  tau(  47) = (  0.9166667  0.8333333  0.8330541  )
        48           Ga  tau(  48) = (  0.0833333  0.1666668  0.3330541  )
        49           Ga  tau(  49) = (  0.0833333  0.1666668  0.6663874  )
        50           Ga  tau(  50) = (  0.0833333  0.1666668  0.9997208  )
        51           Ga  tau(  51) = (  0.0833333  0.4166668  0.3330541  )
        52           Ga  tau(  52) = (  0.0833333  0.4166668  0.6663874  )
        53           Ga  tau(  53) = (  0.0833333  0.4166668  0.9997208  )
        54           Ga  tau(  54) = (  0.0833333  0.6666668  0.3330541  )
        55           Ga  tau(  55) = (  0.0833333  0.6666668  0.6663874  )
        56           Ga  tau(  56) = (  0.0833333  0.6666668  0.9997208  )
        57           Ga  tau(  57) = (  0.0833333  0.9166668  0.3330541  )
        58           Ga  tau(  58) = (  0.0833333  0.9166668  0.6663874  )
        59           Ga  tau(  59) = (  0.0833333  0.9166668  0.9997208  )
        60           Ga  tau(  60) = (  0.3333332  0.1666668  0.3330541  )
        61           Ga  tau(  61) = (  0.3333332  0.1666668  0.6663874  )
        62           Ga  tau(  62) = (  0.3333332  0.1666668  0.9997208  )
        63           Ga  tau(  63) = (  0.3333332  0.4166668  0.3330541  )
        64           Ga  tau(  64) = (  0.3333332  0.4166668  0.6663874  )
        65           Ga  tau(  65) = (  0.3333332  0.4166668  0.9997208  )
        66           Ga  tau(  66) = (  0.3333332  0.6666668  0.3330541  )
        67           Ga  tau(  67) = (  0.3333332  0.6666668  0.6663874  )
        68           Ga  tau(  68) = (  0.3333332  0.6666668  0.9997208  )
        69           Ga  tau(  69) = (  0.3333332  0.9166668  0.3330541  )
        70           Ga  tau(  70) = (  0.3333332  0.9166668  0.6663874  )
        71           Ga  tau(  71) = (  0.3333332  0.9166668  0.9997208  )
        72           Ga  tau(  72) = (  0.5833332  0.1666668  0.3330541  )
        73           Ga  tau(  73) = (  0.5833332  0.1666668  0.6663874  )
        74           Ga  tau(  74) = (  0.5833332  0.1666668  0.9997208  )
        75           Ga  tau(  75) = (  0.5833332  0.4166668  0.3330541  )
        76           Ga  tau(  76) = (  0.5833332  0.4166668  0.6663874  )
        77           Ga  tau(  77) = (  0.5833332  0.4166668  0.9997208  )
        78           Ga  tau(  78) = (  0.5833332  0.6666668  0.3330541  )
        79           Ga  tau(  79) = (  0.5833332  0.6666668  0.6663874  )
        80           Ga  tau(  80) = (  0.5833332  0.6666668  0.9997208  )
        81           Ga  tau(  81) = (  0.5833332  0.9166668  0.3330541  )
        82           Ga  tau(  82) = (  0.5833332  0.9166668  0.6663874  )
        83           Ga  tau(  83) = (  0.5833332  0.9166668  0.9997208  )
        84           Ga  tau(  84) = (  0.8333332  0.1666668  0.3330541  )
        85           Ga  tau(  85) = (  0.8333332  0.1666668  0.6663874  )
        86           Ga  tau(  86) = (  0.8333332  0.1666668  0.9997208  )
        87           Ga  tau(  87) = (  0.8333332  0.4166668  0.3330541  )
        88           Ga  tau(  88) = (  0.8333332  0.4166668  0.6663874  )
        89           Ga  tau(  89) = (  0.8333332  0.4166668  0.9997208  )
        90           Ga  tau(  90) = (  0.8333332  0.6666668  0.3330541  )
        91           Ga  tau(  91) = (  0.8333332  0.6666668  0.6663874  )
        92           Ga  tau(  92) = (  0.8333332  0.6666668  0.9997208  )
        93           Ga  tau(  93) = (  0.8333332  0.9166668  0.3330541  )
        94           Ga  tau(  94) = (  0.8333332  0.9166668  0.6663874  )
        95           Ga  tau(  95) = (  0.8333332  0.9166668  0.9997208  )
        96           N   tau(  96) = (  0.1666667  0.0833333  0.2919459  )
        97           N   tau(  97) = (  0.1666667  0.0833333  0.6252792  )
        98           N   tau(  98) = (  0.1666667  0.0833333  0.9586126  )
        99           N   tau(  99) = (  0.1666667  0.3333333  0.2919459  )
       100           N   tau( 100) = (  0.1666667  0.3333333  0.6252792  )
       101           N   tau( 101) = (  0.1666667  0.3333333  0.9586126  )
       102           N   tau( 102) = (  0.1666667  0.5833333  0.2919459  )
       103           N   tau( 103) = (  0.1666667  0.5833333  0.6252792  )
       104           N   tau( 104) = (  0.1666667  0.5833333  0.9586126  )
       105           N   tau( 105) = (  0.1666667  0.8333333  0.2919459  )
       106           N   tau( 106) = (  0.1666667  0.8333333  0.6252792  )
       107           N   tau( 107) = (  0.1666667  0.8333333  0.9586126  )
       108           N   tau( 108) = (  0.4166667  0.0833333  0.2919459  )
       109           N   tau( 109) = (  0.4166667  0.0833333  0.6252792  )
       110           N   tau( 110) = (  0.4166667  0.0833333  0.9586126  )
       111           N   tau( 111) = (  0.4166667  0.3333333  0.2919459  )
       112           N   tau( 112) = (  0.4166667  0.3333333  0.6252792  )
       113           N   tau( 113) = (  0.4166667  0.3333333  0.9586126  )
       114           N   tau( 114) = (  0.4166667  0.5833333  0.2919459  )
       115           N   tau( 115) = (  0.4166667  0.5833333  0.6252792  )
       116           N   tau( 116) = (  0.4166667  0.5833333  0.9586126  )
       117           N   tau( 117) = (  0.4166667  0.8333333  0.2919459  )
       118           N   tau( 118) = (  0.4166667  0.8333333  0.6252792  )
       119           N   tau( 119) = (  0.4166667  0.8333333  0.9586126  )
       120           N   tau( 120) = (  0.6666667  0.0833333  0.2919459  )
       121           N   tau( 121) = (  0.6666667  0.0833333  0.6252792  )
       122           N   tau( 122) = (  0.6666667  0.0833333  0.9586126  )
       123           N   tau( 123) = (  0.6666667  0.3333333  0.2919459  )
       124           N   tau( 124) = (  0.6666667  0.3333333  0.6252792  )
       125           N   tau( 125) = (  0.6666667  0.3333333  0.9586126  )
       126           N   tau( 126) = (  0.6666667  0.5833333  0.2919459  )
       127           N   tau( 127) = (  0.6666667  0.5833333  0.6252792  )
       128           N   tau( 128) = (  0.6666667  0.5833333  0.9586126  )
       129           N   tau( 129) = (  0.6666667  0.8333333  0.2919459  )
       130           N   tau( 130) = (  0.6666667  0.8333333  0.6252792  )
       131           N   tau( 131) = (  0.6666667  0.8333333  0.9586126  )
       132           N   tau( 132) = (  0.9166667  0.0833333  0.2919459  )
       133           N   tau( 133) = (  0.9166667  0.0833333  0.6252792  )
       134           N   tau( 134) = (  0.9166667  0.0833333  0.9586126  )
       135           N   tau( 135) = (  0.9166667  0.3333333  0.2919459  )
       136           N   tau( 136) = (  0.9166667  0.3333333  0.6252792  )
       137           N   tau( 137) = (  0.9166667  0.3333333  0.9586126  )
       138           N   tau( 138) = (  0.9166667  0.5833333  0.2919459  )
       139           N   tau( 139) = (  0.9166667  0.5833333  0.6252792  )
       140           N   tau( 140) = (  0.9166667  0.5833333  0.9586126  )
       141           N   tau( 141) = (  0.9166667  0.8333333  0.2919459  )
       142           N   tau( 142) = (  0.9166667  0.8333333  0.6252792  )
       143           N   tau( 143) = (  0.9166667  0.8333333  0.9586126  )
       144           N   tau( 144) = (  0.0833333  0.1666668  0.1252792  )
       145           N   tau( 145) = (  0.0833333  0.1666668  0.4586126  )
       146           N   tau( 146) = (  0.0833333  0.1666668  0.7919459  )
       147           N   tau( 147) = (  0.0833333  0.4166668  0.1252792  )
       148           N   tau( 148) = (  0.0833333  0.4166668  0.4586126  )
       149           N   tau( 149) = (  0.0833333  0.4166668  0.7919459  )
       150           N   tau( 150) = (  0.0833333  0.6666668  0.1252792  )
       151           N   tau( 151) = (  0.0833333  0.6666668  0.4586126  )
       152           N   tau( 152) = (  0.0833333  0.6666668  0.7919459  )
       153           N   tau( 153) = (  0.0833333  0.9166668  0.1252792  )
       154           N   tau( 154) = (  0.0833333  0.9166668  0.4586126  )
       155           N   tau( 155) = (  0.0833333  0.9166668  0.7919459  )
       156           N   tau( 156) = (  0.3333332  0.1666668  0.1252792  )
       157           N   tau( 157) = (  0.3333332  0.1666668  0.4586126  )
       158           N   tau( 158) = (  0.3333332  0.1666668  0.7919459  )
       159           N   tau( 159) = (  0.3333332  0.4166668  0.1252792  )
       160           N   tau( 160) = (  0.3333332  0.4166668  0.4586126  )
       161           N   tau( 161) = (  0.3333332  0.4166668  0.7919459  )
       162           N   tau( 162) = (  0.3333332  0.6666668  0.1252792  )
       163           N   tau( 163) = (  0.3333332  0.6666668  0.4586126  )
       164           N   tau( 164) = (  0.3333332  0.6666668  0.7919459  )
       165           N   tau( 165) = (  0.3333332  0.9166668  0.1252792  )
       166           N   tau( 166) = (  0.3333332  0.9166668  0.4586126  )
       167           N   tau( 167) = (  0.3333332  0.9166668  0.7919459  )
       168           N   tau( 168) = (  0.5833332  0.1666668  0.1252792  )
       169           N   tau( 169) = (  0.5833332  0.1666668  0.4586126  )
       170           N   tau( 170) = (  0.5833332  0.1666668  0.7919459  )
       171           N   tau( 171) = (  0.5833332  0.4166668  0.1252792  )
       172           N   tau( 172) = (  0.5833332  0.4166668  0.4586126  )
       173           N   tau( 173) = (  0.5833332  0.4166668  0.7919459  )
       174           N   tau( 174) = (  0.5833332  0.6666668  0.1252792  )
       175           N   tau( 175) = (  0.5833332  0.6666668  0.4586126  )
       176           N   tau( 176) = (  0.5833332  0.6666668  0.7919459  )
       177           N   tau( 177) = (  0.5833332  0.9166668  0.1252792  )
       178           N   tau( 178) = (  0.5833332  0.9166668  0.4586126  )
       179           N   tau( 179) = (  0.5833332  0.9166668  0.7919459  )
       180           N   tau( 180) = (  0.8333332  0.1666668  0.1252792  )
       181           N   tau( 181) = (  0.8333332  0.1666668  0.4586126  )
       182           N   tau( 182) = (  0.8333332  0.1666668  0.7919459  )
       183           N   tau( 183) = (  0.8333332  0.4166668  0.1252792  )
       184           N   tau( 184) = (  0.8333332  0.4166668  0.4586126  )
       185           N   tau( 185) = (  0.8333332  0.4166668  0.7919459  )
       186           N   tau( 186) = (  0.8333332  0.6666668  0.1252792  )
       187           N   tau( 187) = (  0.8333332  0.6666668  0.4586126  )
       188           N   tau( 188) = (  0.8333332  0.6666668  0.7919459  )
       189           N   tau( 189) = (  0.8333332  0.9166668  0.1252792  )
       190           N   tau( 190) = (  0.8333332  0.9166668  0.4586126  )
       191           N   tau( 191) = (  0.8333332  0.9166668  0.7919459  )

     number of k points=     4  Gaussian smearing, width (Ry)=  0.0100
                       cart. coord. in units 2pi/alat
        k(    1) = (   0.0000000   0.0000000   0.0000000), wk =   0.2500000
        k(    2) = (   0.0000000   0.0000000  -0.4090283), wk =   0.2500000
        k(    3) = (   0.0000000  -0.5773503   0.0000000), wk =   0.7500000
        k(    4) = (   0.0000000  -0.5773503  -0.4090283), wk =   0.7500000

                       cryst. coord.
        k(    1) = (   0.0000000   0.0000000   0.0000000), wk =   0.2500000
        k(    2) = (   0.0000000   0.0000000  -0.5000000), wk =   0.2500000
        k(    3) = (   0.0000000  -0.5000000   0.0000000), wk =   0.7500000
        k(    4) = (   0.0000000  -0.5000000  -0.5000000), wk =   0.7500000

     Dense  grid:  1726709 G-vectors     FFT dimensions: ( 160, 160, 180)

     Smooth grid:  1235535 G-vectors     FFT dimensions: ( 144, 144, 160)

     Dynamical RAM for                 wfc:      37.96 MB

     Dynamical RAM for     wfc (w. buffer):     113.88 MB

     Dynamical RAM for           str. fact:       0.82 MB

     Dynamical RAM for           local pot:       0.00 MB

     Dynamical RAM for          nlocal pot:      91.24 MB

     Dynamical RAM for                qrad:       3.00 MB

     Dynamical RAM for          rho,v,vnew:       2.99 MB

     Dynamical RAM for               rhoin:       1.00 MB

     Dynamical RAM for            rho*nmix:       6.59 MB

     Dynamical RAM for           G-vectors:       1.69 MB

     Dynamical RAM for          h,s,v(r/c):     778.54 MB

     Dynamical RAM for          <psi|beta>:      38.98 MB

     Dynamical RAM for                 psi:     151.84 MB

     Dynamical RAM for                hpsi:     151.84 MB

     Dynamical RAM for                spsi:     151.84 MB

     Dynamical RAM for      wfcinit/wfcrot:     100.26 MB

     Dynamical RAM for           addusdens:      58.25 MB

     Dynamical RAM for          addusforce:      97.74 MB

     Dynamical RAM for         addusstress:      41.48 MB

     Estimated static dynamical RAM per process >     218.79 MB

     Estimated max dynamical RAM per process >       1.46 GB

     Estimated total dynamical RAM >     186.89 GB

     Atomic positions and unit cell read from directory:
     ./GaN.save/
     Atomic positions from file used, from input discarded
 

     Check: negative core charge=   -0.000003

     The initial density is read from file :
     ./GaN.save/charge-density


     starting charge    1717.0000, renormalised to    1718.0000


     %%%%%%%%%%%%%%%%%%%%%%%%%%%%%%%%%%%%%%%%%%%%%%%%%%%%%%%%%%%%%%%%%%%%%%%%
     %                                                                      %
     % You are using vdW-DF, which was implemented by the Thonhauser group. %
     % Please cite the following two papers that made this development      %
     % possible and the two reviews that describe the various versions:     %
     %                                                                      %
     %   T. Thonhauser et al., PRL 115, 136402 (2015).                      %
     %   T. Thonhauser et al., PRB 76, 125112 (2007).                       %
     %   K. Berland et al., Rep. Prog. Phys. 78, 066501 (2015).             %
     %   D.C. Langreth et al., J. Phys.: Condens. Matter 21, 084203 (2009). %
     %                                                                      %
     % If you are calculating stress with vdW-DF, please also cite:         %
     %                                                                      %
     %   R. Sabatini et al., J. Phys.: Condens. Matter 24, 424209 (2012).   %
     %                                                                      %
     %%%%%%%%%%%%%%%%%%%%%%%%%%%%%%%%%%%%%%%%%%%%%%%%%%%%%%%%%%%%%%%%%%%%%%%%

     %%%%%%%%%%%%%%%%%%%%%%%%%%%%%%%%%%%%%%%%%%%%%%%%%%%%%%%%%%%%%%%%%%%%%%%%
     %                                                                      %
     %  vdW-DF NEWS:                                                        %
     %                                                                      %
     %  * vdW-DF3 is now available. DOI: 10.1021/acs.jctc.0c00471           %
     %    use with input_dft = 'vdW-DF3-opt1' or 'vdW-DF3-opt2'             %
     %                                                                      %
     %  * Unscreened and range-separated vdW-DF hybrid functionals          %
     %    DOI: 10.1063/1.4986522 and 10.1088/1361-648X/ac2ad2               %
     %    use with input_dft = 'vdW-DF-cx0' (etc) and 'vdW-DF-ahcx'         %
     %                                                                      %
     %%%%%%%%%%%%%%%%%%%%%%%%%%%%%%%%%%%%%%%%%%%%%%%%%%%%%%%%%%%%%%%%%%%%%%%%


     Carrying out vdW-DF run using the following parameters:
     Nqs    =  20  Npoints =  1024  r_max =  100.000
     q_mesh =  0.00001000  0.04494208  0.09755937  0.15916263
               0.23128650  0.31572767  0.41458969  0.53033537
               0.66584808  0.82450364  1.01025438  1.22772762
               1.48234092  1.78043706  2.12944203  2.53805004
               3.01644009  3.57652955  4.23227104  5.00000000


     -----------------------------------------------
     Non-local corr. energy    =      51.90789834 Ry
     -----------------------------------------------

     Wavefunctions not found or not readable, recomputing them from scratch
     Starting wfcs are 1239 randomized atomic wfcs
     Checking if some PAW data can be deallocated... 
       PAW data deallocated on   80 nodes for type:  1
       PAW data deallocated on   47 nodes for type:  2

     total cpu time spent up to now is       54.8 secs

     Self-consistent Calculation

     iteration #  1     ecut=    70.00 Ry     beta= 0.70
     Davidson diagonalization with overlap

---- Real-time Memory Report at c_bands before calling an iterative solver
           610 MiB given to the printing process from OS
             0 MiB allocation reported by mallinfo(arena+hblkhd)
       1638386 MiB available memory on the node where the printing process lives
------------------
     ethr =  1.00E-05,  avg # of iterations = 27.8


     -----------------------------------------------
     Non-local corr. energy    =      51.81391106 Ry
     -----------------------------------------------


     total cpu time spent up to now is     1064.9 secs

     total energy              =  -29693.89005654 Ry
     estimated scf accuracy    <       0.12664493 Ry

     iteration #  2     ecut=    70.00 Ry     beta= 0.70
     Davidson diagonalization with overlap

---- Real-time Memory Report at c_bands before calling an iterative solver
          1599 MiB given to the printing process from OS
             0 MiB allocation reported by mallinfo(arena+hblkhd)
       1638932 MiB available memory on the node where the printing process lives
------------------
     ethr =  7.37E-06,  avg # of iterations = 12.3


     -----------------------------------------------
     Non-local corr. energy    =      51.81652035 Ry
     -----------------------------------------------


     total cpu time spent up to now is     1755.4 secs

     total energy              =  -29693.54198349 Ry
     estimated scf accuracy    <       3.18053712 Ry

     iteration #  3     ecut=    70.00 Ry     beta= 0.70
     Davidson diagonalization with overlap

---- Real-time Memory Report at c_bands before calling an iterative solver
          1599 MiB given to the printing process from OS
             0 MiB allocation reported by mallinfo(arena+hblkhd)
       1630553 MiB available memory on the node where the printing process lives
------------------
     ethr =  7.37E-06,  avg # of iterations = 12.3


     -----------------------------------------------
     Non-local corr. energy    =      51.84196316 Ry
     -----------------------------------------------


     total cpu time spent up to now is     2415.4 secs

     total energy              =  -29693.96775961 Ry
     estimated scf accuracy    <       0.05803076 Ry

     iteration #  4     ecut=    70.00 Ry     beta= 0.70
     Davidson diagonalization with overlap

---- Real-time Memory Report at c_bands before calling an iterative solver
          1599 MiB given to the printing process from OS
             0 MiB allocation reported by mallinfo(arena+hblkhd)
       1630374 MiB available memory on the node where the printing process lives
------------------
     ethr =  3.38E-06,  avg # of iterations = 11.8


     -----------------------------------------------
     Non-local corr. energy    =      51.85433992 Ry
     -----------------------------------------------


     total cpu time spent up to now is     2797.2 secs

     total energy              =  -29693.96972024 Ry
     estimated scf accuracy    <       0.02317104 Ry

     iteration #  5     ecut=    70.00 Ry     beta= 0.70
     Davidson diagonalization with overlap

---- Real-time Memory Report at c_bands before calling an iterative solver
          1599 MiB given to the printing process from OS
             0 MiB allocation reported by mallinfo(arena+hblkhd)
       1630233 MiB available memory on the node where the printing process lives
------------------
     ethr =  1.35E-06,  avg # of iterations = 13.5


     -----------------------------------------------
     Non-local corr. energy    =      51.87083070 Ry
     -----------------------------------------------


     total cpu time spent up to now is     3148.4 secs

     total energy              =  -29693.96839532 Ry
     estimated scf accuracy    <       0.01409088 Ry

     iteration #  6     ecut=    70.00 Ry     beta= 0.70
     Davidson diagonalization with overlap

---- Real-time Memory Report at c_bands before calling an iterative solver
          1599 MiB given to the printing process from OS
             0 MiB allocation reported by mallinfo(arena+hblkhd)
       1630123 MiB available memory on the node where the printing process lives
------------------
     c_bands:  1 eigenvalues not converged
     ethr =  8.20E-07,  avg # of iterations = 13.3


     -----------------------------------------------
     Non-local corr. energy    =      51.88984460 Ry
     -----------------------------------------------


     total cpu time spent up to now is     3557.2 secs

     total energy              =  -29693.96735964 Ry
     estimated scf accuracy    <       0.00445330 Ry

     iteration #  7     ecut=    70.00 Ry     beta= 0.70
     Davidson diagonalization with overlap

---- Real-time Memory Report at c_bands before calling an iterative solver
          1599 MiB given to the printing process from OS
             0 MiB allocation reported by mallinfo(arena+hblkhd)
       1630009 MiB available memory on the node where the printing process lives
------------------
     ethr =  2.59E-07,  avg # of iterations = 13.8


     -----------------------------------------------
     Non-local corr. energy    =      51.88601588 Ry
     -----------------------------------------------


     total cpu time spent up to now is     4118.4 secs

     total energy              =  -29693.96848981 Ry
     estimated scf accuracy    <       0.00146156 Ry

     iteration #  8     ecut=    70.00 Ry     beta= 0.70
     Davidson diagonalization with overlap

---- Real-time Memory Report at c_bands before calling an iterative solver
          1599 MiB given to the printing process from OS
             0 MiB allocation reported by mallinfo(arena+hblkhd)
       1629859 MiB available memory on the node where the printing process lives
------------------
     c_bands:  1 eigenvalues not converged
     ethr =  8.51E-08,  avg # of iterations = 13.8


     -----------------------------------------------
     Non-local corr. energy    =      51.87924701 Ry
     -----------------------------------------------


     total cpu time spent up to now is     4529.3 secs

     total energy              =  -29693.96844095 Ry
     estimated scf accuracy    <       0.00064285 Ry

     iteration #  9     ecut=    70.00 Ry     beta= 0.70
     Davidson diagonalization with overlap

---- Real-time Memory Report at c_bands before calling an iterative solver
          1599 MiB given to the printing process from OS
             0 MiB allocation reported by mallinfo(arena+hblkhd)
       1629741 MiB available memory on the node where the printing process lives
------------------
     c_bands:  1 eigenvalues not converged
     ethr =  3.74E-08,  avg # of iterations = 14.0


     -----------------------------------------------
     Non-local corr. energy    =      51.87565326 Ry
     -----------------------------------------------


     total cpu time spent up to now is     5014.6 secs

     total energy              =  -29693.96852771 Ry
     estimated scf accuracy    <       0.00003133 Ry

     iteration # 10     ecut=    70.00 Ry     beta= 0.70
     Davidson diagonalization with overlap

---- Real-time Memory Report at c_bands before calling an iterative solver
          1599 MiB given to the printing process from OS
             0 MiB allocation reported by mallinfo(arena+hblkhd)
       1629629 MiB available memory on the node where the printing process lives
------------------
     c_bands:  3 eigenvalues not converged
     ethr =  1.82E-09,  avg # of iterations =  9.3


     -----------------------------------------------
     Non-local corr. energy    =      51.87445713 Ry
     -----------------------------------------------


     total cpu time spent up to now is     5459.1 secs

     total energy              =  -29693.96857208 Ry
     estimated scf accuracy    <       0.00007707 Ry

     iteration # 11     ecut=    70.00 Ry     beta= 0.70
     Davidson diagonalization with overlap

---- Real-time Memory Report at c_bands before calling an iterative solver
          1632 MiB given to the printing process from OS
             0 MiB allocation reported by mallinfo(arena+hblkhd)
       1629629 MiB available memory on the node where the printing process lives
------------------
     c_bands:  1 eigenvalues not converged
     ethr =  1.82E-09,  avg # of iterations = 10.0


     -----------------------------------------------
     Non-local corr. energy    =      51.87438455 Ry
     -----------------------------------------------


     total cpu time spent up to now is     5771.6 secs

     total energy              =  -29693.96856384 Ry
     estimated scf accuracy    <       0.00003469 Ry

     iteration # 12     ecut=    70.00 Ry     beta= 0.70
     Davidson diagonalization with overlap

---- Real-time Memory Report at c_bands before calling an iterative solver
          1632 MiB given to the printing process from OS
             0 MiB allocation reported by mallinfo(arena+hblkhd)
       1629615 MiB available memory on the node where the printing process lives
------------------
     c_bands:  1 eigenvalues not converged
     ethr =  1.82E-09,  avg # of iterations = 12.0


     -----------------------------------------------
     Non-local corr. energy    =      51.87454068 Ry
     -----------------------------------------------


     total cpu time spent up to now is     6239.5 secs

     total energy              =  -29693.96856859 Ry
     estimated scf accuracy    <       0.00000199 Ry

     iteration # 13     ecut=    70.00 Ry     beta= 0.70
     Davidson diagonalization with overlap

---- Real-time Memory Report at c_bands before calling an iterative solver
          1632 MiB given to the printing process from OS
             0 MiB allocation reported by mallinfo(arena+hblkhd)
       1629614 MiB available memory on the node where the printing process lives
------------------
     ethr =  1.16E-10,  avg # of iterations = 12.8


     -----------------------------------------------
     Non-local corr. energy    =      51.87492998 Ry
     -----------------------------------------------


     total cpu time spent up to now is     7063.9 secs

     total energy              =  -29693.96856915 Ry
     estimated scf accuracy    <       0.00000083 Ry

     iteration # 14     ecut=    70.00 Ry     beta= 0.70
     Davidson diagonalization with overlap

---- Real-time Memory Report at c_bands before calling an iterative solver
          1632 MiB given to the printing process from OS
             0 MiB allocation reported by mallinfo(arena+hblkhd)
       1626076 MiB available memory on the node where the printing process lives
------------------
     c_bands:  1 eigenvalues not converged
     ethr =  4.83E-11,  avg # of iterations = 13.8


     -----------------------------------------------
     Non-local corr. energy    =      51.87510876 Ry
     -----------------------------------------------


     total cpu time spent up to now is     7447.7 secs

     total energy              =  -29693.96856913 Ry
     estimated scf accuracy    <       0.00000024 Ry

     iteration # 15     ecut=    70.00 Ry     beta= 0.70
     Davidson diagonalization with overlap

---- Real-time Memory Report at c_bands before calling an iterative solver
          1632 MiB given to the printing process from OS
             0 MiB allocation reported by mallinfo(arena+hblkhd)
       1626032 MiB available memory on the node where the printing process lives
------------------
     c_bands:  1 eigenvalues not converged
     c_bands:  1 eigenvalues not converged
     ethr =  1.37E-11,  avg # of iterations = 15.0


     -----------------------------------------------
     Non-local corr. energy    =      51.87504567 Ry
     -----------------------------------------------


     total cpu time spent up to now is     8368.4 secs

     End of self-consistent calculation

          k = 0.0000 0.0000 0.0000 (154543 PWs)   bands (ev):

    -7.0852  -6.8630  -6.8283  -6.8160  -6.8160  -6.7992  -6.7862  -6.7862
    -6.7574  -6.7086  -6.7084  -6.7050  -6.7050  -6.6974  -6.6974  -6.6933
    -6.6886  -6.6836  -6.6836  -6.6822  -6.6822  -6.6715  -6.6715  -6.6650
    -6.6650  -6.6549  -6.6488  -6.6434  -6.6433  -6.6395  -6.6391  -6.6391
    -6.6272  -6.6234  -6.6234  -6.6233  -6.6169  -6.6169  -6.6115  -6.6041
    -6.5988  -6.5962  -6.5868  -6.5829  -6.5829  -6.5747  -6.5747  -6.5635
    -6.5492  -6.5492  -6.5422  -6.5401  -6.5401  -6.5321  -6.5321  -6.5084
    -6.5084  -6.5084  -6.5010  -6.5010  -6.4913  -6.4839  -6.4806  -6.4806
    -6.4563  -6.4495  -6.4495  -6.4298  -6.4035  -6.4034  -6.4029  -6.3859
    -6.3859  -6.3611  -6.3498  -6.3498  -6.3296  -6.3295  -6.3229  -6.3027
    -6.3027  -6.2809  -6.2716  -6.2562  -6.2562  -6.2429  -6.2429  -6.2275
    -6.2227  -6.2100  -6.2100  -6.1265  -5.6366  -5.6097  -5.6096  -5.5829
    -5.5786  -5.5760  -5.5760  -5.5709  -5.5709  -5.5707  -5.5603  -5.5603
    -5.5584  -5.5554  -5.5540  -5.5540  -5.5527  -5.5508  -5.5508  -5.5473
    -5.5473  -5.5367  -5.5360  -5.5360  -5.5340  -5.5319  -5.5319  -5.5297
    -5.5297  -5.5264  -5.5264  -5.5262  -5.5245  -5.5181  -5.5181  -5.5177
    -5.5177  -5.5170  -5.5155  -5.5155  -5.5064  -5.4966  -5.4959  -5.4951
    -5.4944  -5.4944  -5.4920  -5.4909  -5.4909  -5.4863  -5.4863  -5.4806
    -5.4794  -5.4794  -5.4790  -5.4790  -5.4770  -5.4755  -5.4755  -5.4732
    -5.4702  -5.4702  -5.4690  -5.4675  -5.4643  -5.4643  -5.4605  -5.4590
    -5.4590  -5.4562  -5.4526  -5.4526  -5.4507  -5.4507  -5.4492  -5.4488
    -5.4488  -5.4466  -5.4442  -5.4442  -5.4427  -5.4427  -5.4415  -5.4400
    -5.4400  -5.4396  -5.4396  -5.4382  -5.4329  -5.4306  -5.4306  -5.4287
    -5.4287  -5.4282  -5.4269  -5.4224  -5.4224  -5.4187  -5.4187  -5.4185
    -5.4140  -5.4132  -5.4132  -5.4113  -5.4087  -5.4087  -5.4073  -5.4060
    -5.4060  -5.4020  -5.4016  -5.4016  -5.4004  -5.3991  -5.3991  -5.3956
    -5.3956  -5.3950  -5.3936  -5.3935  -5.3890  -5.3890  -5.3888  -5.3865
    -5.3865  -5.3863  -5.3863  -5.3855  -5.3840  -5.3840  -5.3838  -5.3795
    -5.3795  -5.3791  -5.3761  -5.3755  -5.3755  -5.3727  -5.3714  -5.3714
    -5.3701  -5.3701  -5.3698  -5.3630  -5.3630  -5.3600  -5.3595  -5.3586
    -5.3586  -5.3561  -5.3561  -5.3552  -5.3552  -5.3544  -5.3504  -5.3490
    -5.3490  -5.3474  -5.3474  -5.3460  -5.3440  -5.3440  -5.3411  -5.3411
    -5.3403  -5.3403  -5.3403  -5.3388  -5.3385  -5.3346  -5.3346  -5.3313
    -5.3294  -5.3294  -5.3273  -5.3273  -5.3256  -5.3223  -5.3223  -5.3217
    -5.3213  -5.3213  -5.3213  -5.3173  -5.3130  -5.3115  -5.3115  -5.3114
    -5.3114  -5.3077  -5.3075  -5.3075  -5.3065  -5.3017  -5.3014  -5.3014
    -5.2996  -5.2996  -5.2979  -5.2949  -5.2949  -5.2924  -5.2924  -5.2916
    -5.2899  -5.2899  -5.2887  -5.2846  -5.2846  -5.2826  -5.2826  -5.2808
    -5.2803  -5.2803  -5.2781  -5.2775  -5.2775  -5.2772  -5.2772  -5.2751
    -5.2710  -5.2710  -5.2693  -5.2662  -5.2661  -5.2657  -5.2657  -5.2610
    -5.2610  -5.2574  -5.2551  -5.2551  -5.2523  -5.2501  -5.2501  -5.2471
    -5.2471  -5.2466  -5.2464  -5.2439  -5.2431  -5.2431  -5.2377  -5.2359
    -5.2359  -5.2336  -5.2297  -5.2268  -5.2259  -5.2247  -5.2247  -5.2218
    -5.2218  -5.2180  -5.2180  -5.2145  -5.2145  -5.2110  -5.2110  -5.2069
    -5.2065  -5.2065  -5.2037  -5.2037  -5.2024  -5.2019  -5.2019  -5.1993
    -5.1993  -5.1982  -5.1936  -5.1916  -5.1916  -5.1915  -5.1868  -5.1868
    -5.1854  -5.1831  -5.1831  -5.1817  -5.1751  -5.1703  -5.1703  -5.1684
    -5.1682  -5.1666  -5.1666  -5.1602  -5.1543  -5.1543  -5.1533  -5.1532
    -5.1532  -5.1520  -5.1520  -5.1469  -5.1469  -5.1436  -5.1402  -5.1373
    -5.1373  -5.1302  -5.1302  -5.1302  -5.1279  -5.1279  -5.1251  -5.1251
    -5.1187  -5.1174  -5.1101  -5.1101  -5.1039  -5.1014  -5.1014  -5.1003
    -5.0960  -5.0960  -5.0927  -5.0927  -5.0854  -5.0820  -5.0782  -5.0782
    -5.0715  -5.0659  -5.0659  -5.0619  -5.0526  -5.0526  -5.0345  -5.0345
    -5.0270  -5.0256  -5.0111  -5.0075  -5.0075  -4.9988  -4.9988  -4.9939
    -4.9551  -4.9551  -4.9490  -4.9373  -4.9273  -4.9273  -4.8813  -4.8812
    -4.8584  -4.8584  -4.8276  -4.8186  -4.8167  -4.8066  -4.8066  -4.7767
    -4.7767  -4.7626  -4.7626  -4.7609  -4.7322  -4.7322  -4.7217  -4.7214
    -4.7117  -4.7117  -4.6772  -4.6772  -4.6738  -4.6738  -4.6663  -4.6663
    -4.6590  -4.6590  -4.6557  -4.6417  -4.6387  -4.6387  -4.6331  -4.6331
    -4.6325  -4.6260  -4.6160  -4.6160  -4.5928  -4.5928  -4.5853  -4.5830
    -4.5830  -4.5788  -4.5788  -4.5705  -4.5635  -4.5634  -4.5584  -4.5584
    -4.5577  -4.5408  -4.5279  -4.5279  -4.5195  -4.5195  -4.5169  -4.4579
    -4.4056  -4.3454  -4.0173  -4.0173  -4.0052  -3.9928  -3.9921  -3.9921
    -3.9878  -3.9824  -3.9620  -3.9620  -3.9501  -3.9501  -3.8818  -3.8818
    -3.8653  -3.8653  -3.8428  -3.8405  -3.8405  -3.8154  -3.7884  -3.7884
    -3.7680  -3.7648  -3.7648  -3.7384  -3.7366  -3.6836  -3.6836  -3.6672
    -3.6672  -3.6434  -3.6316  -3.6316  -3.6281  -3.6126  -3.5661  -3.4901
    -3.4900  -3.4009  -3.3824  -3.3824  -3.3727  -3.3539  -3.3539  -3.3430
    -3.3123  -3.3123  -3.3049  -3.2720  -3.2720  -3.2680  -3.2676  -3.2676
    -3.2210  -3.2210  -3.1780  -3.1780  -3.1716  -3.1516  -3.1174  -3.1174
    -3.0642  -3.0192  -3.0192  -2.9686  -2.8975  -2.8975  -2.8212  -2.3827
    -2.2867  -2.2375  -2.2375   1.9240   2.0885   2.0885   2.0958   2.1226
     2.1271   2.1272   2.4644   2.4644   2.4706   2.5499   2.5867   2.5867
     2.6445   2.6446   2.6531   2.6531   2.6637   2.6637   2.6677   2.6927
     2.6927   2.6952   2.7036   2.7095   2.7096   2.7250   2.7499   2.7500
     2.7507   2.7871   2.7882   2.7882   2.8141   3.0291   3.0291   3.0770
     3.1259   3.1495   3.1495   3.1706   3.1706   3.1948   3.1949   3.1979
     3.2202   3.2312   3.2312   3.3218   3.3219   3.3227   3.3619   3.3759
     3.3999   3.4175   3.4175   3.4262   3.4486   3.4597   3.4597   3.5284
     3.5285   3.5524   3.5594   3.5594   3.6023   3.6023   3.7227   3.7684
     3.7684   3.7705   3.8448   3.8503   3.8503   4.5789   4.6461   4.6461
     4.6658   4.6990   4.7127   4.7172   4.7173   4.7362   4.7363   4.7433
     4.7434   4.7445   4.7597   4.7740   4.7741   4.7956   4.7956   4.8084
     4.8085   4.8114   4.8198   4.8198   4.8688   4.8689   4.8689   4.8723
     4.9271   4.9580   4.9580   4.9719   4.9748   4.9748   4.9795   5.0235
     5.0235   5.0247   5.0887   5.0887   5.0895   5.0897   5.1124   5.1124
     5.3740   5.3740   5.6641   5.7136   5.7198   5.7198   5.7534   5.7534
     5.7536   5.7783   5.7783   5.7792   5.8297   5.8297   5.8448   5.8821
     5.8822   5.8937   5.9138   5.9249   5.9270   5.9270   5.9304   5.9389
     5.9439   5.9439   5.9765   5.9765   5.9925   5.9925   5.9978   5.9993
     6.0152   6.0153   6.0351   6.0351   6.0597   6.0597   6.0713   6.1554
     6.1555   6.2653   6.2653   6.2701   6.2702   6.2721   6.2770   6.3146
     6.3282   6.3282   6.3513   6.3652   6.3652   6.3877   6.3878   6.4031
     6.4031   6.5104   6.5440   6.5440   6.5484   6.5867   6.5867   6.6342
     6.6601   6.6917   6.6934   6.6934   6.6986   6.7101   6.7101   6.7184
     6.7364   6.7364   6.7837   6.7837   6.8413   6.9005   6.9005   6.9170
     6.9620   6.9620   7.0226   7.0379   7.0379   7.0674   7.0791   7.0791
     7.1310   7.1323   7.1362   7.1362   7.1693   7.1693   7.1795   7.1808
     7.1825   7.1825   7.1977   7.1977   7.2150   7.2362   7.2363   7.2873
     7.3035   7.3035   7.3357   7.3358   7.3403   7.3659   7.3659   7.3865
     7.4184   7.4226   7.4227   7.4387   7.4576   7.4576   7.4655   7.4703
     7.5027   7.5027   7.5244   7.5244   7.5795   7.5795   7.5965   7.5966
     7.7059   7.7164   7.7178   7.7179   7.7499   7.7564   7.7564   7.7679
     7.7680   7.7704   7.8031   7.8056   7.8056   7.8182   7.8183   7.8898
     7.8936   7.9034   7.9034   7.9468   7.9468   7.9605   7.9605   8.1225
     8.1357   8.1358   8.2189   8.2189   8.2450   8.2817   8.2818   8.3817
     8.3817   8.4447   8.4575   8.4575   8.6217   8.7143   8.7144   8.9456
     9.7271   9.9512   9.9512  10.1919  11.8666  11.9244  12.4389  12.4836
    12.5209  12.5210  12.5790  12.5790  12.6264  12.6626  12.6640  12.6640
    12.6720  12.6928  12.6929  12.7212  12.8622  12.8937  12.9350  12.9350
    12.9993  12.9994  13.0039  13.0328  13.0328  13.1025  13.1191  13.1191
    13.3534  13.4793  13.4794  13.4875  13.5578  13.5579  13.5722  13.8079
    13.8081  13.8472  13.9348  13.9349  13.9788  14.0948  14.1035  14.1035
    14.1238  14.1239  14.1527  14.1642  14.1642  14.1673  14.1709  14.1709
    14.2072  14.2072  14.2095  14.2141  14.2147  14.2147  14.2430  14.2430
    14.2544  14.2917  14.2917  14.2930  14.3512  14.4171  14.4480  14.4481
    14.5083  14.5083  14.5091  14.5106  14.5655  14.5655  14.6053  14.6054
    14.6626  14.6961  14.7260  14.7260  14.7436  14.7436  14.7513  14.7513
    14.7567  14.7627  14.7921  14.7921  14.8398  14.8824  14.8824  14.9179
    14.9673  14.9674  14.9803  15.1573  15.1573  15.4900  15.6839  15.7000
    15.7000  15.7124  15.7124  15.7287  15.7505  15.7506  15.7536  15.7627
    15.7627  15.8027  15.9227  15.9227  15.9232  15.9310  15.9310  15.9406
    15.9406  15.9679  15.9761  15.9810  15.9810  15.9961  15.9961  15.9984
    16.0248  16.0278  16.0571  16.0571  16.1999  16.1999  16.2122  16.2156
    16.2157  16.2174  16.2222  16.2222  16.2408  16.2466  16.2466  16.2518
    16.2650  16.2650  16.2693  16.2767  16.2767  16.2921  16.3244  16.3266
    16.3598  16.3598  16.3864  16.4010  16.4082  16.4082  16.4188  16.4271
    16.4271  16.4571  16.4571  16.4587  16.4842  16.4843  16.5080  16.5080
    16.5344  16.5529  16.5529  16.5917  16.6029  16.6029  16.6779

     occupation numbers 
     1.0000   1.0000   1.0000   1.0000   1.0000   1.0000   1.0000   1.0000
     1.0000   1.0000   1.0000   1.0000   1.0000   1.0000   1.0000   1.0000
     1.0000   1.0000   1.0000   1.0000   1.0000   1.0000   1.0000   1.0000
     1.0000   1.0000   1.0000   1.0000   1.0000   1.0000   1.0000   1.0000
     1.0000   1.0000   1.0000   1.0000   1.0000   1.0000   1.0000   1.0000
     1.0000   1.0000   1.0000   1.0000   1.0000   1.0000   1.0000   1.0000
     1.0000   1.0000   1.0000   1.0000   1.0000   1.0000   1.0000   1.0000
     1.0000   1.0000   1.0000   1.0000   1.0000   1.0000   1.0000   1.0000
     1.0000   1.0000   1.0000   1.0000   1.0000   1.0000   1.0000   1.0000
     1.0000   1.0000   1.0000   1.0000   1.0000   1.0000   1.0000   1.0000
     1.0000   1.0000   1.0000   1.0000   1.0000   1.0000   1.0000   1.0000
     1.0000   1.0000   1.0000   1.0000   1.0000   1.0000   1.0000   1.0000
     1.0000   1.0000   1.0000   1.0000   1.0000   1.0000   1.0000   1.0000
     1.0000   1.0000   1.0000   1.0000   1.0000   1.0000   1.0000   1.0000
     1.0000   1.0000   1.0000   1.0000   1.0000   1.0000   1.0000   1.0000
     1.0000   1.0000   1.0000   1.0000   1.0000   1.0000   1.0000   1.0000
     1.0000   1.0000   1.0000   1.0000   1.0000   1.0000   1.0000   1.0000
     1.0000   1.0000   1.0000   1.0000   1.0000   1.0000   1.0000   1.0000
     1.0000   1.0000   1.0000   1.0000   1.0000   1.0000   1.0000   1.0000
     1.0000   1.0000   1.0000   1.0000   1.0000   1.0000   1.0000   1.0000
     1.0000   1.0000   1.0000   1.0000   1.0000   1.0000   1.0000   1.0000
     1.0000   1.0000   1.0000   1.0000   1.0000   1.0000   1.0000   1.0000
     1.0000   1.0000   1.0000   1.0000   1.0000   1.0000   1.0000   1.0000
     1.0000   1.0000   1.0000   1.0000   1.0000   1.0000   1.0000   1.0000
     1.0000   1.0000   1.0000   1.0000   1.0000   1.0000   1.0000   1.0000
     1.0000   1.0000   1.0000   1.0000   1.0000   1.0000   1.0000   1.0000
     1.0000   1.0000   1.0000   1.0000   1.0000   1.0000   1.0000   1.0000
     1.0000   1.0000   1.0000   1.0000   1.0000   1.0000   1.0000   1.0000
     1.0000   1.0000   1.0000   1.0000   1.0000   1.0000   1.0000   1.0000
     1.0000   1.0000   1.0000   1.0000   1.0000   1.0000   1.0000   1.0000
     1.0000   1.0000   1.0000   1.0000   1.0000   1.0000   1.0000   1.0000
     1.0000   1.0000   1.0000   1.0000   1.0000   1.0000   1.0000   1.0000
     1.0000   1.0000   1.0000   1.0000   1.0000   1.0000   1.0000   1.0000
     1.0000   1.0000   1.0000   1.0000   1.0000   1.0000   1.0000   1.0000
     1.0000   1.0000   1.0000   1.0000   1.0000   1.0000   1.0000   1.0000
     1.0000   1.0000   1.0000   1.0000   1.0000   1.0000   1.0000   1.0000
     1.0000   1.0000   1.0000   1.0000   1.0000   1.0000   1.0000   1.0000
     1.0000   1.0000   1.0000   1.0000   1.0000   1.0000   1.0000   1.0000
     1.0000   1.0000   1.0000   1.0000   1.0000   1.0000   1.0000   1.0000
     1.0000   1.0000   1.0000   1.0000   1.0000   1.0000   1.0000   1.0000
     1.0000   1.0000   1.0000   1.0000   1.0000   1.0000   1.0000   1.0000
     1.0000   1.0000   1.0000   1.0000   1.0000   1.0000   1.0000   1.0000
     1.0000   1.0000   1.0000   1.0000   1.0000   1.0000   1.0000   1.0000
     1.0000   1.0000   1.0000   1.0000   1.0000   1.0000   1.0000   1.0000
     1.0000   1.0000   1.0000   1.0000   1.0000   1.0000   1.0000   1.0000
     1.0000   1.0000   1.0000   1.0000   1.0000   1.0000   1.0000   1.0000
     1.0000   1.0000   1.0000   1.0000   1.0000   1.0000   1.0000   1.0000
     1.0000   1.0000   1.0000   1.0000   1.0000   1.0000   1.0000   1.0000
     1.0000   1.0000   1.0000   1.0000   1.0000   1.0000   1.0000   1.0000
     1.0000   1.0000   1.0000   1.0000   1.0000   1.0000   1.0000   1.0000
     1.0000   1.0000   1.0000   1.0000   1.0000   1.0000   1.0000   1.0000
     1.0000   1.0000   1.0000   1.0000   1.0000   1.0000   1.0000   1.0000
     1.0000   1.0000   1.0000   1.0000   1.0000   1.0000   1.0000   1.0000
     1.0000   1.0000   1.0000   1.0000   1.0000   1.0000   1.0000   1.0000
     1.0000   1.0000   1.0000   1.0000   1.0000   1.0000   1.0000   1.0000
     1.0000   1.0000   1.0000   1.0000   1.0000   1.0000   1.0000   1.0000
     1.0000   1.0000   1.0000   1.0000   1.0000   1.0000   1.0000   1.0000
     1.0000   1.0000   1.0000   1.0000   1.0000   1.0000   1.0000   1.0000
     1.0000   1.0000   1.0000   1.0000   1.0000   1.0000   1.0000   1.0000
     1.0000   1.0000   1.0000   1.0000   1.0000   1.0000   1.0000   1.0000
     1.0000   1.0000   1.0000   1.0000   1.0000   1.0000   1.0000   1.0000
     1.0000   1.0000   1.0000   1.0000   1.0000   1.0000   1.0000   1.0000
     1.0000   1.0000   1.0000   1.0000   1.0000   1.0000   1.0000   1.0000
     1.0000   1.0000   1.0000   1.0000   1.0000   1.0000   1.0000   1.0000
     1.0000   1.0000   1.0000   1.0000   1.0000   1.0000   1.0000   1.0000
     1.0000   1.0000   1.0000   1.0000   1.0000   1.0000   1.0000   1.0000
     1.0000   1.0000   1.0000   1.0000   1.0000   1.0000   1.0000   1.0000
     1.0000   1.0000   1.0000   1.0000   1.0000   1.0000   1.0000   1.0000
     1.0000   1.0000   1.0000   1.0000   1.0000   1.0000   1.0000   1.0000
     1.0000   1.0000   1.0000   1.0000   1.0000   1.0000   1.0000   1.0000
     1.0000   1.0000   1.0000   1.0000   1.0000   1.0000   1.0000   1.0000
     1.0000   1.0000   1.0000   1.0000   1.0000   1.0000   1.0000   1.0000
     1.0000   1.0000   1.0000   1.0000   1.0000   1.0000   1.0000   1.0000
     1.0000   1.0000   1.0000   1.0000   1.0000   1.0000   1.0000   1.0000
     1.0000   1.0000   1.0000   1.0000   1.0000   1.0000   1.0000   1.0000
     1.0000   1.0000   1.0000   1.0000   1.0000   1.0000   1.0000   1.0000
     1.0000   1.0000   1.0000   1.0000   1.0000   1.0000   1.0000   1.0000
     1.0000   1.0000   1.0000   1.0000   1.0000   1.0000   1.0000   1.0000
     1.0000   1.0000   1.0000   1.0000   1.0000   1.0000   1.0000   1.0000
     1.0000   1.0000   1.0000   1.0000   1.0000   1.0000   1.0000   1.0000
     1.0000   1.0000   1.0000   1.0000   1.0000   1.0000   1.0000   1.0000
     1.0000   1.0000   1.0000   1.0000   1.0000   1.0000   1.0000   1.0000
     1.0000   1.0000   1.0000   1.0000   1.0000   1.0000   1.0000   1.0000
     1.0000   1.0000   1.0000   1.0000   1.0000   1.0000   1.0000   1.0000
     1.0000   1.0000   1.0000   1.0000   1.0000   1.0000   1.0000   1.0000
     1.0000   1.0000   1.0000   1.0000   1.0000   1.0000   1.0000   1.0000
     1.0000   1.0000   1.0000   1.0000   1.0000   1.0000   1.0000   1.0000
     1.0000   1.0000   1.0000   1.0000   1.0000   1.0000   1.0000   1.0000
     1.0000   1.0000   1.0000   1.0000   1.0000   1.0000   1.0000   1.0000
     1.0000   1.0000   1.0000   1.0000   1.0000   1.0000   1.0000   1.0000
     1.0000   1.0000   1.0000   1.0000   1.0000   1.0000   1.0000   1.0000
     1.0000   1.0000   1.0000   1.0000   1.0000   1.0000   1.0000   1.0000
     1.0000   1.0000   1.0000   1.0000   1.0000   1.0000   1.0000   1.0000
     1.0000   1.0000   1.0000   1.0000   1.0000   1.0000   1.0000   1.0000
     1.0000   1.0000   1.0000   1.0000   1.0000   1.0000   1.0000   1.0000
     1.0000   1.0000   1.0000   1.0000   1.0000   1.0000   1.0000   1.0000
     1.0000   1.0000   1.0000   1.0000   1.0000   1.0000   1.0000   1.0000
     1.0000   1.0000   1.0000   1.0000   1.0000   1.0000   1.0000   1.0000
     1.0000   1.0000   1.0000   1.0000   1.0000   1.0000   1.0000   1.0000
     1.0000   1.0000   1.0000   1.0000   1.0000   1.0000   1.0000   1.0000
     1.0000   1.0000   1.0000   1.0000   1.0000   1.0000   1.0000   1.0000
     1.0000   1.0000   1.0000   1.0000   1.0000   1.0000   1.0000   1.0000
     1.0000   1.0000   1.0000   1.0000   1.0000   1.0000   1.0000   1.0000
     1.0000   1.0000   1.0000   1.0000   1.0000   1.0000   1.0000   1.0000
     1.0000   1.0000   1.0000   1.0000   1.0000   1.0000   1.0000   1.0000
     1.0000   1.0000   1.0000   1.0000   1.0000   1.0000   1.0000   1.0000
     1.0000   1.0000   1.0000   1.0000   1.0000   1.0000   1.0000   1.0000
     1.0000   0.9678   0.9678   0.2573   0.0000   0.0000   0.0000   0.0000
     0.0000   0.0000   0.0000   0.0000   0.0000   0.0000   0.0000   0.0000
     0.0000   0.0000   0.0000   0.0000   0.0000   0.0000   0.0000   0.0000
     0.0000   0.0000   0.0000   0.0000   0.0000   0.0000   0.0000   0.0000
     0.0000   0.0000   0.0000   0.0000   0.0000   0.0000   0.0000   0.0000
     0.0000   0.0000   0.0000   0.0000   0.0000   0.0000   0.0000   0.0000
     0.0000   0.0000   0.0000   0.0000   0.0000   0.0000   0.0000   0.0000
     0.0000   0.0000   0.0000   0.0000   0.0000   0.0000   0.0000   0.0000
     0.0000   0.0000   0.0000   0.0000   0.0000   0.0000   0.0000   0.0000
     0.0000   0.0000   0.0000   0.0000   0.0000   0.0000   0.0000   0.0000
     0.0000   0.0000   0.0000   0.0000   0.0000   0.0000   0.0000   0.0000
     0.0000   0.0000   0.0000   0.0000   0.0000   0.0000   0.0000   0.0000
     0.0000   0.0000   0.0000   0.0000   0.0000   0.0000   0.0000   0.0000
     0.0000   0.0000   0.0000   0.0000   0.0000   0.0000   0.0000   0.0000
     0.0000   0.0000   0.0000   0.0000   0.0000   0.0000   0.0000   0.0000
     0.0000   0.0000   0.0000   0.0000   0.0000   0.0000   0.0000   0.0000
     0.0000   0.0000   0.0000   0.0000   0.0000   0.0000   0.0000   0.0000
     0.0000   0.0000   0.0000   0.0000   0.0000   0.0000   0.0000   0.0000
     0.0000   0.0000   0.0000   0.0000   0.0000   0.0000   0.0000   0.0000
     0.0000   0.0000   0.0000   0.0000   0.0000   0.0000   0.0000   0.0000
     0.0000   0.0000   0.0000   0.0000   0.0000   0.0000   0.0000   0.0000
     0.0000   0.0000   0.0000   0.0000   0.0000   0.0000   0.0000

          k = 0.0000 0.0000-0.4090 (154532 PWs)   bands (ev):

    -7.0728  -6.9133  -6.8236  -6.8127  -6.8127  -6.7842  -6.7842  -6.7573
    -6.7540  -6.7205  -6.7079  -6.7060  -6.7060  -6.7045  -6.7045  -6.6932
    -6.6851  -6.6836  -6.6836  -6.6802  -6.6802  -6.6727  -6.6727  -6.6671
    -6.6670  -6.6569  -6.6486  -6.6431  -6.6431  -6.6396  -6.6396  -6.6390
    -6.6302  -6.6238  -6.6238  -6.6233  -6.6157  -6.6157  -6.6137  -6.6038
    -6.5990  -6.5984  -6.5851  -6.5851  -6.5817  -6.5710  -6.5710  -6.5634
    -6.5486  -6.5486  -6.5430  -6.5402  -6.5401  -6.5320  -6.5320  -6.5088
    -6.5079  -6.5078  -6.5017  -6.5017  -6.4917  -6.4831  -6.4798  -6.4797
    -6.4587  -6.4496  -6.4496  -6.4267  -6.4051  -6.4051  -6.4029  -6.3846
    -6.3845  -6.3613  -6.3502  -6.3502  -6.3289  -6.3289  -6.3231  -6.3023
    -6.3023  -6.2810  -6.2714  -6.2562  -6.2562  -6.2430  -6.2429  -6.2275
    -6.2226  -6.2099  -6.2099  -6.1265  -5.6367  -5.6097  -5.6096  -5.5828
    -5.5787  -5.5760  -5.5760  -5.5708  -5.5708  -5.5707  -5.5602  -5.5602
    -5.5586  -5.5554  -5.5540  -5.5540  -5.5530  -5.5508  -5.5508  -5.5473
    -5.5473  -5.5370  -5.5360  -5.5360  -5.5334  -5.5319  -5.5319  -5.5296
    -5.5296  -5.5264  -5.5263  -5.5262  -5.5243  -5.5180  -5.5180  -5.5178
    -5.5178  -5.5169  -5.5154  -5.5154  -5.5071  -5.4970  -5.4953  -5.4951
    -5.4946  -5.4946  -5.4921  -5.4908  -5.4908  -5.4865  -5.4865  -5.4813
    -5.4799  -5.4799  -5.4791  -5.4791  -5.4769  -5.4756  -5.4756  -5.4733
    -5.4703  -5.4703  -5.4692  -5.4669  -5.4646  -5.4646  -5.4606  -5.4585
    -5.4585  -5.4560  -5.4529  -5.4529  -5.4511  -5.4511  -5.4505  -5.4489
    -5.4489  -5.4466  -5.4439  -5.4439  -5.4424  -5.4424  -5.4416  -5.4401
    -5.4401  -5.4399  -5.4399  -5.4394  -5.4335  -5.4310  -5.4310  -5.4283
    -5.4282  -5.4282  -5.4270  -5.4218  -5.4218  -5.4187  -5.4187  -5.4182
    -5.4138  -5.4118  -5.4118  -5.4102  -5.4100  -5.4100  -5.4058  -5.4058
    -5.4047  -5.4020  -5.4017  -5.4017  -5.4016  -5.3994  -5.3994  -5.3987
    -5.3959  -5.3959  -5.3940  -5.3901  -5.3893  -5.3893  -5.3893  -5.3870
    -5.3861  -5.3861  -5.3861  -5.3861  -5.3849  -5.3844  -5.3826  -5.3826
    -5.3799  -5.3797  -5.3796  -5.3780  -5.3780  -5.3728  -5.3704  -5.3704
    -5.3695  -5.3685  -5.3685  -5.3661  -5.3618  -5.3618  -5.3599  -5.3584
    -5.3584  -5.3569  -5.3569  -5.3547  -5.3547  -5.3547  -5.3503  -5.3502
    -5.3492  -5.3492  -5.3471  -5.3471  -5.3442  -5.3442  -5.3422  -5.3422
    -5.3412  -5.3393  -5.3393  -5.3381  -5.3358  -5.3344  -5.3344  -5.3329
    -5.3305  -5.3305  -5.3288  -5.3288  -5.3264  -5.3229  -5.3229  -5.3222
    -5.3211  -5.3211  -5.3201  -5.3181  -5.3161  -5.3135  -5.3109  -5.3109
    -5.3104  -5.3104  -5.3075  -5.3063  -5.3063  -5.3051  -5.3050  -5.3050
    -5.3021  -5.2978  -5.2978  -5.2954  -5.2944  -5.2944  -5.2917  -5.2917
    -5.2903  -5.2903  -5.2885  -5.2859  -5.2859  -5.2840  -5.2840  -5.2822
    -5.2816  -5.2816  -5.2776  -5.2776  -5.2748  -5.2748  -5.2727  -5.2716
    -5.2716  -5.2710  -5.2687  -5.2660  -5.2649  -5.2649  -5.2625  -5.2598
    -5.2598  -5.2568  -5.2568  -5.2545  -5.2519  -5.2512  -5.2512  -5.2479
    -5.2479  -5.2470  -5.2439  -5.2437  -5.2418  -5.2413  -5.2413  -5.2359
    -5.2359  -5.2336  -5.2269  -5.2252  -5.2244  -5.2244  -5.2220  -5.2220
    -5.2184  -5.2184  -5.2182  -5.2141  -5.2141  -5.2094  -5.2093  -5.2058
    -5.2058  -5.2036  -5.2036  -5.2023  -5.2022  -5.2022  -5.1997  -5.1997
    -5.1952  -5.1940  -5.1912  -5.1911  -5.1911  -5.1872  -5.1868  -5.1868
    -5.1827  -5.1827  -5.1818  -5.1765  -5.1694  -5.1694  -5.1685  -5.1684
    -5.1662  -5.1661  -5.1643  -5.1541  -5.1541  -5.1536  -5.1536  -5.1531
    -5.1522  -5.1522  -5.1479  -5.1479  -5.1437  -5.1402  -5.1378  -5.1378
    -5.1333  -5.1295  -5.1295  -5.1261  -5.1261  -5.1250  -5.1250  -5.1222
    -5.1187  -5.1091  -5.1091  -5.1089  -5.1003  -5.0994  -5.0994  -5.0929
    -5.0929  -5.0863  -5.0820  -5.0820  -5.0820  -5.0807  -5.0807  -5.0676
    -5.0675  -5.0661  -5.0619  -5.0595  -5.0528  -5.0528  -5.0480  -5.0372
    -5.0372  -5.0219  -5.0162  -5.0162  -5.0111  -5.0010  -5.0010  -4.9759
    -4.9675  -4.9674  -4.9674  -4.9497  -4.9497  -4.9490  -4.8899  -4.8899
    -4.8874  -4.8662  -4.8662  -4.8534  -4.8167  -4.8124  -4.8124  -4.7925
    -4.7649  -4.7649  -4.7488  -4.7488  -4.7379  -4.7379  -4.7238  -4.7238
    -4.7221  -4.7217  -4.6806  -4.6806  -4.6804  -4.6738  -4.6638  -4.6638
    -4.6589  -4.6569  -4.6569  -4.6417  -4.6412  -4.6412  -4.6325  -4.6242
    -4.6242  -4.6156  -4.6007  -4.6007  -4.6006  -4.5950  -4.5950  -4.5807
[...]
     Non-local corr. energy    =      51.87771487 Ry
     -----------------------------------------------

          total   stress  (Ry/bohr**3)                   (kbar)     P=       32.24
   0.00021740  -0.00000000   0.00000000           31.98       -0.00        0.00
  -0.00000000   0.00021740   0.00000000           -0.00       31.98        0.00
   0.00000000   0.00000000   0.00022261            0.00        0.00       32.75

     kinetic stress (kbar)  18387.71     -0.00      0.00
                                0.00  18387.71      0.00
                                0.00      0.00  18380.46

     local   stress (kbar)   4959.89     -0.07     -0.00
                               -0.07   4959.79      0.00
                               -0.00      0.00   3373.81

     nonloc. stress (kbar)     27.61     -0.00      0.00
                                0.00     27.61      0.00
                                0.00      0.00     40.10

     hartree stress (kbar)  19597.29     -0.00     -0.00
                               -0.00  19597.29      0.00
                               -0.00      0.00  20325.51

     exc-cor stress (kbar)   5146.00      0.00     -0.00
                                0.00   5146.00      0.00
                               -0.00      0.00   5146.19

     corecor stress (kbar) -13970.21     -0.00     -0.00
                               -0.00 -13970.21      0.00
                               -0.00      0.00 -13969.68

     ewald   stress (kbar) -34277.01      0.09      0.00
                                0.09 -34276.89     -0.00
                                0.00     -0.00 -33423.52

     hubbard stress (kbar)      0.00      0.00      0.00
                                0.00      0.00      0.00
                                0.00      0.00      0.00

     DFT-D   stress (kbar)      0.00      0.00      0.00
                                0.00      0.00      0.00
                                0.00      0.00      0.00

     XDM     stress (kbar)      0.00      0.00      0.00
                                0.00      0.00      0.00
                                0.00      0.00      0.00

     dft-nl  stress (kbar)    160.69     -0.00     -0.00
                               -0.00    160.69     -0.00
                               -0.00     -0.00    159.87

     TS-vdW  stress (kbar)      0.00      0.00      0.00
                                0.00      0.00      0.00
                                0.00      0.00      0.00

     MDB     stress (kbar)      0.00      0.00      0.00
                                0.00      0.00      0.00
                                0.00      0.00      0.00

     3D-RISM stress (kbar)      0.00      0.00      0.00
                                0.00      0.00      0.00
                                0.00      0.00      0.00

     Energy error            =      2.6E-05 Ry
     Gradient error          =      6.8E-04 Ry/Bohr

     bfgs converged in  10 scf cycles and   9 bfgs steps
     (criteria: energy <  1.0E-04 Ry, force <  1.0E-03 Ry/Bohr)

     End of BFGS Geometry Optimization

     Final energy             =  -29693.9762112038 Ry

     File ./GaN.bfgs deleted, as requested
Begin final coordinates

ATOMIC_POSITIONS (angstrom)
Ga            1.6222756606        0.9366198184        7.8618270722
Ga            1.6222756606        0.9366198184       13.2382781776
Ga            0.0141266029        3.6874732876        2.6236268255
Ga           -0.0032607010        3.7411817035        7.9220139039
Ga            0.0019987346        3.7424037099       13.2238678209
Ga           -1.6236419403        6.5555520260        2.6409750509
Ga           -1.6244265465        6.5550990333        7.9192142348
Ga           -1.6249049860        6.5548228062       13.2324697338
Ga           -3.2885867161        9.4079405589        2.6236268255
Ga           -3.2507675154        9.3660285042        7.9220139039
Ga           -3.2470795091        9.3699723058       13.2238678209
Ga            4.8086591759        0.9538910209        2.6236268255
Ga            4.8638656803        0.9420946598        7.9220139039
Ga            4.8622942511        0.9369288518       13.2238678209
Ga            3.2304247183        3.6874732876        2.6236268255
Ga            3.2478120222        3.7411817035        7.9220139039
Ga            3.2425525866        3.7424037099       13.2238678209
Ga            1.6222756606        6.5428856304        2.6359398101
Ga            1.6222756606        6.5522155375        7.9207252452
Ga            1.6222756606        6.5530260277       13.2267452831
Ga           -0.0116525601        9.3729323247        2.6359398101
Ga           -0.0035726235        9.3682673711        7.9207252452
Ga           -0.0028707185        9.3678621261       13.2267452831
Ga            8.1113724947        0.9382008156        2.6409750509
Ga            8.1113724947        0.9391068009        7.9192142348
Ga            8.1113724947        0.9396592552       13.2324697338
Ga            6.4752136956        3.7384648994        2.6241179831
Ga            6.4887062436        3.7462548256        7.9176618736
Ga            6.4869524734        3.7452422859       13.2339069363
Ga            4.8681932615        6.5555520260        2.6409750509
Ga            4.8689778677        6.5550990333        7.9192142348
Ga            4.8694563072        6.5548228062       13.2324697338
Ga            3.2562038813        9.3729323247        2.6359398101
Ga            3.2481239447        9.3682673711        7.9207252452
Ga            3.2474220397        9.3678621261       13.2267452831
Ga           11.4140858136        0.9538910209        2.6236268255
Ga           11.3588793091        0.9420946598        7.9220139039
Ga           11.3604507384        0.9369288518       13.2238678209
Ga            9.7475312939        3.7384648994        2.6241179831
Ga            9.7340387459        3.7462548256        7.9176618736
Ga            9.7357925161        3.7452422859       13.2339069363
Ga            8.1113724947        6.5723750688        2.6241179831
Ga            8.1113724947        6.5567952164        7.9176618736
Ga            8.1113724947        6.5588202958       13.2339069363
Ga            6.5331380373        9.4079405589        2.6236268255
Ga            6.4953188366        9.3660285042        7.9220139039
Ga            6.4916308303        9.3699723058       13.2238678209
Ga            0.0389647649        1.8507449946        5.2408912211
Ga            0.0068215017        1.8693029163       10.5597601485
Ga            0.0146397730        1.8647890352       15.9268732619
Ga           -1.6123086844        4.6760735926        5.2688539763
Ga           -1.6220054881        4.6828246862       10.5751464899
Ga           -1.6068535186        4.6743915738       15.8861737891
Ga           -3.2456549753        7.5051123548        5.2688539763
Ga           -3.2446567586        7.4933391297       10.5751464899
Ga           -3.2443840635        7.5106776763       15.8861737891
Ga           -4.8668245904       10.3478214094        5.2408912211
Ga           -4.8668245904       10.3107055661       10.5597601485
Ga           -4.8668245904       10.3197333282       15.9268732619
Ga            3.2055797226        1.8507449946        5.2408912211
Ga            3.2377229858        1.8693029163       10.5597601485
Ga            3.2299047145        1.8647890352       15.9268732619
Ga            1.6222722437        4.6672479690        5.2680046572
Ga            1.6222722437        4.6839040401       10.5716302566
Ga            1.6222722437        4.6728614561       15.8681153143
Ga           -0.0003368364        7.4927718145        5.2754006091
Ga           -0.0005107290        7.4926714176       10.5740209531
Ga           -0.0017778109        7.4919398675       15.8705947033
Ga           -1.6360077254       10.3107544210        5.2680046572
Ga           -1.6215831447       10.3024263854       10.5716302566
Ga           -1.6311463030       10.3079476774       15.8681153143
Ga            6.4780227870        1.8681254514        5.2688539763
Ga            6.4887178074        1.8731475830       10.5751464899
Ga            6.4738385331        1.8642421487       15.8861737891
Ga            4.8568531719        4.6760735926        5.2688539763
Ga            4.8665499756        4.6828246862       10.5751464899
Ga            4.8513980061        4.6743915738       15.8861737891
Ga            3.2448813239        7.4927718145        5.2754006091
Ga            3.2450552165        7.4926714176       10.5740209531
Ga            3.2463222984        7.4919398675       15.8705947033
Ga            1.6222722437       10.3032131821        5.2754006091
Ga            1.6222722437       10.3034139760       10.5740209531
Ga            1.6222722437       10.3048770761       15.8705947033
Ga            9.7447153687        1.8681254514        5.2688539763
Ga            9.7340203483        1.8731475830       10.5751464899
Ga            9.7488996226        1.8642421487       15.8861737891
Ga            8.1113690779        4.6831037996        5.2648261932
Ga            8.1113690779        4.6831037996       10.5773810839
Ga            8.1113690779        4.6831037996       15.8774233636
Ga            6.4901994627        7.5051123548        5.2688539763
Ga            6.4892012460        7.4933391297       10.5751464899
Ga            6.4889285509        7.5106776763       15.8861737891
Ga            4.8805522129       10.3107544210        5.2680046572
Ga            4.8661276322       10.3024263854       10.5716302566
Ga            4.8756907905       10.3079476774       15.8681153143
N             1.6222756606        0.9366198184        4.8132979942
N             1.6222756606        0.9366198184        9.8952762031
N             1.6222756606        0.9366198184       15.1957392719
N            -0.0018661515        3.7514651266        4.6331062438
N            -0.0012416842        3.7527772753        9.9216828921
N             0.0045039969        3.7538079945       15.1901145939
N            -1.6206496056        6.5572796512        4.6401918248
N            -1.6219277524        6.5565417128        9.9172556808
N            -1.6235844176        6.5555852367       15.2126419409
N            -3.2411645351        9.3620945078        4.6331062438
N            -3.2397159473        9.3619792380        9.9216828921
N            -3.2359504778        9.3664397843       15.1901145939
N             4.8720741113        0.9357452330        4.6331062438
N             4.8728982317        0.9345483541        9.9216828921
N             4.8709180201        0.9290570887       15.1901145939
N             3.2464174727        3.7514651266        4.6331062438
N             3.2457930054        3.7527772753        9.9216828921
N             3.2400473243        3.7538079945       15.1901145939
N             1.6222756606        6.5563185254        4.6350594090
N             1.6222756606        6.5594543242        9.9172719620
N             1.6222756606        6.5600248041       15.2099839864
N            -0.0000193318        9.3662158772        4.6350594090
N             0.0026963496        9.3646479778        9.9172719620
N             0.0031903997        9.3643627378       15.2099839864
N             8.1113724947        0.9347455651        4.6401918248
N             8.1113724947        0.9362214419        9.9172556808
N             8.1113724947        0.9381343941       15.2126419409
N             6.4884401097        3.7461011731        4.6291693017
N             6.4905730799        3.7473326440        9.9166170619
N             6.4862611585        3.7448431550       15.2167002344
N             4.8652009268        6.5572796512        4.6401918248
N             4.8664790736        6.5565417128        9.9172556808
N             4.8681357388        6.5555852367       15.2126419409
N             3.2445706530        9.3662158772        4.6350594090
N             3.2418549716        9.3646479778        9.9172719620
N             3.2413609215        9.3643627378       15.2099839864
N            11.3506708782        0.9357452330        4.6331062438
N            11.3498467578        0.9345483541        9.9216828921
N            11.3518269694        0.9290570887       15.1901145939
N             9.7343048798        3.7461011731        4.6291693017
N             9.7321719096        3.7473326440        9.9166170619
N             9.7364838310        3.7448431550       15.2167002344
N             8.1113724947        6.5571025213        4.6291693017
N             8.1113724947        6.5546395795        9.9166170619
N             8.1113724947        6.5596185575       15.2167002344
N             6.4857158563        9.3620945078        4.6331062438
N             6.4842672685        9.3619792380        9.9216828921
N             6.4805017990        9.3664397843       15.1901145939
N            -0.1249444300        1.9453780124        1.9377842583
N            -0.0242884245        1.8872642405        7.2948171506
N             0.0004516804        1.8729805343       12.5494776694
N            -1.6236461862        4.7067517418        1.9990178609
N            -1.6252853097        4.6866663152        7.2742186606
N            -1.6255919653        4.6842107246       12.5620651573
N            -3.2247556697        7.4799547156        1.9990178609
N            -3.2429697211        7.4885779063        7.2742186606
N            -3.2452496528        7.4895401301       12.5620651573
N            -4.8668245904       10.1585553738        1.9377842583
N            -4.8668245904       10.2747829176        7.2948171506
N            -4.8668245904       10.3033503300       12.5494776694
N             3.3694889175        1.9453780124        1.9377842583
N             3.2688329120        1.8872642405        7.2948171506
N             3.2440928071        1.8729805343       12.5494776694
N             1.6222722437        4.6896935674        1.9865965090
N             1.6222722437        4.6842822405        7.2767965116
N             1.6222722437        4.6868864731       12.5549763006
N             0.0050170573        7.4958628864        1.9932162330
N             0.0009028165        7.4934875284        7.2760510982
N            -0.0007460985        7.4925355269       12.5639534790
N            -1.6165692670       10.2995316218        1.9865965090
N            -1.6212556135       10.3022372852        7.2767965116
N            -1.6190002819       10.3009351689       12.5549763006
N             6.5102595945        1.8626049414        1.9990178609
N             6.4936846665        1.8740671773        7.2742186606
N             6.4917113904        1.8755605441       12.5620651573
N             4.8681906737        4.7067517418        1.9990178609
N             4.8698297972        4.6866663152        7.2742186606
N             4.8701364528        4.6842107246       12.5620651573
N             3.2395274302        7.4958628864        1.9932162330
N             3.2436416710        7.4934875284        7.2760510982
N             3.2452905860        7.4925355269       12.5639534790
N             1.6222722437       10.2970310382        1.9932162330
N             1.6222722437       10.3017817543        7.2760510982
N             1.6222722437       10.3036857573       12.5639534790
N             9.7124785612        1.8626049414        1.9990178609
N             9.7290534892        1.8740671773        7.2742186606
N             9.7310267652        1.8755605441       12.5620651573
N             8.1113690779        4.6831037996        1.9956313189
N             8.1113690779        4.6831037996        7.2695148718
N             8.1113690779        4.6831037996       12.5687654813
N             6.4693001571        7.4799547156        1.9990178609
N             6.4875142085        7.4885779063        7.2742186606
N             6.4897941402        7.4895401301       12.5620651573
N             4.8611137545       10.2995316218        1.9865965090
N             4.8658001010       10.3022372852        7.2767965116
N             4.8635447694       10.3009351689       12.5549763006
End final coordinates



     Writing all to output data dir ./GaN.save/
 
     init_run     :     38.47s CPU     53.23s WALL (       1 calls)
     electrons    :  51790.94s CPU  52501.97s WALL (      10 calls)
     update_pot   :     26.17s CPU     26.38s WALL (       9 calls)
     forces       :    189.69s CPU    193.39s WALL (      10 calls)
     stress       :   3372.03s CPU   3405.90s WALL (      10 calls)

     Called by init_run:
     wfcinit      :     34.98s CPU     49.44s WALL (       1 calls)
     wfcinit:atom :      0.07s CPU      0.13s WALL (       2 calls)
     wfcinit:wfcr :     34.20s CPU     48.37s WALL (       2 calls)
     potinit      :      1.35s CPU      1.53s WALL (       1 calls)
     hinit0       :      0.62s CPU      0.66s WALL (       1 calls)

     Called by electrons:
     c_bands      :  50774.88s CPU  51468.76s WALL (     126 calls)
     sum_band     :    852.14s CPU    863.78s WALL (     126 calls)
     v_of_rho     :     69.69s CPU     71.09s WALL (     130 calls)
     v_h          :      0.71s CPU      0.72s WALL (     130 calls)
     v_xc         :     79.53s CPU     81.07s WALL (     150 calls)
     newd         :     22.40s CPU     22.98s WALL (     130 calls)
     PAW_pot      :     73.67s CPU     74.27s WALL (     139 calls)
     mix_rho      :      3.86s CPU      4.06s WALL (     126 calls)
     vdW_kernel   :      0.25s CPU      0.26s WALL (       1 calls)

     Called by c_bands:
     init_us_2    :     49.58s CPU     50.41s WALL (     564 calls)
     init_us_2:cp :     49.56s CPU     50.40s WALL (     564 calls)
     cegterg      :  46757.24s CPU  47349.38s WALL (     255 calls)

     Called by sum_band:
     sum_band:wei :      0.26s CPU      0.27s WALL (     126 calls)
     sum_band:loo :    818.16s CPU    826.10s WALL (     126 calls)
     sum_band:buf :     12.86s CPU     13.12s WALL (     252 calls)
     sum_band:ini :     26.73s CPU     27.07s WALL (     252 calls)
     sum_band:cal :    519.62s CPU    523.62s WALL (     270 calls)
     sum_band:bec :      6.85s CPU      6.96s WALL (     270 calls)
     addusdens    :     20.87s CPU     22.33s WALL (     126 calls)
     addusd:skk   :      4.21s CPU      4.31s WALL (     252 calls)
     addusd:dgemm :     11.70s CPU     12.96s WALL (     252 calls)
     addusd:qvan2 :      4.04s CPU      4.09s WALL (     252 calls)

     Called by *egterg:
     cdiaghg      :  36501.98s CPU  36768.93s WALL (    3010 calls)
     cegterg:over :   1994.12s CPU   2061.08s WALL (    2787 calls)
     cegterg:upda :   1203.86s CPU   1230.06s WALL (    2787 calls)
     cegterg:last :    672.75s CPU    677.66s WALL (     277 calls)
     h_psi        :   4432.26s CPU   4512.39s WALL (    3044 calls)
     s_psi        :   1368.32s CPU   1397.31s WALL (    3044 calls)
     g_psi        :      4.84s CPU      4.90s WALL (    2787 calls)

     Called by h_psi:
     h_psi:calbec :   1473.07s CPU   1485.01s WALL (    3044 calls)
     vloc_psi     :   1567.82s CPU   1584.68s WALL (    3044 calls)
     add_vuspsi   :   1367.05s CPU   1399.29s WALL (    3044 calls)

     General routines
     calbec       :   2257.08s CPU   2274.93s WALL (    3414 calls)
     fft          :     46.60s CPU     47.12s WALL (    9875 calls)
     ffts         :      0.85s CPU      0.86s WALL (     256 calls)
     fftw         :   1724.47s CPU   1743.13s WALL ( 1723416 calls)
     interpolate  :      0.97s CPU      0.98s WALL (     130 calls)
 
     Parallel routines

     PAW routines
     PAW_pot      :     73.67s CPU     74.27s WALL (     139 calls)
     PAW_symme    :      0.43s CPU      0.44s WALL (     264 calls)
 
     PWSCF        :     15h24m CPU     15h37m WALL

 
   This run was terminated on:   8:48:57  11Apr2024            

=------------------------------------------------------------------------------=
   JOB DONE.
=------------------------------------------------------------------------------=
