
     Program PWSCF v.7.1 starts on 30Jan2024 at  9:36:59 

     This program is part of the open-source Quantum ESPRESSO suite
     for quantum simulation of materials; please cite
         "P. Giannozzi et al., J. Phys.:Condens. Matter 21 395502 (2009);
         "P. Giannozzi et al., J. Phys.:Condens. Matter 29 465901 (2017);
         "P. Giannozzi et al., J. Chem. Phys. 152 154105 (2020);
          URL http://www.quantum-espresso.org", 
     in publications or presentations arising from this work. More details at
     http://www.quantum-espresso.org/quote

     Parallel version (MPI & OpenMP), running on     256 processor cores
     Number of MPI processes:               256
     Threads/MPI process:                     1

     MPI processes distributed on     2 nodes
     2003807 MiB available memory on the printing compute node when the environment starts
 
     Reading input from espresso.pwi
Warning: card &CELL ignored
Warning: card    CELL_DYNAMICS    = 'BFGS' ignored
Warning: card / ignored

     Current dimensions of program PWSCF are:
     Max number of different atomic species (ntypx) = 10
     Max number of k-points (npk) =  40000
     Max angular momentum in pseudopotentials (lmaxx) =  4
     file Ga.pbe-dn-kjpaw_psl.1.0.0.UPF: wavefunction(s)  4S renormalized
     file N.pbe-n-kjpaw_psl.1.0.0.UPF: wavefunction(s)  2S renormalized

     **************************************************************************
     Initializing libbeef V0.1.2 with the BEEF-vdW functional.
     Citation: Wellendorff et al., PRB 85, 235149 (2012).
     **************************************************************************


     IMPORTANT: XC functional enforced from input :
     Exchange-correlation= BEEF-VDW
                           (   1   4  43  14   2   0   0)
     Any further DFT definition will be discarded
     Please, verify this is what you really want

 
     K-points division:     npool     =       4
     R & G space division:  proc/nbgrp/npool/nimage =      64
     Subspace diagonalization in iterative solution of the eigenvalue problem:
     a serial algorithm will be used

 
     Parallelization info
     --------------------
     sticks:   dense  smooth     PW     G-vecs:    dense   smooth      PW
     Min         226     181     47                26979    19303    2571
     Max         228     182     48                26983    19308    2576
     Sum       14527   11629   3037              1726709  1235535  164709
 
     Using Slab Decomposition
 


     bravais-lattice index     =            4
     lattice parameter (alat)  =      24.5252  a.u.
     unit-cell volume          =   15616.6055 (a.u.)^3
     number of atoms/cell      =          191
     number of atomic types    =            2
     number of electrons       =      1717.00
     number of Kohn-Sham states=         1031
     kinetic-energy cutoff     =      70.0000  Ry
     charge density cutoff     =     350.0000  Ry
     scf convergence threshold =      1.0E-09
     mixing beta               =       0.7000
     number of iterations used =            8  plain     mixing
     energy convergence thresh.=      1.0E-04
     force convergence thresh. =      1.0E-03
     Exchange-correlation= BEEF-VDW
                           (   1   4  43  14   2   0   0)
     nstep                     =           50


     celldm(1)=  24.525232  celldm(2)=   0.000000  celldm(3)=   1.222409
     celldm(4)=   0.000000  celldm(5)=   0.000000  celldm(6)=   0.000000

     crystal axes: (cart. coord. in units of alat)
               a(1) = (   1.000000   0.000000   0.000000 )  
               a(2) = (  -0.500000   0.866025   0.000000 )  
               a(3) = (   0.000000   0.000000   1.222409 )  

     reciprocal axes: (cart. coord. in units 2 pi/alat)
               b(1) = (  1.000000  0.577350 -0.000000 )  
               b(2) = (  0.000000  1.154701  0.000000 )  
               b(3) = (  0.000000 -0.000000  0.818057 )  


     PseudoPot. # 1 for Ga read from file:
     //group///packages/espresso/pseudo/psl_1.0.0/pslibrary.1.0.0/pbe/PSEUDOPOTENTIALS/Ga.pbe-dn-kjpaw_psl.1.0.0.UPF
     MD5 check sum: cd2a01e492f15b435d17032472d8505c
     Pseudo is Projector augmented-wave + core cor, Zval = 13.0
     Generated using 'atomic' code by A. Dal Corso  v.7.1
     Shape of augmentation charge: PSQ
     Using radial grid of 1205 points,  6 beta functions with: 
                l(1) =   0
                l(2) =   0
                l(3) =   1
                l(4) =   1
                l(5) =   2
                l(6) =   2
     Q(r) pseudized with 0 coefficients 


     PseudoPot. # 2 for N  read from file:
     //group///packages/espresso/pseudo/psl_1.0.0/pslibrary.1.0.0/pbe/PSEUDOPOTENTIALS/N.pbe-n-kjpaw_psl.1.0.0.UPF
     MD5 check sum: f77f775694dac7e2c3fe1c82443d1a16
     Pseudo is Projector augmented-wave + core cor, Zval =  5.0
     Generated using 'atomic' code by A. Dal Corso  v.7.1
     Shape of augmentation charge: PSQ
     Using radial grid of 1085 points,  4 beta functions with: 
                l(1) =   0
                l(2) =   0
                l(3) =   1
                l(4) =   1
     Q(r) pseudized with 0 coefficients 


     atomic species   valence    mass     pseudopotential
        Ga            13.00    69.72300     Ga( 1.00)
        N              5.00    14.00700     N ( 1.00)

      6 Sym. Ops. (no inversion) found ( 4 have fractional translation)


                                    s                        frac. trans.

      isym =  1     identity                                     

 cryst.   s( 1) = (     1          0          0      )
                  (     0          1          0      )
                  (     0          0          1      )

 cart.    s( 1) = (  1.0000000  0.0000000  0.0000000 )
                  (  0.0000000  1.0000000  0.0000000 )
                  (  0.0000000  0.0000000  1.0000000 )


      isym =  2     120 deg rotation - cryst. axis [0,0,1]       

 cryst.   s( 2) = (     0          1          0      )    f =( -0.2500000 )
                  (    -1         -1          0      )       (  0.0000002 )
                  (     0          0          1      )       (  0.0000000 )

 cart.    s( 2) = ( -0.5000000 -0.8660254  0.0000000 )    f =( -0.2500001 )
                  (  0.8660254 -0.5000000  0.0000000 )       (  0.0000002 )
                  (  0.0000000  0.0000000  1.0000000 )       (  0.0000000 )


      isym =  3     120 deg rotation - cryst. axis [0,0,-1]      

 cryst.   s( 3) = (    -1         -1          0      )    f =( -0.2500002 )
                  (     1          0          0      )       ( -0.2500000 )
                  (     0          0          1      )       (  0.0000000 )

 cart.    s( 3) = ( -0.5000000  0.8660254  0.0000000 )    f =( -0.1250002 )
                  ( -0.8660254 -0.5000000  0.0000000 )       ( -0.2165064 )
                  (  0.0000000  0.0000000  1.0000000 )       (  0.0000000 )


      isym =  4     inv. 180 deg rotation - cart. axis [1,0,0]   

 cryst.   s( 4) = (    -1          0          0      )    f =( -0.2500002 )
                  (     1          1          0      )       (  0.0000000 )
                  (     0          0          1      )       (  0.0000000 )

 cart.    s( 4) = ( -1.0000000  0.0000000  0.0000000 )    f =( -0.2500002 )
                  (  0.0000000  1.0000000  0.0000000 )       (  0.0000000 )
                  (  0.0000000  0.0000000  1.0000000 )       (  0.0000000 )


      isym =  5     inv. 180 deg rotation - cryst. axis [0,1,0]  

 cryst.   s( 5) = (     1          1          0      )
                  (     0         -1          0      )
                  (     0          0          1      )

 cart.    s( 5) = (  0.5000000  0.8660254  0.0000000 )
                  (  0.8660254 -0.5000000  0.0000000 )
                  (  0.0000000  0.0000000  1.0000000 )


      isym =  6     inv. 180 deg rotation - cryst. axis [1,1,0]  

 cryst.   s( 6) = (     0         -1          0      )    f =( -0.2500000 )
                  (    -1          0          0      )       ( -0.2500000 )
                  (     0          0          1      )       (  0.0000000 )

 cart.    s( 6) = (  0.5000000 -0.8660254  0.0000000 )    f =( -0.1250000 )
                  ( -0.8660254 -0.5000000  0.0000000 )       ( -0.2165064 )
                  (  0.0000000  0.0000000  1.0000000 )       (  0.0000000 )


     point group C_3v (3m)  
     there are  3 classes
     the character table:

       E     2C3   3s_v 
A_1    1.00  1.00  1.00
A_2    1.00  1.00 -1.00
E      2.00 -1.00  0.00

     the symmetry operations in each class and the name of the first element:

     E        1
          identity                                               
     2C3      2    3
          120 deg rotation - cryst. axis [0,0,1]                 
     3s_v     4    5    6
          inv. 180 deg rotation - cart. axis [1,0,0]             

   Cartesian axes

     site n.     atom                  positions (alat units)
         1           Ga  tau(   1) = (   0.1250001   0.0721687   0.6108633  )
         2           Ga  tau(   2) = (   0.1250001   0.0721687   1.0183331  )
         3           Ga  tau(   3) = (   0.0000001   0.2886751   0.2033935  )
         4           Ga  tau(   4) = (   0.0000001   0.2886751   0.6108633  )
         5           Ga  tau(   5) = (   0.0000001   0.2886751   1.0183331  )
         6           Ga  tau(   6) = (  -0.1249999   0.5051814   0.2033935  )
         7           Ga  tau(   7) = (  -0.1249999   0.5051814   0.6108633  )
         8           Ga  tau(   8) = (  -0.1249999   0.5051814   1.0183331  )
         9           Ga  tau(   9) = (  -0.2499999   0.7216878   0.2033935  )
        10           Ga  tau(  10) = (  -0.2499999   0.7216878   0.6108633  )
        11           Ga  tau(  11) = (  -0.2499999   0.7216878   1.0183331  )
        12           Ga  tau(  12) = (   0.3750001   0.0721687   0.2033935  )
        13           Ga  tau(  13) = (   0.3750001   0.0721687   0.6108633  )
        14           Ga  tau(  14) = (   0.3750001   0.0721687   1.0183331  )
        15           Ga  tau(  15) = (   0.2500001   0.2886751   0.2033935  )
        16           Ga  tau(  16) = (   0.2500001   0.2886751   0.6108633  )
        17           Ga  tau(  17) = (   0.2500001   0.2886751   1.0183331  )
        18           Ga  tau(  18) = (   0.1250001   0.5051814   0.2033935  )
        19           Ga  tau(  19) = (   0.1250001   0.5051814   0.6108633  )
        20           Ga  tau(  20) = (   0.1250001   0.5051814   1.0183331  )
        21           Ga  tau(  21) = (   0.0000001   0.7216878   0.2033935  )
        22           Ga  tau(  22) = (   0.0000001   0.7216878   0.6108633  )
        23           Ga  tau(  23) = (   0.0000001   0.7216878   1.0183331  )
        24           Ga  tau(  24) = (   0.6250001   0.0721687   0.2033935  )
        25           Ga  tau(  25) = (   0.6250001   0.0721687   0.6108633  )
        26           Ga  tau(  26) = (   0.6250001   0.0721687   1.0183331  )
        27           Ga  tau(  27) = (   0.5000001   0.2886751   0.2033935  )
        28           Ga  tau(  28) = (   0.5000001   0.2886751   0.6108633  )
        29           Ga  tau(  29) = (   0.5000001   0.2886751   1.0183331  )
        30           Ga  tau(  30) = (   0.3750001   0.5051814   0.2033935  )
        31           Ga  tau(  31) = (   0.3750001   0.5051814   0.6108633  )
        32           Ga  tau(  32) = (   0.3750001   0.5051814   1.0183331  )
        33           Ga  tau(  33) = (   0.2500001   0.7216878   0.2033935  )
        34           Ga  tau(  34) = (   0.2500001   0.7216878   0.6108633  )
        35           Ga  tau(  35) = (   0.2500001   0.7216878   1.0183331  )
        36           Ga  tau(  36) = (   0.8750001   0.0721687   0.2033935  )
        37           Ga  tau(  37) = (   0.8750001   0.0721687   0.6108633  )
        38           Ga  tau(  38) = (   0.8750001   0.0721687   1.0183331  )
        39           Ga  tau(  39) = (   0.7500001   0.2886751   0.2033935  )
        40           Ga  tau(  40) = (   0.7500001   0.2886751   0.6108633  )
        41           Ga  tau(  41) = (   0.7500001   0.2886751   1.0183331  )
        42           Ga  tau(  42) = (   0.6250001   0.5051814   0.2033935  )
        43           Ga  tau(  43) = (   0.6250001   0.5051814   0.6108633  )
        44           Ga  tau(  44) = (   0.6250001   0.5051814   1.0183331  )
        45           Ga  tau(  45) = (   0.5000001   0.7216878   0.2033935  )
        46           Ga  tau(  46) = (   0.5000001   0.7216878   0.6108633  )
        47           Ga  tau(  47) = (   0.5000001   0.7216878   1.0183331  )
        48           Ga  tau(  48) = (  -0.0000002   0.1443377   0.4071284  )
        49           Ga  tau(  49) = (  -0.0000002   0.1443377   0.8145982  )
        50           Ga  tau(  50) = (  -0.0000002   0.1443377   1.2220680  )
        51           Ga  tau(  51) = (  -0.1250002   0.3608440   0.4071284  )
        52           Ga  tau(  52) = (  -0.1250002   0.3608440   0.8145982  )
        53           Ga  tau(  53) = (  -0.1250002   0.3608440   1.2220680  )
        54           Ga  tau(  54) = (  -0.2500002   0.5773504   0.4071284  )
        55           Ga  tau(  55) = (  -0.2500002   0.5773504   0.8145982  )
        56           Ga  tau(  56) = (  -0.2500002   0.5773504   1.2220680  )
        57           Ga  tau(  57) = (  -0.3750001   0.7938567   0.4071284  )
        58           Ga  tau(  58) = (  -0.3750001   0.7938567   0.8145982  )
        59           Ga  tau(  59) = (  -0.3750001   0.7938567   1.2220680  )
        60           Ga  tau(  60) = (   0.2499998   0.1443377   0.4071284  )
        61           Ga  tau(  61) = (   0.2499998   0.1443377   0.8145982  )
        62           Ga  tau(  62) = (   0.2499998   0.1443377   1.2220680  )
        63           Ga  tau(  63) = (   0.1249998   0.3608440   0.4071284  )
        64           Ga  tau(  64) = (   0.1249998   0.3608440   0.8145982  )
        65           Ga  tau(  65) = (   0.1249998   0.3608440   1.2220680  )
        66           Ga  tau(  66) = (  -0.0000002   0.5773504   0.4071284  )
        67           Ga  tau(  67) = (  -0.0000002   0.5773504   0.8145982  )
        68           Ga  tau(  68) = (  -0.0000002   0.5773504   1.2220680  )
        69           Ga  tau(  69) = (  -0.1250002   0.7938567   0.4071284  )
        70           Ga  tau(  70) = (  -0.1250002   0.7938567   0.8145982  )
        71           Ga  tau(  71) = (  -0.1250002   0.7938567   1.2220680  )
        72           Ga  tau(  72) = (   0.4999998   0.1443377   0.4071284  )
        73           Ga  tau(  73) = (   0.4999998   0.1443377   0.8145982  )
        74           Ga  tau(  74) = (   0.4999998   0.1443377   1.2220680  )
        75           Ga  tau(  75) = (   0.3749998   0.3608440   0.4071284  )
        76           Ga  tau(  76) = (   0.3749998   0.3608440   0.8145982  )
        77           Ga  tau(  77) = (   0.3749998   0.3608440   1.2220680  )
        78           Ga  tau(  78) = (   0.2499998   0.5773504   0.4071284  )
        79           Ga  tau(  79) = (   0.2499998   0.5773504   0.8145982  )
        80           Ga  tau(  80) = (   0.2499998   0.5773504   1.2220680  )
        81           Ga  tau(  81) = (   0.1249998   0.7938567   0.4071284  )
        82           Ga  tau(  82) = (   0.1249998   0.7938567   0.8145982  )
        83           Ga  tau(  83) = (   0.1249998   0.7938567   1.2220680  )
        84           Ga  tau(  84) = (   0.7499998   0.1443377   0.4071284  )
        85           Ga  tau(  85) = (   0.7499998   0.1443377   0.8145982  )
        86           Ga  tau(  86) = (   0.7499998   0.1443377   1.2220680  )
        87           Ga  tau(  87) = (   0.6249998   0.3608440   0.4071284  )
        88           Ga  tau(  88) = (   0.6249998   0.3608440   0.8145982  )
        89           Ga  tau(  89) = (   0.6249998   0.3608440   1.2220680  )
        90           Ga  tau(  90) = (   0.4999998   0.5773504   0.4071284  )
        91           Ga  tau(  91) = (   0.4999998   0.5773504   0.8145982  )
        92           Ga  tau(  92) = (   0.4999998   0.5773504   1.2220680  )
        93           Ga  tau(  93) = (   0.3749998   0.7938567   0.4071284  )
        94           Ga  tau(  94) = (   0.3749998   0.7938567   0.8145982  )
        95           Ga  tau(  95) = (   0.3749998   0.7938567   1.2220680  )
        96           N   tau(  96) = (   0.1250001   0.0721687   0.3568774  )
        97           N   tau(  97) = (   0.1250001   0.0721687   0.7643472  )
        98           N   tau(  98) = (   0.1250001   0.0721687   1.1718169  )
        99           N   tau(  99) = (   0.0000001   0.2886751   0.3568774  )
       100           N   tau( 100) = (   0.0000001   0.2886751   0.7643472  )
       101           N   tau( 101) = (   0.0000001   0.2886751   1.1718169  )
       102           N   tau( 102) = (  -0.1249999   0.5051814   0.3568774  )
       103           N   tau( 103) = (  -0.1249999   0.5051814   0.7643472  )
       104           N   tau( 104) = (  -0.1249999   0.5051814   1.1718169  )
       105           N   tau( 105) = (  -0.2499999   0.7216878   0.3568774  )
       106           N   tau( 106) = (  -0.2499999   0.7216878   0.7643472  )
       107           N   tau( 107) = (  -0.2499999   0.7216878   1.1718169  )
       108           N   tau( 108) = (   0.3750001   0.0721687   0.3568774  )
       109           N   tau( 109) = (   0.3750001   0.0721687   0.7643472  )
       110           N   tau( 110) = (   0.3750001   0.0721687   1.1718169  )
       111           N   tau( 111) = (   0.2500001   0.2886751   0.3568774  )
       112           N   tau( 112) = (   0.2500001   0.2886751   0.7643472  )
       113           N   tau( 113) = (   0.2500001   0.2886751   1.1718169  )
       114           N   tau( 114) = (   0.1250001   0.5051814   0.3568774  )
       115           N   tau( 115) = (   0.1250001   0.5051814   0.7643472  )
       116           N   tau( 116) = (   0.1250001   0.5051814   1.1718169  )
       117           N   tau( 117) = (   0.0000001   0.7216878   0.3568774  )
       118           N   tau( 118) = (   0.0000001   0.7216878   0.7643472  )
       119           N   tau( 119) = (   0.0000001   0.7216878   1.1718169  )
       120           N   tau( 120) = (   0.6250001   0.0721687   0.3568774  )
       121           N   tau( 121) = (   0.6250001   0.0721687   0.7643472  )
       122           N   tau( 122) = (   0.6250001   0.0721687   1.1718169  )
       123           N   tau( 123) = (   0.5000001   0.2886751   0.3568774  )
       124           N   tau( 124) = (   0.5000001   0.2886751   0.7643472  )
       125           N   tau( 125) = (   0.5000001   0.2886751   1.1718169  )
       126           N   tau( 126) = (   0.3750001   0.5051814   0.3568774  )
       127           N   tau( 127) = (   0.3750001   0.5051814   0.7643472  )
       128           N   tau( 128) = (   0.3750001   0.5051814   1.1718169  )
       129           N   tau( 129) = (   0.2500001   0.7216878   0.3568774  )
       130           N   tau( 130) = (   0.2500001   0.7216878   0.7643472  )
       131           N   tau( 131) = (   0.2500001   0.7216878   1.1718169  )
       132           N   tau( 132) = (   0.8750001   0.0721687   0.3568774  )
       133           N   tau( 133) = (   0.8750001   0.0721687   0.7643472  )
       134           N   tau( 134) = (   0.8750001   0.0721687   1.1718169  )
       135           N   tau( 135) = (   0.7500001   0.2886751   0.3568774  )
       136           N   tau( 136) = (   0.7500001   0.2886751   0.7643472  )
       137           N   tau( 137) = (   0.7500001   0.2886751   1.1718169  )
       138           N   tau( 138) = (   0.6250001   0.5051814   0.3568774  )
       139           N   tau( 139) = (   0.6250001   0.5051814   0.7643472  )
       140           N   tau( 140) = (   0.6250001   0.5051814   1.1718169  )
       141           N   tau( 141) = (   0.5000001   0.7216878   0.3568774  )
       142           N   tau( 142) = (   0.5000001   0.7216878   0.7643472  )
       143           N   tau( 143) = (   0.5000001   0.7216878   1.1718169  )
       144           N   tau( 144) = (  -0.0000002   0.1443377   0.1531425  )
       145           N   tau( 145) = (  -0.0000002   0.1443377   0.5606123  )
       146           N   tau( 146) = (  -0.0000002   0.1443377   0.9680820  )
       147           N   tau( 147) = (  -0.1250002   0.3608440   0.1531425  )
       148           N   tau( 148) = (  -0.1250002   0.3608440   0.5606123  )
       149           N   tau( 149) = (  -0.1250002   0.3608440   0.9680820  )
       150           N   tau( 150) = (  -0.2500002   0.5773504   0.1531425  )
       151           N   tau( 151) = (  -0.2500002   0.5773504   0.5606123  )
       152           N   tau( 152) = (  -0.2500002   0.5773504   0.9680820  )
       153           N   tau( 153) = (  -0.3750001   0.7938567   0.1531425  )
       154           N   tau( 154) = (  -0.3750001   0.7938567   0.5606123  )
       155           N   tau( 155) = (  -0.3750001   0.7938567   0.9680820  )
       156           N   tau( 156) = (   0.2499998   0.1443377   0.1531425  )
       157           N   tau( 157) = (   0.2499998   0.1443377   0.5606123  )
       158           N   tau( 158) = (   0.2499998   0.1443377   0.9680820  )
       159           N   tau( 159) = (   0.1249998   0.3608440   0.1531425  )
       160           N   tau( 160) = (   0.1249998   0.3608440   0.5606123  )
       161           N   tau( 161) = (   0.1249998   0.3608440   0.9680820  )
       162           N   tau( 162) = (  -0.0000002   0.5773504   0.1531425  )
       163           N   tau( 163) = (  -0.0000002   0.5773504   0.5606123  )
       164           N   tau( 164) = (  -0.0000002   0.5773504   0.9680820  )
       165           N   tau( 165) = (  -0.1250002   0.7938567   0.1531425  )
       166           N   tau( 166) = (  -0.1250002   0.7938567   0.5606123  )
       167           N   tau( 167) = (  -0.1250002   0.7938567   0.9680820  )
       168           N   tau( 168) = (   0.4999998   0.1443377   0.1531425  )
       169           N   tau( 169) = (   0.4999998   0.1443377   0.5606123  )
       170           N   tau( 170) = (   0.4999998   0.1443377   0.9680820  )
       171           N   tau( 171) = (   0.3749998   0.3608440   0.1531425  )
       172           N   tau( 172) = (   0.3749998   0.3608440   0.5606123  )
       173           N   tau( 173) = (   0.3749998   0.3608440   0.9680820  )
       174           N   tau( 174) = (   0.2499998   0.5773504   0.1531425  )
       175           N   tau( 175) = (   0.2499998   0.5773504   0.5606123  )
       176           N   tau( 176) = (   0.2499998   0.5773504   0.9680820  )
       177           N   tau( 177) = (   0.1249998   0.7938567   0.1531425  )
       178           N   tau( 178) = (   0.1249998   0.7938567   0.5606123  )
       179           N   tau( 179) = (   0.1249998   0.7938567   0.9680820  )
       180           N   tau( 180) = (   0.7499998   0.1443377   0.1531425  )
       181           N   tau( 181) = (   0.7499998   0.1443377   0.5606123  )
       182           N   tau( 182) = (   0.7499998   0.1443377   0.9680820  )
       183           N   tau( 183) = (   0.6249998   0.3608440   0.1531425  )
       184           N   tau( 184) = (   0.6249998   0.3608440   0.5606123  )
       185           N   tau( 185) = (   0.6249998   0.3608440   0.9680820  )
       186           N   tau( 186) = (   0.4999998   0.5773504   0.1531425  )
       187           N   tau( 187) = (   0.4999998   0.5773504   0.5606123  )
       188           N   tau( 188) = (   0.4999998   0.5773504   0.9680820  )
       189           N   tau( 189) = (   0.3749998   0.7938567   0.1531425  )
       190           N   tau( 190) = (   0.3749998   0.7938567   0.5606123  )
       191           N   tau( 191) = (   0.3749998   0.7938567   0.9680820  )

   Crystallographic axes

     site n.     atom                  positions (cryst. coord.)
         1           Ga  tau(   1) = (  0.1666667  0.0833333  0.4997208  )
         2           Ga  tau(   2) = (  0.1666667  0.0833333  0.8330541  )
         3           Ga  tau(   3) = (  0.1666667  0.3333333  0.1663874  )
         4           Ga  tau(   4) = (  0.1666667  0.3333333  0.4997208  )
         5           Ga  tau(   5) = (  0.1666667  0.3333333  0.8330541  )
         6           Ga  tau(   6) = (  0.1666667  0.5833333  0.1663874  )
         7           Ga  tau(   7) = (  0.1666667  0.5833333  0.4997208  )
         8           Ga  tau(   8) = (  0.1666667  0.5833333  0.8330541  )
         9           Ga  tau(   9) = (  0.1666667  0.8333333  0.1663874  )
        10           Ga  tau(  10) = (  0.1666667  0.8333333  0.4997208  )
        11           Ga  tau(  11) = (  0.1666667  0.8333333  0.8330541  )
        12           Ga  tau(  12) = (  0.4166667  0.0833333  0.1663874  )
        13           Ga  tau(  13) = (  0.4166667  0.0833333  0.4997208  )
        14           Ga  tau(  14) = (  0.4166667  0.0833333  0.8330541  )
        15           Ga  tau(  15) = (  0.4166667  0.3333333  0.1663874  )
        16           Ga  tau(  16) = (  0.4166667  0.3333333  0.4997208  )
        17           Ga  tau(  17) = (  0.4166667  0.3333333  0.8330541  )
        18           Ga  tau(  18) = (  0.4166667  0.5833333  0.1663874  )
        19           Ga  tau(  19) = (  0.4166667  0.5833333  0.4997208  )
        20           Ga  tau(  20) = (  0.4166667  0.5833333  0.8330541  )
        21           Ga  tau(  21) = (  0.4166667  0.8333333  0.1663874  )
        22           Ga  tau(  22) = (  0.4166667  0.8333333  0.4997208  )
        23           Ga  tau(  23) = (  0.4166667  0.8333333  0.8330541  )
        24           Ga  tau(  24) = (  0.6666667  0.0833333  0.1663874  )
        25           Ga  tau(  25) = (  0.6666667  0.0833333  0.4997208  )
        26           Ga  tau(  26) = (  0.6666667  0.0833333  0.8330541  )
        27           Ga  tau(  27) = (  0.6666667  0.3333333  0.1663874  )
        28           Ga  tau(  28) = (  0.6666667  0.3333333  0.4997208  )
        29           Ga  tau(  29) = (  0.6666667  0.3333333  0.8330541  )
        30           Ga  tau(  30) = (  0.6666667  0.5833333  0.1663874  )
        31           Ga  tau(  31) = (  0.6666667  0.5833333  0.4997208  )
        32           Ga  tau(  32) = (  0.6666667  0.5833333  0.8330541  )
        33           Ga  tau(  33) = (  0.6666667  0.8333333  0.1663874  )
        34           Ga  tau(  34) = (  0.6666667  0.8333333  0.4997208  )
        35           Ga  tau(  35) = (  0.6666667  0.8333333  0.8330541  )
        36           Ga  tau(  36) = (  0.9166667  0.0833333  0.1663874  )
        37           Ga  tau(  37) = (  0.9166667  0.0833333  0.4997208  )
        38           Ga  tau(  38) = (  0.9166667  0.0833333  0.8330541  )
        39           Ga  tau(  39) = (  0.9166667  0.3333333  0.1663874  )
        40           Ga  tau(  40) = (  0.9166667  0.3333333  0.4997208  )
        41           Ga  tau(  41) = (  0.9166667  0.3333333  0.8330541  )
        42           Ga  tau(  42) = (  0.9166667  0.5833333  0.1663874  )
        43           Ga  tau(  43) = (  0.9166667  0.5833333  0.4997208  )
        44           Ga  tau(  44) = (  0.9166667  0.5833333  0.8330541  )
        45           Ga  tau(  45) = (  0.9166667  0.8333333  0.1663874  )
        46           Ga  tau(  46) = (  0.9166667  0.8333333  0.4997208  )
        47           Ga  tau(  47) = (  0.9166667  0.8333333  0.8330541  )
        48           Ga  tau(  48) = (  0.0833333  0.1666668  0.3330541  )
        49           Ga  tau(  49) = (  0.0833333  0.1666668  0.6663874  )
        50           Ga  tau(  50) = (  0.0833333  0.1666668  0.9997208  )
        51           Ga  tau(  51) = (  0.0833333  0.4166668  0.3330541  )
        52           Ga  tau(  52) = (  0.0833333  0.4166668  0.6663874  )
        53           Ga  tau(  53) = (  0.0833333  0.4166668  0.9997208  )
        54           Ga  tau(  54) = (  0.0833333  0.6666668  0.3330541  )
        55           Ga  tau(  55) = (  0.0833333  0.6666668  0.6663874  )
        56           Ga  tau(  56) = (  0.0833333  0.6666668  0.9997208  )
        57           Ga  tau(  57) = (  0.0833333  0.9166668  0.3330541  )
        58           Ga  tau(  58) = (  0.0833333  0.9166668  0.6663874  )
        59           Ga  tau(  59) = (  0.0833333  0.9166668  0.9997208  )
        60           Ga  tau(  60) = (  0.3333332  0.1666668  0.3330541  )
        61           Ga  tau(  61) = (  0.3333332  0.1666668  0.6663874  )
        62           Ga  tau(  62) = (  0.3333332  0.1666668  0.9997208  )
        63           Ga  tau(  63) = (  0.3333332  0.4166668  0.3330541  )
        64           Ga  tau(  64) = (  0.3333332  0.4166668  0.6663874  )
        65           Ga  tau(  65) = (  0.3333332  0.4166668  0.9997208  )
        66           Ga  tau(  66) = (  0.3333332  0.6666668  0.3330541  )
        67           Ga  tau(  67) = (  0.3333332  0.6666668  0.6663874  )
        68           Ga  tau(  68) = (  0.3333332  0.6666668  0.9997208  )
        69           Ga  tau(  69) = (  0.3333332  0.9166668  0.3330541  )
        70           Ga  tau(  70) = (  0.3333332  0.9166668  0.6663874  )
        71           Ga  tau(  71) = (  0.3333332  0.9166668  0.9997208  )
        72           Ga  tau(  72) = (  0.5833332  0.1666668  0.3330541  )
        73           Ga  tau(  73) = (  0.5833332  0.1666668  0.6663874  )
        74           Ga  tau(  74) = (  0.5833332  0.1666668  0.9997208  )
        75           Ga  tau(  75) = (  0.5833332  0.4166668  0.3330541  )
        76           Ga  tau(  76) = (  0.5833332  0.4166668  0.6663874  )
        77           Ga  tau(  77) = (  0.5833332  0.4166668  0.9997208  )
        78           Ga  tau(  78) = (  0.5833332  0.6666668  0.3330541  )
        79           Ga  tau(  79) = (  0.5833332  0.6666668  0.6663874  )
        80           Ga  tau(  80) = (  0.5833332  0.6666668  0.9997208  )
        81           Ga  tau(  81) = (  0.5833332  0.9166668  0.3330541  )
        82           Ga  tau(  82) = (  0.5833332  0.9166668  0.6663874  )
        83           Ga  tau(  83) = (  0.5833332  0.9166668  0.9997208  )
        84           Ga  tau(  84) = (  0.8333332  0.1666668  0.3330541  )
        85           Ga  tau(  85) = (  0.8333332  0.1666668  0.6663874  )
        86           Ga  tau(  86) = (  0.8333332  0.1666668  0.9997208  )
        87           Ga  tau(  87) = (  0.8333332  0.4166668  0.3330541  )
        88           Ga  tau(  88) = (  0.8333332  0.4166668  0.6663874  )
        89           Ga  tau(  89) = (  0.8333332  0.4166668  0.9997208  )
        90           Ga  tau(  90) = (  0.8333332  0.6666668  0.3330541  )
        91           Ga  tau(  91) = (  0.8333332  0.6666668  0.6663874  )
        92           Ga  tau(  92) = (  0.8333332  0.6666668  0.9997208  )
        93           Ga  tau(  93) = (  0.8333332  0.9166668  0.3330541  )
        94           Ga  tau(  94) = (  0.8333332  0.9166668  0.6663874  )
        95           Ga  tau(  95) = (  0.8333332  0.9166668  0.9997208  )
        96           N   tau(  96) = (  0.1666667  0.0833333  0.2919459  )
        97           N   tau(  97) = (  0.1666667  0.0833333  0.6252792  )
        98           N   tau(  98) = (  0.1666667  0.0833333  0.9586126  )
        99           N   tau(  99) = (  0.1666667  0.3333333  0.2919459  )
       100           N   tau( 100) = (  0.1666667  0.3333333  0.6252792  )
       101           N   tau( 101) = (  0.1666667  0.3333333  0.9586126  )
       102           N   tau( 102) = (  0.1666667  0.5833333  0.2919459  )
       103           N   tau( 103) = (  0.1666667  0.5833333  0.6252792  )
       104           N   tau( 104) = (  0.1666667  0.5833333  0.9586126  )
       105           N   tau( 105) = (  0.1666667  0.8333333  0.2919459  )
       106           N   tau( 106) = (  0.1666667  0.8333333  0.6252792  )
       107           N   tau( 107) = (  0.1666667  0.8333333  0.9586126  )
       108           N   tau( 108) = (  0.4166667  0.0833333  0.2919459  )
       109           N   tau( 109) = (  0.4166667  0.0833333  0.6252792  )
       110           N   tau( 110) = (  0.4166667  0.0833333  0.9586126  )
       111           N   tau( 111) = (  0.4166667  0.3333333  0.2919459  )
       112           N   tau( 112) = (  0.4166667  0.3333333  0.6252792  )
       113           N   tau( 113) = (  0.4166667  0.3333333  0.9586126  )
       114           N   tau( 114) = (  0.4166667  0.5833333  0.2919459  )
       115           N   tau( 115) = (  0.4166667  0.5833333  0.6252792  )
       116           N   tau( 116) = (  0.4166667  0.5833333  0.9586126  )
       117           N   tau( 117) = (  0.4166667  0.8333333  0.2919459  )
       118           N   tau( 118) = (  0.4166667  0.8333333  0.6252792  )
       119           N   tau( 119) = (  0.4166667  0.8333333  0.9586126  )
       120           N   tau( 120) = (  0.6666667  0.0833333  0.2919459  )
       121           N   tau( 121) = (  0.6666667  0.0833333  0.6252792  )
       122           N   tau( 122) = (  0.6666667  0.0833333  0.9586126  )
       123           N   tau( 123) = (  0.6666667  0.3333333  0.2919459  )
       124           N   tau( 124) = (  0.6666667  0.3333333  0.6252792  )
       125           N   tau( 125) = (  0.6666667  0.3333333  0.9586126  )
       126           N   tau( 126) = (  0.6666667  0.5833333  0.2919459  )
       127           N   tau( 127) = (  0.6666667  0.5833333  0.6252792  )
       128           N   tau( 128) = (  0.6666667  0.5833333  0.9586126  )
       129           N   tau( 129) = (  0.6666667  0.8333333  0.2919459  )
       130           N   tau( 130) = (  0.6666667  0.8333333  0.6252792  )
       131           N   tau( 131) = (  0.6666667  0.8333333  0.9586126  )
       132           N   tau( 132) = (  0.9166667  0.0833333  0.2919459  )
       133           N   tau( 133) = (  0.9166667  0.0833333  0.6252792  )
       134           N   tau( 134) = (  0.9166667  0.0833333  0.9586126  )
       135           N   tau( 135) = (  0.9166667  0.3333333  0.2919459  )
       136           N   tau( 136) = (  0.9166667  0.3333333  0.6252792  )
       137           N   tau( 137) = (  0.9166667  0.3333333  0.9586126  )
       138           N   tau( 138) = (  0.9166667  0.5833333  0.2919459  )
       139           N   tau( 139) = (  0.9166667  0.5833333  0.6252792  )
       140           N   tau( 140) = (  0.9166667  0.5833333  0.9586126  )
       141           N   tau( 141) = (  0.9166667  0.8333333  0.2919459  )
       142           N   tau( 142) = (  0.9166667  0.8333333  0.6252792  )
       143           N   tau( 143) = (  0.9166667  0.8333333  0.9586126  )
       144           N   tau( 144) = (  0.0833333  0.1666668  0.1252792  )
       145           N   tau( 145) = (  0.0833333  0.1666668  0.4586126  )
       146           N   tau( 146) = (  0.0833333  0.1666668  0.7919459  )
       147           N   tau( 147) = (  0.0833333  0.4166668  0.1252792  )
       148           N   tau( 148) = (  0.0833333  0.4166668  0.4586126  )
       149           N   tau( 149) = (  0.0833333  0.4166668  0.7919459  )
       150           N   tau( 150) = (  0.0833333  0.6666668  0.1252792  )
       151           N   tau( 151) = (  0.0833333  0.6666668  0.4586126  )
       152           N   tau( 152) = (  0.0833333  0.6666668  0.7919459  )
       153           N   tau( 153) = (  0.0833333  0.9166668  0.1252792  )
       154           N   tau( 154) = (  0.0833333  0.9166668  0.4586126  )
       155           N   tau( 155) = (  0.0833333  0.9166668  0.7919459  )
       156           N   tau( 156) = (  0.3333332  0.1666668  0.1252792  )
       157           N   tau( 157) = (  0.3333332  0.1666668  0.4586126  )
       158           N   tau( 158) = (  0.3333332  0.1666668  0.7919459  )
       159           N   tau( 159) = (  0.3333332  0.4166668  0.1252792  )
       160           N   tau( 160) = (  0.3333332  0.4166668  0.4586126  )
       161           N   tau( 161) = (  0.3333332  0.4166668  0.7919459  )
       162           N   tau( 162) = (  0.3333332  0.6666668  0.1252792  )
       163           N   tau( 163) = (  0.3333332  0.6666668  0.4586126  )
       164           N   tau( 164) = (  0.3333332  0.6666668  0.7919459  )
       165           N   tau( 165) = (  0.3333332  0.9166668  0.1252792  )
       166           N   tau( 166) = (  0.3333332  0.9166668  0.4586126  )
       167           N   tau( 167) = (  0.3333332  0.9166668  0.7919459  )
       168           N   tau( 168) = (  0.5833332  0.1666668  0.1252792  )
       169           N   tau( 169) = (  0.5833332  0.1666668  0.4586126  )
       170           N   tau( 170) = (  0.5833332  0.1666668  0.7919459  )
       171           N   tau( 171) = (  0.5833332  0.4166668  0.1252792  )
       172           N   tau( 172) = (  0.5833332  0.4166668  0.4586126  )
       173           N   tau( 173) = (  0.5833332  0.4166668  0.7919459  )
       174           N   tau( 174) = (  0.5833332  0.6666668  0.1252792  )
       175           N   tau( 175) = (  0.5833332  0.6666668  0.4586126  )
       176           N   tau( 176) = (  0.5833332  0.6666668  0.7919459  )
       177           N   tau( 177) = (  0.5833332  0.9166668  0.1252792  )
       178           N   tau( 178) = (  0.5833332  0.9166668  0.4586126  )
       179           N   tau( 179) = (  0.5833332  0.9166668  0.7919459  )
       180           N   tau( 180) = (  0.8333332  0.1666668  0.1252792  )
       181           N   tau( 181) = (  0.8333332  0.1666668  0.4586126  )
       182           N   tau( 182) = (  0.8333332  0.1666668  0.7919459  )
       183           N   tau( 183) = (  0.8333332  0.4166668  0.1252792  )
       184           N   tau( 184) = (  0.8333332  0.4166668  0.4586126  )
       185           N   tau( 185) = (  0.8333332  0.4166668  0.7919459  )
       186           N   tau( 186) = (  0.8333332  0.6666668  0.1252792  )
       187           N   tau( 187) = (  0.8333332  0.6666668  0.4586126  )
       188           N   tau( 188) = (  0.8333332  0.6666668  0.7919459  )
       189           N   tau( 189) = (  0.8333332  0.9166668  0.1252792  )
       190           N   tau( 190) = (  0.8333332  0.9166668  0.4586126  )
       191           N   tau( 191) = (  0.8333332  0.9166668  0.7919459  )

     number of k points=     4  Gaussian smearing, width (Ry)=  0.0100
                       cart. coord. in units 2pi/alat
        k(    1) = (   0.0000000   0.0000000   0.0000000), wk =   0.2500000
        k(    2) = (   0.0000000   0.0000000  -0.4090283), wk =   0.2500000
        k(    3) = (   0.0000000  -0.5773503   0.0000000), wk =   0.7500000
        k(    4) = (   0.0000000  -0.5773503  -0.4090283), wk =   0.7500000

                       cryst. coord.
        k(    1) = (   0.0000000   0.0000000   0.0000000), wk =   0.2500000
        k(    2) = (   0.0000000   0.0000000  -0.5000000), wk =   0.2500000
        k(    3) = (   0.0000000  -0.5000000   0.0000000), wk =   0.7500000
        k(    4) = (   0.0000000  -0.5000000  -0.5000000), wk =   0.7500000

     Dense  grid:  1726709 G-vectors     FFT dimensions: ( 160, 160, 180)

     Smooth grid:  1235535 G-vectors     FFT dimensions: ( 144, 144, 160)

     Dynamical RAM for                 wfc:      37.96 MB

     Dynamical RAM for     wfc (w. buffer):      37.96 MB

     Dynamical RAM for           str. fact:       0.82 MB

     Dynamical RAM for           local pot:       0.00 MB

     Dynamical RAM for          nlocal pot:      91.24 MB

     Dynamical RAM for                qrad:       3.00 MB

     Dynamical RAM for          rho,v,vnew:       2.99 MB

     Dynamical RAM for               rhoin:       1.00 MB

     Dynamical RAM for            rho*nmix:       6.59 MB

     Dynamical RAM for           G-vectors:       1.69 MB

     Dynamical RAM for          h,s,v(r/c):     778.54 MB

     Dynamical RAM for          <psi|beta>:      38.98 MB

     Dynamical RAM for                 psi:     151.84 MB

     Dynamical RAM for                hpsi:     151.84 MB

     Dynamical RAM for                spsi:     151.84 MB

     Dynamical RAM for      wfcinit/wfcrot:     100.26 MB

     Dynamical RAM for           addusdens:      29.33 MB

     Dynamical RAM for          addusforce:      49.16 MB

     Dynamical RAM for         addusstress:      20.84 MB

     Estimated static dynamical RAM per process >     142.87 MB

     Estimated max dynamical RAM per process >       1.39 GB

     Estimated total dynamical RAM >     354.39 GB

     Atomic positions and unit cell read from directory:
     ./GaN.save/
     Message from routine qexsd_readschema :
     xml data file ./GaN.save/data-file-schema.xml not found
     Nothing found: using input atomic positions and unit cell


     Check: negative core charge=   -0.000003
     Cannot read rho : file not found

     Initial potential from superposition of free atoms

     starting charge    1714.7187, renormalised to    1717.0000


     %%%%%%%%%%%%%%%%%%%%%%%%%%%%%%%%%%%%%%%%%%%%%%%%%%%%%%%%%%%%%%%%%%%%%%%%
     %                                                                      %
     % You are using vdW-DF, which was implemented by the Thonhauser group. %
     % Please cite the following two papers that made this development      %
     % possible and the two reviews that describe the various versions:     %
     %                                                                      %
     %   T. Thonhauser et al., PRL 115, 136402 (2015).                      %
     %   T. Thonhauser et al., PRB 76, 125112 (2007).                       %
     %   K. Berland et al., Rep. Prog. Phys. 78, 066501 (2015).             %
     %   D.C. Langreth et al., J. Phys.: Condens. Matter 21, 084203 (2009). %
     %                                                                      %
     % If you are calculating stress with vdW-DF, please also cite:         %
     %                                                                      %
     %   R. Sabatini et al., J. Phys.: Condens. Matter 24, 424209 (2012).   %
     %                                                                      %
     %%%%%%%%%%%%%%%%%%%%%%%%%%%%%%%%%%%%%%%%%%%%%%%%%%%%%%%%%%%%%%%%%%%%%%%%

     %%%%%%%%%%%%%%%%%%%%%%%%%%%%%%%%%%%%%%%%%%%%%%%%%%%%%%%%%%%%%%%%%%%%%%%%
     %                                                                      %
     %  vdW-DF NEWS:                                                        %
     %                                                                      %
     %  * vdW-DF3 is now available. DOI: 10.1021/acs.jctc.0c00471           %
     %    use with input_dft = 'vdW-DF3-opt1' or 'vdW-DF3-opt2'             %
     %                                                                      %
     %  * Unscreened and range-separated vdW-DF hybrid functionals          %
     %    DOI: 10.1063/1.4986522 and 10.1088/1361-648X/ac2ad2               %
     %    use with input_dft = 'vdW-DF-cx0' (etc) and 'vdW-DF-ahcx'         %
     %                                                                      %
     %%%%%%%%%%%%%%%%%%%%%%%%%%%%%%%%%%%%%%%%%%%%%%%%%%%%%%%%%%%%%%%%%%%%%%%%


     Carrying out vdW-DF run using the following parameters:
     Nqs    =  20  Npoints =  1024  r_max =  100.000
     q_mesh =  0.00001000  0.04494208  0.09755937  0.15916263
               0.23128650  0.31572767  0.41458969  0.53033537
               0.66584808  0.82450364  1.01025438  1.22772762
               1.48234092  1.78043706  2.12944203  2.53805004
               3.01644009  3.57652955  4.23227104  5.00000000


     -----------------------------------------------
     Non-local corr. energy    =      49.28971341 Ry
     -----------------------------------------------

     Message from routine qexsd_readschema :
     xml data file ./GaN.save/data-file-schema.xml not found
     Cannot read wfcs: file not found
     Starting wfcs are 1239 randomized atomic wfcs
     Checking if some PAW data can be deallocated... 
       PAW data deallocated on   96 nodes for type:  1
       PAW data deallocated on  160 nodes for type:  2

     total cpu time spent up to now is       41.4 secs

     Self-consistent Calculation

     iteration #  1     ecut=    70.00 Ry     beta= 0.70
     Davidson diagonalization with overlap

---- Real-time Memory Report at c_bands before calling an iterative solver
           545 MiB given to the printing process from OS
             0 MiB allocation reported by mallinfo(arena+hblkhd)
       1973945 MiB available memory on the node where the printing process lives
------------------
     c_bands:  1 eigenvalues not converged
     ethr =  1.00E-05,  avg # of iterations = 19.0


     -----------------------------------------------
     Non-local corr. energy    =      51.65964398 Ry
     -----------------------------------------------


     total cpu time spent up to now is      398.9 secs

     total energy              =  -29666.65817457 Ry
     estimated scf accuracy    <      58.74760598 Ry

     iteration #  2     ecut=    70.00 Ry     beta= 0.70
     Davidson diagonalization with overlap

---- Real-time Memory Report at c_bands before calling an iterative solver
          1528 MiB given to the printing process from OS
             0 MiB allocation reported by mallinfo(arena+hblkhd)
       1975108 MiB available memory on the node where the printing process lives
------------------
     ethr =  3.42E-03,  avg # of iterations =  6.5


     -----------------------------------------------
     Non-local corr. energy    =      51.04849641 Ry
     -----------------------------------------------


     total cpu time spent up to now is      558.5 secs

     total energy              =  -29671.70603811 Ry
     estimated scf accuracy    <      96.55275445 Ry

     iteration #  3     ecut=    70.00 Ry     beta= 0.70
     Davidson diagonalization with overlap

---- Real-time Memory Report at c_bands before calling an iterative solver
          1528 MiB given to the printing process from OS
             0 MiB allocation reported by mallinfo(arena+hblkhd)
       1966679 MiB available memory on the node where the printing process lives
------------------
     ethr =  3.42E-03,  avg # of iterations =  6.8


     -----------------------------------------------
     Non-local corr. energy    =      51.01064365 Ry
     -----------------------------------------------


     total cpu time spent up to now is      762.7 secs

     total energy              =  -29665.21183890 Ry
     estimated scf accuracy    <     370.19527659 Ry

     iteration #  4     ecut=    70.00 Ry     beta= 0.70
     Davidson diagonalization with overlap

---- Real-time Memory Report at c_bands before calling an iterative solver
          1528 MiB given to the printing process from OS
             0 MiB allocation reported by mallinfo(arena+hblkhd)
       1966599 MiB available memory on the node where the printing process lives
------------------
     ethr =  3.42E-03,  avg # of iterations =  7.3


     -----------------------------------------------
     Non-local corr. energy    =      51.14152070 Ry
     -----------------------------------------------


     total cpu time spent up to now is      915.8 secs

     total energy              =  -29693.78610706 Ry
     estimated scf accuracy    <       7.07696833 Ry

     iteration #  5     ecut=    70.00 Ry     beta= 0.70
     Davidson diagonalization with overlap

---- Real-time Memory Report at c_bands before calling an iterative solver
          1528 MiB given to the printing process from OS
             0 MiB allocation reported by mallinfo(arena+hblkhd)
       1966498 MiB available memory on the node where the printing process lives
------------------
     ethr =  4.12E-04,  avg # of iterations = 11.3


     -----------------------------------------------
     Non-local corr. energy    =      51.60307237 Ry
     -----------------------------------------------


     total cpu time spent up to now is     1120.4 secs

     total energy              =  -29694.48096667 Ry
     estimated scf accuracy    <       0.54286003 Ry

     iteration #  6     ecut=    70.00 Ry     beta= 0.70
     Davidson diagonalization with overlap

---- Real-time Memory Report at c_bands before calling an iterative solver
          1528 MiB given to the printing process from OS
             0 MiB allocation reported by mallinfo(arena+hblkhd)
       1966398 MiB available memory on the node where the printing process lives
------------------
     ethr =  3.16E-05,  avg # of iterations = 13.0


     -----------------------------------------------
     Non-local corr. energy    =      51.84430445 Ry
     -----------------------------------------------


     total cpu time spent up to now is     1404.2 secs

     total energy              =  -29694.33273239 Ry
     estimated scf accuracy    <       1.27430443 Ry

     iteration #  7     ecut=    70.00 Ry     beta= 0.70
     Davidson diagonalization with overlap

---- Real-time Memory Report at c_bands before calling an iterative solver
          1528 MiB given to the printing process from OS
             0 MiB allocation reported by mallinfo(arena+hblkhd)
       1966308 MiB available memory on the node where the printing process lives
------------------
     ethr =  3.16E-05,  avg # of iterations = 12.0


     -----------------------------------------------
     Non-local corr. energy    =      51.92911449 Ry
     -----------------------------------------------


     total cpu time spent up to now is     1650.3 secs

     total energy              =  -29694.52722047 Ry
     estimated scf accuracy    <       0.58016917 Ry

     iteration #  8     ecut=    70.00 Ry     beta= 0.70
     Davidson diagonalization with overlap

---- Real-time Memory Report at c_bands before calling an iterative solver
          1528 MiB given to the printing process from OS
             0 MiB allocation reported by mallinfo(arena+hblkhd)
       1966203 MiB available memory on the node where the printing process lives
------------------
     ethr =  3.16E-05,  avg # of iterations = 15.0


     -----------------------------------------------
     Non-local corr. energy    =      51.86361395 Ry
     -----------------------------------------------


     total cpu time spent up to now is     1916.5 secs

     total energy              =  -29694.58423598 Ry
     estimated scf accuracy    <       0.10493237 Ry

     iteration #  9     ecut=    70.00 Ry     beta= 0.70
     Davidson diagonalization with overlap

---- Real-time Memory Report at c_bands before calling an iterative solver
          1528 MiB given to the printing process from OS
             0 MiB allocation reported by mallinfo(arena+hblkhd)
       1963411 MiB available memory on the node where the printing process lives
------------------
     ethr =  6.11E-06,  avg # of iterations = 14.3


     -----------------------------------------------
     Non-local corr. energy    =      51.85413479 Ry
     -----------------------------------------------


     total cpu time spent up to now is     2172.7 secs

     total energy              =  -29694.59913496 Ry
     estimated scf accuracy    <       0.03724275 Ry

     iteration # 10     ecut=    70.00 Ry     beta= 0.70
     Davidson diagonalization with overlap

---- Real-time Memory Report at c_bands before calling an iterative solver
          1528 MiB given to the printing process from OS
             0 MiB allocation reported by mallinfo(arena+hblkhd)
       1965782 MiB available memory on the node where the printing process lives
------------------
     ethr =  2.17E-06,  avg # of iterations = 16.5


     -----------------------------------------------
     Non-local corr. energy    =      51.84676591 Ry
     -----------------------------------------------


     total cpu time spent up to now is     2410.3 secs

     total energy              =  -29694.59907050 Ry
     estimated scf accuracy    <       0.01165248 Ry

     iteration # 11     ecut=    70.00 Ry     beta= 0.70
     Davidson diagonalization with overlap

---- Real-time Memory Report at c_bands before calling an iterative solver
          1528 MiB given to the printing process from OS
             0 MiB allocation reported by mallinfo(arena+hblkhd)
       1965780 MiB available memory on the node where the printing process lives
------------------
     ethr =  6.79E-07,  avg # of iterations = 12.5


     -----------------------------------------------
     Non-local corr. energy    =      51.85418096 Ry
     -----------------------------------------------


     total cpu time spent up to now is     2639.0 secs

     total energy              =  -29694.60050448 Ry
     estimated scf accuracy    <       0.00591732 Ry

     iteration # 12     ecut=    70.00 Ry     beta= 0.70
     Davidson diagonalization with overlap

---- Real-time Memory Report at c_bands before calling an iterative solver
          1528 MiB given to the printing process from OS
             0 MiB allocation reported by mallinfo(arena+hblkhd)
       1965780 MiB available memory on the node where the printing process lives
------------------
     ethr =  3.45E-07,  avg # of iterations = 14.8


     -----------------------------------------------
     Non-local corr. energy    =      51.86224420 Ry
     -----------------------------------------------


     total cpu time spent up to now is     2868.8 secs

     total energy              =  -29694.60115117 Ry
     estimated scf accuracy    <       0.00041726 Ry

     iteration # 13     ecut=    70.00 Ry     beta= 0.70
     Davidson diagonalization with overlap

---- Real-time Memory Report at c_bands before calling an iterative solver
          1528 MiB given to the printing process from OS
             0 MiB allocation reported by mallinfo(arena+hblkhd)
       1965780 MiB available memory on the node where the printing process lives
------------------
     c_bands:  2 eigenvalues not converged
     ethr =  2.43E-08,  avg # of iterations = 24.8


     -----------------------------------------------
     Non-local corr. energy    =      51.86396469 Ry
     -----------------------------------------------


     total cpu time spent up to now is     3331.7 secs

     total energy              =  -29694.60178123 Ry
     estimated scf accuracy    <       0.00075556 Ry

     iteration # 14     ecut=    70.00 Ry     beta= 0.70
     Davidson diagonalization with overlap

---- Real-time Memory Report at c_bands before calling an iterative solver
          1528 MiB given to the printing process from OS
             0 MiB allocation reported by mallinfo(arena+hblkhd)
       1963277 MiB available memory on the node where the printing process lives
------------------
     ethr =  2.43E-08,  avg # of iterations = 14.0


     -----------------------------------------------
     Non-local corr. energy    =      51.86774410 Ry
     -----------------------------------------------


     total cpu time spent up to now is     3561.4 secs

     total energy              =  -29694.60182726 Ry
     estimated scf accuracy    <       0.00008168 Ry

     iteration # 15     ecut=    70.00 Ry     beta= 0.70
     Davidson diagonalization with overlap

---- Real-time Memory Report at c_bands before calling an iterative solver
          1528 MiB given to the printing process from OS
             0 MiB allocation reported by mallinfo(arena+hblkhd)
       1962204 MiB available memory on the node where the printing process lives
------------------
     ethr =  4.76E-09,  avg # of iterations = 13.0


     -----------------------------------------------
     Non-local corr. energy    =      51.86791874 Ry
     -----------------------------------------------


     total cpu time spent up to now is     3817.5 secs

     total energy              =  -29694.60183111 Ry
     estimated scf accuracy    <       0.00002759 Ry

     iteration # 16     ecut=    70.00 Ry     beta= 0.70
     Davidson diagonalization with overlap

---- Real-time Memory Report at c_bands before calling an iterative solver
          1528 MiB given to the printing process from OS
             0 MiB allocation reported by mallinfo(arena+hblkhd)
       1962200 MiB available memory on the node where the printing process lives
------------------
     ethr =  1.61E-09,  avg # of iterations = 13.8


     -----------------------------------------------
     Non-local corr. energy    =      51.86701293 Ry
     -----------------------------------------------


     total cpu time spent up to now is     4182.3 secs

     total energy              =  -29694.60183485 Ry
     estimated scf accuracy    <       0.00005333 Ry

     iteration # 17     ecut=    70.00 Ry     beta= 0.70
     Davidson diagonalization with overlap

---- Real-time Memory Report at c_bands before calling an iterative solver
          1528 MiB given to the printing process from OS
             0 MiB allocation reported by mallinfo(arena+hblkhd)
       1962535 MiB available memory on the node where the printing process lives
------------------
     ethr =  1.61E-09,  avg # of iterations = 12.8


     -----------------------------------------------
     Non-local corr. energy    =      51.86631021 Ry
     -----------------------------------------------


     total cpu time spent up to now is     4370.9 secs

     total energy              =  -29694.60183771 Ry
     estimated scf accuracy    <       0.00000389 Ry

     iteration # 18     ecut=    70.00 Ry     beta= 0.70
     Davidson diagonalization with overlap

---- Real-time Memory Report at c_bands before calling an iterative solver
          1528 MiB given to the printing process from OS
             0 MiB allocation reported by mallinfo(arena+hblkhd)
       1961987 MiB available memory on the node where the printing process lives
------------------
     ethr =  2.26E-10,  avg # of iterations = 12.0


     -----------------------------------------------
     Non-local corr. energy    =      51.86618081 Ry
     -----------------------------------------------


     total cpu time spent up to now is     4648.8 secs

     total energy              =  -29694.60183835 Ry
     estimated scf accuracy    <       0.00000054 Ry

     iteration # 19     ecut=    70.00 Ry     beta= 0.70
     Davidson diagonalization with overlap

---- Real-time Memory Report at c_bands before calling an iterative solver
          1528 MiB given to the printing process from OS
             0 MiB allocation reported by mallinfo(arena+hblkhd)
       1961991 MiB available memory on the node where the printing process lives
------------------
     ethr =  3.13E-11,  avg # of iterations =  9.5


     -----------------------------------------------
     Non-local corr. energy    =      51.86620787 Ry
     -----------------------------------------------


     total cpu time spent up to now is     4941.8 secs

     total energy              =  -29694.60183858 Ry
     estimated scf accuracy    <       0.00000012 Ry

     iteration # 20     ecut=    70.00 Ry     beta= 0.70
     Davidson diagonalization with overlap

---- Real-time Memory Report at c_bands before calling an iterative solver
          1528 MiB given to the printing process from OS
             0 MiB allocation reported by mallinfo(arena+hblkhd)
       1963269 MiB available memory on the node where the printing process lives
------------------
     c_bands:  1 eigenvalues not converged
     ethr =  6.96E-12,  avg # of iterations = 16.5


     -----------------------------------------------
     Non-local corr. energy    =      51.86625667 Ry
     -----------------------------------------------


     total cpu time spent up to now is     5326.4 secs

     total energy              =  -29694.60183860 Ry
     estimated scf accuracy    <       0.00000006 Ry

     iteration # 21     ecut=    70.00 Ry     beta= 0.70
     Davidson diagonalization with overlap

---- Real-time Memory Report at c_bands before calling an iterative solver
          1528 MiB given to the printing process from OS
             0 MiB allocation reported by mallinfo(arena+hblkhd)
       1962177 MiB available memory on the node where the printing process lives
------------------
     c_bands:  1 eigenvalues not converged
     ethr =  3.67E-12,  avg # of iterations = 16.5


     -----------------------------------------------
     Non-local corr. energy    =      51.86624983 Ry
     -----------------------------------------------


     total cpu time spent up to now is     5690.5 secs

     total energy              =  -29694.60183861 Ry
     estimated scf accuracy    <          7.6E-09 Ry

     iteration # 22     ecut=    70.00 Ry     beta= 0.70
     Davidson diagonalization with overlap

---- Real-time Memory Report at c_bands before calling an iterative solver
          1528 MiB given to the printing process from OS
             0 MiB allocation reported by mallinfo(arena+hblkhd)
       1962175 MiB available memory on the node where the printing process lives
------------------
     c_bands:  1 eigenvalues not converged
     ethr =  4.42E-13,  avg # of iterations = 16.5


     -----------------------------------------------
     Non-local corr. energy    =      51.86625500 Ry
     -----------------------------------------------


     total cpu time spent up to now is     6144.5 secs

     total energy              =  -29694.60183861 Ry
     estimated scf accuracy    <          4.9E-09 Ry

     iteration # 23     ecut=    70.00 Ry     beta= 0.70
     Davidson diagonalization with overlap

---- Real-time Memory Report at c_bands before calling an iterative solver
          1528 MiB given to the printing process from OS
             0 MiB allocation reported by mallinfo(arena+hblkhd)
       1961976 MiB available memory on the node where the printing process lives
------------------
     c_bands:  1 eigenvalues not converged
     ethr =  2.83E-13,  avg # of iterations = 16.8


     -----------------------------------------------
     Non-local corr. energy    =      51.86625537 Ry
     -----------------------------------------------


     total cpu time spent up to now is     6515.0 secs

     End of self-consistent calculation

          k = 0.0000 0.0000 0.0000 (154543 PWs)   bands (ev):

    -7.1076  -6.8799  -6.8500  -6.8363  -6.8363  -6.8112  -6.8064  -6.8064
    -6.7842  -6.7363  -6.7248  -6.7233  -6.7233  -6.7200  -6.7200  -6.7110
    -6.7040  -6.7040  -6.6949  -6.6949  -6.6925  -6.6852  -6.6852  -6.6850
    -6.6759  -6.6759  -6.6720  -6.6634  -6.6633  -6.6622  -6.6497  -6.6429
    -6.6429  -6.6427  -6.6341  -6.6341  -6.6301  -6.6221  -6.6150  -6.6150
    -6.6081  -6.6048  -6.6048  -6.6042  -6.5897  -6.5852  -6.5781  -6.5781
    -6.5691  -6.5691  -6.5662  -6.5662  -6.5453  -6.5426  -6.5426  -6.5352
    -6.5164  -6.5164  -6.4917  -6.4870  -6.4870  -6.4739  -6.4651  -6.4651
    -6.4597  -6.4522  -6.4462  -6.4404  -6.4404  -6.4104  -6.4104  -6.4068
    -6.4068  -6.3698  -6.3698  -6.3608  -6.3429  -6.3382  -6.3382  -6.3276
    -6.3276  -6.3050  -6.2423  -6.2155  -6.2155  -6.1847  -6.1847  -6.1698
    -6.1574  -6.1501  -6.1501  -6.0676  -5.6161  -5.6161  -5.5832  -5.5830
    -5.5798  -5.5798  -5.5773  -5.5773  -5.5751  -5.5660  -5.5660  -5.5629
    -5.5621  -5.5619  -5.5619  -5.5576  -5.5568  -5.5568  -5.5477  -5.5477
    -5.5437  -5.5437  -5.5403  -5.5403  -5.5380  -5.5363  -5.5300  -5.5300
    -5.5281  -5.5281  -5.5265  -5.5244  -5.5243  -5.5242  -5.5210  -5.5210
    -5.5132  -5.5100  -5.5029  -5.5023  -5.5023  -5.4989  -5.4960  -5.4960
    -5.4933  -5.4933  -5.4891  -5.4890  -5.4890  -5.4849  -5.4849  -5.4848
    -5.4829  -5.4829  -5.4753  -5.4750  -5.4743  -5.4743  -5.4710  -5.4704
    -5.4704  -5.4700  -5.4653  -5.4640  -5.4628  -5.4628  -5.4582  -5.4582
    -5.4553  -5.4553  -5.4549  -5.4530  -5.4530  -5.4492  -5.4471  -5.4471
    -5.4461  -5.4461  -5.4448  -5.4440  -5.4410  -5.4409  -5.4409  -5.4385
    -5.4385  -5.4341  -5.4341  -5.4330  -5.4292  -5.4292  -5.4261  -5.4261
    -5.4255  -5.4245  -5.4245  -5.4241  -5.4178  -5.4173  -5.4173  -5.4145
    -5.4145  -5.4137  -5.4124  -5.4124  -5.4102  -5.4073  -5.4062  -5.4062
    -5.4044  -5.4031  -5.4014  -5.4014  -5.4013  -5.3990  -5.3990  -5.3974
    -5.3958  -5.3958  -5.3952  -5.3932  -5.3932  -5.3920  -5.3891  -5.3887
    -5.3887  -5.3868  -5.3868  -5.3836  -5.3803  -5.3803  -5.3782  -5.3734
    -5.3732  -5.3732  -5.3707  -5.3707  -5.3676  -5.3676  -5.3662  -5.3659
    -5.3659  -5.3631  -5.3631  -5.3629  -5.3626  -5.3612  -5.3612  -5.3565
    -5.3565  -5.3548  -5.3547  -5.3547  -5.3492  -5.3492  -5.3472  -5.3445
    -5.3445  -5.3420  -5.3418  -5.3418  -5.3405  -5.3398  -5.3398  -5.3370
    -5.3352  -5.3352  -5.3334  -5.3311  -5.3303  -5.3303  -5.3302  -5.3263
    -5.3263  -5.3256  -5.3238  -5.3214  -5.3214  -5.3194  -5.3194  -5.3193
    -5.3184  -5.3183  -5.3172  -5.3172  -5.3122  -5.3115  -5.3115  -5.3095
    -5.3093  -5.3093  -5.3078  -5.3078  -5.3029  -5.3029  -5.3010  -5.2993
    -5.2993  -5.2983  -5.2983  -5.2946  -5.2946  -5.2913  -5.2913  -5.2883
    -5.2878  -5.2863  -5.2858  -5.2858  -5.2835  -5.2835  -5.2793  -5.2793
    -5.2793  -5.2762  -5.2718  -5.2718  -5.2673  -5.2662  -5.2662  -5.2660
    -5.2649  -5.2649  -5.2604  -5.2604  -5.2601  -5.2582  -5.2576  -5.2567
    -5.2509  -5.2509  -5.2500  -5.2476  -5.2476  -5.2472  -5.2455  -5.2455
    -5.2405  -5.2405  -5.2390  -5.2390  -5.2377  -5.2377  -5.2324  -5.2324
    -5.2306  -5.2306  -5.2276  -5.2276  -5.2271  -5.2225  -5.2215  -5.2215
    -5.2187  -5.2180  -5.2180  -5.2164  -5.2093  -5.2093  -5.2088  -5.2071
    -5.2059  -5.2032  -5.2032  -5.2010  -5.2007  -5.1996  -5.1996  -5.1952
    -5.1886  -5.1886  -5.1839  -5.1839  -5.1817  -5.1813  -5.1813  -5.1773
    -5.1773  -5.1758  -5.1745  -5.1713  -5.1713  -5.1681  -5.1681  -5.1672
    -5.1672  -5.1625  -5.1625  -5.1608  -5.1568  -5.1568  -5.1521  -5.1521
    -5.1513  -5.1504  -5.1463  -5.1463  -5.1419  -5.1399  -5.1399  -5.1368
    -5.1368  -5.1356  -5.1328  -5.1326  -5.1300  -5.1300  -5.1240  -5.1240
    -5.1179  -5.1174  -5.1080  -5.1080  -5.1051  -5.1051  -5.1007  -5.0989
    -5.0984  -5.0983  -5.0913  -5.0893  -5.0842  -5.0810  -5.0810  -5.0786
    -5.0786  -5.0734  -5.0734  -5.0722  -5.0720  -5.0720  -5.0680  -5.0644
    -5.0616  -5.0616  -5.0509  -5.0509  -5.0302  -5.0086  -5.0086  -4.9613
    -4.9433  -4.9433  -4.9400  -4.9042  -4.9042  -4.8960  -4.8901  -4.8901
    -4.8727  -4.8727  -4.8426  -4.8285  -4.8127  -4.8124  -4.8124  -4.7829
    -4.7829  -4.7766  -4.7502  -4.7502  -4.7455  -4.7240  -4.7240  -4.7086
    -4.6753  -4.6753  -4.6560  -4.6555  -4.6555  -4.6353  -4.6321  -4.6321
    -4.6251  -4.6251  -4.6136  -4.6116  -4.6116  -4.6088  -4.6003  -4.5915
    -4.5915  -4.5841  -4.5841  -4.5769  -4.5769  -4.5736  -4.5729  -4.5711
    -4.5711  -4.5576  -4.5555  -4.5547  -4.5547  -4.5498  -4.5498  -4.5392
    -4.5392  -4.5330  -4.5330  -4.5330  -4.5234  -4.5092  -4.5092  -4.4466
    -4.4076  -4.3665  -4.0207  -4.0207  -4.0029  -3.9999  -3.9966  -3.9955
    -3.9955  -3.9898  -3.9600  -3.9600  -3.9503  -3.9503  -3.8810  -3.8810
    -3.8647  -3.8647  -3.8544  -3.8444  -3.8444  -3.8240  -3.7865  -3.7865
    -3.7722  -3.7595  -3.7595  -3.7335  -3.7308  -3.6776  -3.6776  -3.6603
    -3.6602  -3.6349  -3.6349  -3.6321  -3.6271  -3.6138  -3.5758  -3.4811
    -3.4810  -3.4111  -3.3950  -3.3950  -3.3749  -3.3521  -3.3521  -3.3508
    -3.3123  -3.3123  -3.3061  -3.2924  -3.2754  -3.2754  -3.2625  -3.2625
    -3.2206  -3.2206  -3.1781  -3.1781  -3.1612  -3.1307  -3.0845  -3.0845
    -3.0644  -3.0189  -3.0189  -2.9699  -2.8796  -2.8796  -2.8108  -2.3111
    -2.2150  -2.2150  -2.1772   1.9177   2.0757   2.0758   2.0800   2.1177
     2.1225   2.1225   2.4709   2.4710   2.4718   2.5406   2.5803   2.5803
     2.6376   2.6376   2.6404   2.6404   2.6518   2.6601   2.6601   2.6827
     2.6828   2.6938   2.7047   2.7082   2.7082   2.7188   2.7209   2.7504
     2.7504   2.7783   2.7930   2.7932   2.7932   3.0356   3.0356   3.0723
     3.1103   3.1465   3.1466   3.1800   3.1800   3.1857   3.1870   3.1870
     3.1996   3.2181   3.2181   3.3279   3.3279   3.3473   3.3528   3.3767
     3.3894   3.3984   3.4201   3.4201   3.4384   3.4501   3.4502   3.5301
     3.5302   3.5414   3.5853   3.5853   3.6466   3.6466   3.7057   3.7775
     3.8052   3.8053   3.8301   3.8301   3.8676   4.5063   4.6438   4.6438
     4.6446   4.6822   4.7011   4.7074   4.7074   4.7238   4.7238   4.7321
     4.7356   4.7357   4.7563   4.7692   4.7692   4.7708   4.7708   4.7958
     4.8046   4.8046   4.8274   4.8274   4.8482   4.8625   4.8625   4.8677
     4.9450   4.9571   4.9571   4.9729   4.9729   4.9739   4.9790   5.0416
     5.0416   5.0694   5.0931   5.0931   5.1166   5.1202   5.1202   5.1388
     5.3915   5.3915   5.6191   5.6942   5.7136   5.7137   5.7401   5.7491
     5.7491   5.7650   5.7743   5.7743   5.8324   5.8324   5.8619   5.8896
     5.8896   5.8965   5.9011   5.9011   5.9176   5.9301   5.9321   5.9322
     5.9415   5.9465   5.9648   5.9648   5.9833   5.9833   5.9858   6.0083
     6.0181   6.0181   6.0495   6.0495   6.0726   6.0857   6.0857   6.1542
     6.1542   6.2569   6.2569   6.2608   6.2708   6.2751   6.2751   6.2987
     6.3236   6.3236   6.3476   6.3768   6.3768   6.3835   6.4059   6.4157
     6.4157   6.5095   6.5415   6.5423   6.5423   6.5898   6.5898   6.6573
     6.6582   6.6744   6.6744   6.6867   6.6870   6.6918   6.6918   6.7172
     6.7290   6.7290   6.7759   6.7759   6.8376   6.8897   6.8897   6.9196
     6.9621   6.9622   7.0178   7.0338   7.0338   7.0601   7.0664   7.0664
     7.1203   7.1235   7.1438   7.1438   7.1618   7.1663   7.1664   7.1781
     7.1782   7.1782   7.1999   7.2000   7.2134   7.2432   7.2433   7.2885
     7.2885   7.2990   7.3240   7.3240   7.3465   7.3466   7.3491   7.3703
     7.4130   7.4251   7.4251   7.4322   7.4550   7.4550   7.4781   7.4996
     7.4996   7.5026   7.5420   7.5421   7.5751   7.5751   7.5852   7.5853
     7.6712   7.6937   7.7045   7.7045   7.7383   7.7535   7.7536   7.7604
     7.7742   7.7742   7.8053   7.8053   7.8087   7.8313   7.8313   7.8844
     7.9283   7.9316   7.9316   7.9462   7.9462   7.9680   7.9680   8.2066
     8.2067   8.2245   8.2339   8.2609   8.2610   8.3865   8.3865   8.4016
     8.4017   8.5949   8.6298   8.6299   8.6622   8.7191   8.7891   8.7891
     9.8011   9.8917   9.8917  10.1928  11.8635  11.9039  12.4212  12.4714
    12.5024  12.5025  12.5627  12.5627  12.6071  12.6591  12.6623  12.6624
    12.6662  12.6790  12.6791  12.6977  12.8549  12.8898  12.9290  12.9290
    12.9634  12.9780  12.9781  13.0157  13.0157  13.1075  13.1152  13.1152
    13.3896  13.4702  13.4702  13.4748  13.5652  13.5652  13.5683  13.8225
    13.8226  13.8454  13.9058  13.9058  13.9288  14.0802  14.0860  14.0860
    14.1125  14.1126  14.1400  14.1568  14.1568  14.1686  14.1730  14.1730
    14.1786  14.1856  14.1856  14.2089  14.2224  14.2224  14.2439  14.2439
    14.2485  14.2677  14.2714  14.2715  14.3820  14.4158  14.4249  14.4249
    14.4935  14.4935  14.4998  14.5093  14.5413  14.5413  14.5514  14.5515
    14.6719  14.6753  14.6932  14.6932  14.7170  14.7171  14.7357  14.7559
    14.7725  14.7725  14.7939  14.7939  14.8248  14.8248  14.8549  14.8868
    14.9213  14.9889  14.9889  15.2128  15.2128  15.4119  15.6642  15.6705
    15.6705  15.6951  15.6951  15.7156  15.7271  15.7271  15.7430  15.7636
    15.7636  15.8046  15.9109  15.9110  15.9160  15.9190  15.9191  15.9221
    15.9221  15.9275  15.9423  15.9568  15.9568  15.9644  15.9914  15.9914
    16.0148  16.0587  16.0587  16.1235  16.1882  16.1882  16.1942  16.1942
    16.2035  16.2092  16.2111  16.2112  16.2150  16.2297  16.2297  16.2364
    16.2442  16.2550  16.2550  16.2649  16.2649  16.2805  16.3220  16.3273
    16.3657  16.3657  16.3720  16.3761  16.3894  16.3894  16.4119  16.4119
    16.4135  16.4478  16.4478  16.4702  16.4702  16.4773  16.4971  16.4971
    16.5578  16.5775  16.5775  16.6294  16.6294  16.6295  16.6473

     occupation numbers 
     1.0000   1.0000   1.0000   1.0000   1.0000   1.0000   1.0000   1.0000
     1.0000   1.0000   1.0000   1.0000   1.0000   1.0000   1.0000   1.0000
     1.0000   1.0000   1.0000   1.0000   1.0000   1.0000   1.0000   1.0000
     1.0000   1.0000   1.0000   1.0000   1.0000   1.0000   1.0000   1.0000
     1.0000   1.0000   1.0000   1.0000   1.0000   1.0000   1.0000   1.0000
     1.0000   1.0000   1.0000   1.0000   1.0000   1.0000   1.0000   1.0000
     1.0000   1.0000   1.0000   1.0000   1.0000   1.0000   1.0000   1.0000
     1.0000   1.0000   1.0000   1.0000   1.0000   1.0000   1.0000   1.0000
     1.0000   1.0000   1.0000   1.0000   1.0000   1.0000   1.0000   1.0000
     1.0000   1.0000   1.0000   1.0000   1.0000   1.0000   1.0000   1.0000
     1.0000   1.0000   1.0000   1.0000   1.0000   1.0000   1.0000   1.0000
     1.0000   1.0000   1.0000   1.0000   1.0000   1.0000   1.0000   1.0000
     1.0000   1.0000   1.0000   1.0000   1.0000   1.0000   1.0000   1.0000
     1.0000   1.0000   1.0000   1.0000   1.0000   1.0000   1.0000   1.0000
     1.0000   1.0000   1.0000   1.0000   1.0000   1.0000   1.0000   1.0000
     1.0000   1.0000   1.0000   1.0000   1.0000   1.0000   1.0000   1.0000
     1.0000   1.0000   1.0000   1.0000   1.0000   1.0000   1.0000   1.0000
     1.0000   1.0000   1.0000   1.0000   1.0000   1.0000   1.0000   1.0000
     1.0000   1.0000   1.0000   1.0000   1.0000   1.0000   1.0000   1.0000
     1.0000   1.0000   1.0000   1.0000   1.0000   1.0000   1.0000   1.0000
     1.0000   1.0000   1.0000   1.0000   1.0000   1.0000   1.0000   1.0000
     1.0000   1.0000   1.0000   1.0000   1.0000   1.0000   1.0000   1.0000
     1.0000   1.0000   1.0000   1.0000   1.0000   1.0000   1.0000   1.0000
     1.0000   1.0000   1.0000   1.0000   1.0000   1.0000   1.0000   1.0000
     1.0000   1.0000   1.0000   1.0000   1.0000   1.0000   1.0000   1.0000
     1.0000   1.0000   1.0000   1.0000   1.0000   1.0000   1.0000   1.0000
     1.0000   1.0000   1.0000   1.0000   1.0000   1.0000   1.0000   1.0000
     1.0000   1.0000   1.0000   1.0000   1.0000   1.0000   1.0000   1.0000
     1.0000   1.0000   1.0000   1.0000   1.0000   1.0000   1.0000   1.0000
     1.0000   1.0000   1.0000   1.0000   1.0000   1.0000   1.0000   1.0000
     1.0000   1.0000   1.0000   1.0000   1.0000   1.0000   1.0000   1.0000
     1.0000   1.0000   1.0000   1.0000   1.0000   1.0000   1.0000   1.0000
     1.0000   1.0000   1.0000   1.0000   1.0000   1.0000   1.0000   1.0000
     1.0000   1.0000   1.0000   1.0000   1.0000   1.0000   1.0000   1.0000
     1.0000   1.0000   1.0000   1.0000   1.0000   1.0000   1.0000   1.0000
     1.0000   1.0000   1.0000   1.0000   1.0000   1.0000   1.0000   1.0000
     1.0000   1.0000   1.0000   1.0000   1.0000   1.0000   1.0000   1.0000
     1.0000   1.0000   1.0000   1.0000   1.0000   1.0000   1.0000   1.0000
     1.0000   1.0000   1.0000   1.0000   1.0000   1.0000   1.0000   1.0000
     1.0000   1.0000   1.0000   1.0000   1.0000   1.0000   1.0000   1.0000
     1.0000   1.0000   1.0000   1.0000   1.0000   1.0000   1.0000   1.0000
     1.0000   1.0000   1.0000   1.0000   1.0000   1.0000   1.0000   1.0000
     1.0000   1.0000   1.0000   1.0000   1.0000   1.0000   1.0000   1.0000
     1.0000   1.0000   1.0000   1.0000   1.0000   1.0000   1.0000   1.0000
     1.0000   1.0000   1.0000   1.0000   1.0000   1.0000   1.0000   1.0000
     1.0000   1.0000   1.0000   1.0000   1.0000   1.0000   1.0000   1.0000
     1.0000   1.0000   1.0000   1.0000   1.0000   1.0000   1.0000   1.0000
     1.0000   1.0000   1.0000   1.0000   1.0000   1.0000   1.0000   1.0000
     1.0000   1.0000   1.0000   1.0000   1.0000   1.0000   1.0000   1.0000
     1.0000   1.0000   1.0000   1.0000   1.0000   1.0000   1.0000   1.0000
     1.0000   1.0000   1.0000   1.0000   1.0000   1.0000   1.0000   1.0000
     1.0000   1.0000   1.0000   1.0000   1.0000   1.0000   1.0000   1.0000
     1.0000   1.0000   1.0000   1.0000   1.0000   1.0000   1.0000   1.0000
     1.0000   1.0000   1.0000   1.0000   1.0000   1.0000   1.0000   1.0000
     1.0000   1.0000   1.0000   1.0000   1.0000   1.0000   1.0000   1.0000
     1.0000   1.0000   1.0000   1.0000   1.0000   1.0000   1.0000   1.0000
     1.0000   1.0000   1.0000   1.0000   1.0000   1.0000   1.0000   1.0000
     1.0000   1.0000   1.0000   1.0000   1.0000   1.0000   1.0000   1.0000
     1.0000   1.0000   1.0000   1.0000   1.0000   1.0000   1.0000   1.0000
     1.0000   1.0000   1.0000   1.0000   1.0000   1.0000   1.0000   1.0000
     1.0000   1.0000   1.0000   1.0000   1.0000   1.0000   1.0000   1.0000
     1.0000   1.0000   1.0000   1.0000   1.0000   1.0000   1.0000   1.0000
     1.0000   1.0000   1.0000   1.0000   1.0000   1.0000   1.0000   1.0000
     1.0000   1.0000   1.0000   1.0000   1.0000   1.0000   1.0000   1.0000
     1.0000   1.0000   1.0000   1.0000   1.0000   1.0000   1.0000   1.0000
     1.0000   1.0000   1.0000   1.0000   1.0000   1.0000   1.0000   1.0000
     1.0000   1.0000   1.0000   1.0000   1.0000   1.0000   1.0000   1.0000
     1.0000   1.0000   1.0000   1.0000   1.0000   1.0000   1.0000   1.0000
     1.0000   1.0000   1.0000   1.0000   1.0000   1.0000   1.0000   1.0000
     1.0000   1.0000   1.0000   1.0000   1.0000   1.0000   1.0000   1.0000
     1.0000   1.0000   1.0000   1.0000   1.0000   1.0000   1.0000   1.0000
     1.0000   1.0000   1.0000   1.0000   1.0000   1.0000   1.0000   1.0000
     1.0000   1.0000   1.0000   1.0000   1.0000   1.0000   1.0000   1.0000
     1.0000   1.0000   1.0000   1.0000   1.0000   1.0000   1.0000   1.0000
     1.0000   1.0000   1.0000   1.0000   1.0000   1.0000   1.0000   1.0000
     1.0000   1.0000   1.0000   1.0000   1.0000   1.0000   1.0000   1.0000
     1.0000   1.0000   1.0000   1.0000   1.0000   1.0000   1.0000   1.0000
     1.0000   1.0000   1.0000   1.0000   1.0000   1.0000   1.0000   1.0000
     1.0000   1.0000   1.0000   1.0000   1.0000   1.0000   1.0000   1.0000
     1.0000   1.0000   1.0000   1.0000   1.0000   1.0000   1.0000   1.0000
     1.0000   1.0000   1.0000   1.0000   1.0000   1.0000   1.0000   1.0000
     1.0000   1.0000   1.0000   1.0000   1.0000   1.0000   1.0000   1.0000
     1.0000   1.0000   1.0000   1.0000   1.0000   1.0000   1.0000   1.0000
     1.0000   1.0000   1.0000   1.0000   1.0000   1.0000   1.0000   1.0000
     1.0000   1.0000   1.0000   1.0000   1.0000   1.0000   1.0000   1.0000
     1.0000   1.0000   1.0000   1.0000   1.0000   1.0000   1.0000   1.0000
     1.0000   1.0000   1.0000   1.0000   1.0000   1.0000   1.0000   1.0000
     1.0000   1.0000   1.0000   1.0000   1.0000   1.0000   1.0000   1.0000
     1.0000   1.0000   1.0000   1.0000   1.0000   1.0000   1.0000   1.0000
     1.0000   1.0000   1.0000   1.0000   1.0000   1.0000   1.0000   1.0000
     1.0000   1.0000   1.0000   1.0000   1.0000   1.0000   1.0000   1.0000
     1.0000   1.0000   1.0000   1.0000   1.0000   1.0000   1.0000   1.0000
     1.0000   1.0000   1.0000   1.0000   1.0000   1.0000   1.0000   1.0000
     1.0000   1.0000   1.0000   1.0000   1.0000   1.0000   1.0000   1.0000
     1.0000   1.0000   1.0000   1.0000   1.0000   1.0000   1.0000   1.0000
     1.0000   1.0000   1.0000   1.0000   1.0000   1.0000   1.0000   1.0000
     1.0000   1.0000   1.0000   1.0000   1.0000   1.0000   1.0000   1.0000
     1.0000   1.0000   1.0000   1.0000   1.0000   1.0000   1.0000   1.0000
     1.0000   1.0000   1.0000   1.0000   1.0000   1.0000   1.0000   1.0000
     1.0000   1.0000   1.0000   1.0000   1.0000   1.0000   1.0000   1.0000
     1.0000   1.0000   1.0000   1.0000   1.0000   1.0000   1.0000   1.0000
     1.0000   1.0000   1.0000   1.0000   1.0000   1.0000   1.0000   1.0000
     1.0000   1.0000   1.0000   1.0000   1.0000   1.0000   1.0000   1.0000
     1.0000   1.0000   1.0000   1.0000   1.0000   1.0000   1.0000   1.0000
     1.0000   1.0000   1.0000   1.0000   1.0000   1.0000   1.0000   1.0000
     1.0000   1.0000   1.0000   1.0000   1.0000   1.0000   1.0000   1.0000
[...]
     Non-local corr. energy    =      51.87811697 Ry
     -----------------------------------------------

          total   stress  (Ry/bohr**3)                   (kbar)     P=       22.00
   0.00014602   0.00000000   0.00000000           21.48        0.00        0.00
  -0.00000000   0.00014602   0.00000000           -0.00       21.48        0.00
   0.00000000   0.00000000   0.00015665            0.00        0.00       23.04

     kinetic stress (kbar)  18368.45     -0.00      0.00
                                0.00  18368.45     -0.00
                                0.00     -0.00  18365.63

     local   stress (kbar)   4935.72     -0.07     -0.00
                               -0.07   4935.62      0.00
                               -0.00      0.00   3347.25

     nonloc. stress (kbar)     38.49      0.00      0.00
                                0.00     38.49      0.00
                                0.00      0.00     49.25

     hartree stress (kbar)  19607.60     -0.00     -0.00
                               -0.00  19607.60      0.00
                               -0.00      0.00  20332.83

     exc-cor stress (kbar)   5148.72      0.00     -0.00
                                0.00   5148.72      0.00
                               -0.00      0.00   5149.03

     corecor stress (kbar) -13970.04     -0.00     -0.00
                               -0.00 -13970.04      0.00
                               -0.00      0.00 -13969.58

     ewald   stress (kbar) -34268.14      0.09      0.00
                                0.09 -34268.02     -0.00
                                0.00     -0.00 -33411.21

     hubbard stress (kbar)      0.00      0.00      0.00
                                0.00      0.00      0.00
                                0.00      0.00      0.00

     DFT-D   stress (kbar)      0.00      0.00      0.00
                                0.00      0.00      0.00
                                0.00      0.00      0.00

     XDM     stress (kbar)      0.00      0.00      0.00
                                0.00      0.00      0.00
                                0.00      0.00      0.00

     dft-nl  stress (kbar)    160.68     -0.00     -0.00
                               -0.00    160.68     -0.00
                               -0.00     -0.00    159.83

     TS-vdW  stress (kbar)      0.00      0.00      0.00
                                0.00      0.00      0.00
                                0.00      0.00      0.00

     MDB     stress (kbar)      0.00      0.00      0.00
                                0.00      0.00      0.00
                                0.00      0.00      0.00

     3D-RISM stress (kbar)      0.00      0.00      0.00
                                0.00      0.00      0.00
                                0.00      0.00      0.00

     Energy error            =      4.2E-05 Ry
     Gradient error          =      6.2E-04 Ry/Bohr

     bfgs converged in  12 scf cycles and  11 bfgs steps
     (criteria: energy <  1.0E-04 Ry, force <  1.0E-03 Ry/Bohr)

     End of BFGS Geometry Optimization

     Final energy             =  -29694.6853467724 Ry

     File ./GaN.bfgs deleted, as requested
Begin final coordinates

ATOMIC_POSITIONS (angstrom)
Ga            1.6222756606        0.9366198184        7.8803235043
Ga            1.6222756606        0.9366198184       13.2289042421
Ga            0.0163682956        3.7088739480        2.6359629466
Ga           -0.0021162123        3.7421005236        7.9224091629
Ga            0.0019691973        3.7434065920       13.2223128826
Ga           -1.6213639983        6.5568671964        2.6419441135
Ga           -1.6240568755        6.5553124630        7.9212457929
Ga           -1.6241497030        6.5552588690       13.2270616894
Ga           -3.2689323542        9.3991815916        2.6359629466
Ga           -3.2493995495        9.3665602504        7.9224091629
Ga           -3.2462257563        9.3694452847       13.2223128826
Ga            4.8260718450        0.9412493279        2.6359629466
Ga            4.8640891576        0.9406440935        7.9224091629
Ga            4.8631775411        0.9364529908       13.2223128826
Ga            3.2281830256        3.7088739480        2.6359629466
Ga            3.2466675335        3.7421005236        7.9224091629
Ga            3.2425821239        3.7434065920       13.2223128826
Ga            1.6222756606        6.5499105070        2.6381814636
Ga            1.6222756606        6.5530688004        7.9226375495
Ga            1.6222756606        6.5538015686       13.2230555572
Ga           -0.0055688386        9.3694198864        2.6381814636
Ga           -0.0028336763        9.3678407397        7.9226375495
Ga           -0.0021990803        9.3674743556       13.2230555572
Ga            8.1113724947        0.9355704748        2.6419441135
Ga            8.1113724947        0.9386799416        7.9212457929
Ga            8.1113724947        0.9387871296       13.2270616894
Ga            6.4790948857        3.7407057055        2.6293671382
Ga            6.4879944015        3.7458438433        7.9203210586
Ga            6.4870495291        3.7452983210       13.2270273192
Ga            4.8659153195        6.5568671964        2.6419441135
Ga            4.8686081967        6.5553124630        7.9212457929
Ga            4.8687010242        6.5552588690       13.2270616894
Ga            3.2501201598        9.3694198864        2.6381814636
Ga            3.2473849975        9.3678407397        7.9226375495
Ga            3.2467504015        9.3674743556       13.2230555572
Ga           11.3966731445        0.9412493279        2.6359629466
Ga           11.3586558319        0.9406440935        7.9224091629
Ga           11.3595674484        0.9364529908       13.2223128826
Ga            9.7436501038        3.7407057055        2.6293671382
Ga            9.7347505880        3.7458438433        7.9203210586
Ga            9.7356954604        3.7452983210       13.2270273192
Ga            8.1113724947        6.5678934565        2.6293671382
Ga            8.1113724947        6.5576171809        7.9203210586
Ga            8.1113724947        6.5587082256       13.2270273192
Ga            6.5134836754        9.3991815916        2.6359629466
Ga            6.4939508707        9.3665602504        7.9224091629
Ga            6.4907770775        9.3694452847       13.2223128826
Ga            0.0288307635        1.8565958630        5.2489886285
Ga            0.0050986597        1.8702975996       10.5636306690
Ga            0.0120578062        1.8662797345       15.9070586234
Ga           -1.6158196704        4.6788508624        5.2735391965
Ga           -1.6209597962        4.6825101735       10.5736597559
Ga           -1.6109050338        4.6763758658       15.8779589123
Ga           -3.2450052821        7.5006831168        5.2735391965
Ga           -3.2444062887        7.4944019818       10.5736597559
Ga           -3.2446913737        7.5061768153       15.8779589123
Ga           -4.8668245904       10.3361196726        5.2489886285
Ga           -4.8668245904       10.3087161995       10.5636306690
Ga           -4.8668245904       10.3167519297       15.9070586234
Ga            3.2157137240        1.8565958630        5.2489886285
Ga            3.2394458278        1.8702975996       10.5636306690
Ga            3.2324866813        1.8662797345       15.9070586234
Ga            1.6222722437        4.6730355343        5.2759414862
Ga            1.6222722437        4.6825563953       10.5720389869
Ga            1.6222722437        4.6758379854       15.8658706115
Ga           -0.0002547737        7.4928191934        5.2781795703
Ga           -0.0002446615        7.4928250317       10.5726236665
Ga           -0.0014502109        7.4921290074       15.8667565559
Ga           -1.6309955469       10.3078606384        5.2759414862
Ga           -1.6227502393       10.3031002079       10.5720389869
Ga           -1.6285685529       10.3064594128       15.8658706115
Ga            6.4821834662        1.8697774196        5.2735391965
Ga            6.4879225854        1.8723992436       10.5736597559
Ga            6.4775827380        1.8667587177       15.8779589123
Ga            4.8603641579        4.6788508624        5.2735391965
Ga            4.8655042837        4.6825101735       10.5736597559
Ga            4.8554495213        4.6763758658       15.8779589123
Ga            3.2447992612        7.4928191934        5.2781795703
Ga            3.2447891490        7.4928250317       10.5726236665
Ga            3.2459946984        7.4921290074       15.8667565559
Ga            1.6222722437       10.3031184242        5.2781795703
Ga            1.6222722437       10.3031067477       10.5726236665
Ga            1.6222722437       10.3044987962       15.8667565559
Ga            9.7405546895        1.8697774196        5.2735391965
Ga            9.7348155703        1.8723992436       10.5736597559
Ga            9.7451554177        1.8667587177       15.8779589123
Ga            8.1113690779        4.6831037996        5.2708629896
Ga            8.1113690779        4.6831037996       10.5734371593
Ga            8.1113690779        4.6831037996       15.8700291931
Ga            6.4895497695        7.5006831168        5.2735391965
Ga            6.4889507761        7.4944019818       10.5736597559
Ga            6.4892358611        7.5061768153       15.8779589123
Ga            4.8755400344       10.3078606384        5.2759414862
Ga            4.8672947268       10.3031002079       10.5720389869
Ga            4.8731130404       10.3064594128       15.8658706115
N             1.6222756606        0.9366198184        4.7993028474
N             1.6222756606        0.9366198184        9.9017858589
N             1.6222756606        0.9366198184       15.1990954352
N            -0.0012872632        3.7528000773        4.6350842824
N            -0.0003647176        3.7500531518        9.9199172748
N             0.0039769488        3.7513811713       15.1950534256
N            -1.6211565288        6.5569869790        4.6368221848
N            -1.6221903461        6.5563901042        9.9176894345
N            -1.6238858363        6.5554112125       15.2115843006
N            -3.2397189897        9.3619283645        4.6350842824
N            -3.2416366242        9.3641007752        9.9199172748
N            -3.2383156923        9.3671967588       15.1950534256
N             4.8729407683        0.9345764257        4.6350842824
N             4.8701005882        0.9351509405        9.9199172748
N             4.8690798537        0.9307269374       15.1950534256
N             3.2458385844        3.7528000773        4.6350842824
N             3.2449160388        3.7500531518        9.9199172748
N             3.2405743724        3.7513811713       15.1950534256
N             1.6222756606        6.5564580045        4.6341475603
N             1.6222756606        6.5576466198        9.9177486472
N             1.6222756606        6.5581867228       15.2093295666
N             0.0001014606        9.3661461377        4.6341475603
N             0.0011308316        9.3655518300        9.9177486472
N             0.0015985746        9.3652817785       15.2093295666
N             8.1113724947        0.9353309097        4.6368221848
N             8.1113724947        0.9365246591        9.9176894345
N             8.1113724947        0.9384824425       15.2115843006
N             6.4884548494        3.7461096831        4.6292881397
N             6.4893718234        3.7466390983        9.9173021472
N             6.4861975212        3.7448064141       15.2136644637
N             4.8657078500        6.5569869790        4.6368221848
N             4.8667416673        6.5563901042        9.9176894345
N             4.8684371575        6.5554112125       15.2115843006
N             3.2444498606        9.3661461377        4.6341475603
N             3.2434204896        9.3655518300        9.9177486472
N             3.2429527466        9.3652817785       15.2093295666
N            11.3498042212        0.9345764257        4.6350842824
N            11.3526444013        0.9351509405        9.9199172748
N            11.3536651358        0.9307269374       15.1950534256
N             9.7342901401        3.7461096831        4.6292881397
N             9.7333731661        3.7466390983        9.9173021472
N             9.7365474683        3.7448064141       15.2136644637
N             8.1113724947        6.5570855014        4.6292881397
N             8.1113724947        6.5560266710        9.9173021472
N             8.1113724947        6.5596920395       15.2136644637
N             6.4842703109        9.3619283645        4.6350842824
N             6.4861879454        9.3641007752        9.9199172748
N             6.4828670135        9.3671967588       15.1950534256
N            -0.1372152103        1.9524625507        1.9356462631
N            -0.0181214138        1.8837037153        7.2885949600
N             0.0004255267        1.8729956341       12.5547790952
N            -1.6236927203        4.7010457608        1.9954826586
N            -1.6240062610        4.6855737559        7.2736597741
N            -1.6233345736        4.6834338464       12.5627440506
N            -3.2297204612        7.4827674064        1.9954826586
N            -3.2432763808        7.4902318747        7.2736597741
N            -3.2447937532        7.4918835277       12.5627440506
N            -4.8668245904       10.1443862972        1.9356462631
N            -4.8668245904       10.2819039682        7.2885949600
N            -4.8668245904       10.3033201304       12.5547790952
N             3.3817596978        1.9524625507        1.9356462631
N             3.2626659013        1.8837037153        7.2885949600
N             3.2441189608        1.8729956341       12.5547790952
N             1.6222722437        4.6917967529        1.9871461434
N             1.6222722437        4.6837382750        7.2768069590
N             1.6222722437        4.6848541727       12.5583013161
N             0.0036140785        7.4950528763        1.9911491066
N             0.0005962341        7.4933105230        7.2755531046
N            -0.0004821695        7.4926879064       12.5637751858
N            -1.6147478549       10.2984800291        1.9871461434
N            -1.6217267015       10.3025092680        7.2768069590
N            -1.6207603057       10.3019513191       12.5583013161
N             6.5053413370        1.8654982316        1.9954826586
N             6.4920989580        1.8735057682        7.2736597741
N             6.4899098984        1.8739940247       12.5627440506
N             4.8682372078        4.7010457608        1.9954826586
N             4.8685507485        4.6855737559        7.2736597741
N             4.8678790611        4.6834338464       12.5627440506
N             3.2409304090        7.4950528763        1.9911491066
N             3.2439482534        7.4933105230        7.2755531046
N             3.2450266570        7.4926879064       12.5637751858
N             1.6222722437       10.2986510585        1.9911491066
N             1.6222722437       10.3021357651        7.2755531046
N             1.6222722437       10.3033809983       12.5637751858
N             9.7173968187        1.8654982316        1.9954826586
N             9.7306391977        1.8735057682        7.2736597741
N             9.7328282573        1.8739940247       12.5627440506
N             8.1113690779        4.6831037996        1.9920918278
N             8.1113690779        4.6831037996        7.2715696098
N             8.1113690779        4.6831037996       12.5662282022
N             6.4742649486        7.4827674064        1.9954826586
N             6.4878208682        7.4902318747        7.2736597741
N             6.4893382406        7.4918835277       12.5627440506
N             4.8592923424       10.2984800291        1.9871461434
N             4.8662711890       10.3025092680        7.2768069590
N             4.8653047932       10.3019513191       12.5583013161
End final coordinates



     Writing all to output data dir ./GaN.save/
 
     init_run     :     31.77s CPU     38.65s WALL (       1 calls)
     electrons    :  52883.60s CPU  53585.98s WALL (      12 calls)
     update_pot   :     19.27s CPU     19.45s WALL (      11 calls)
     forces       :    129.20s CPU    131.85s WALL (      12 calls)
     stress       :   2044.03s CPU   2065.74s WALL (      12 calls)

     Called by init_run:
     wfcinit      :     18.03s CPU     24.69s WALL (       1 calls)
     wfcinit:atom :      0.05s CPU      0.09s WALL (       1 calls)
     wfcinit:wfcr :     17.72s CPU     24.21s WALL (       1 calls)
     potinit      :      5.20s CPU      5.31s WALL (       1 calls)
     hinit0       :      0.55s CPU      0.56s WALL (       1 calls)

     Called by electrons:
     c_bands      :  51854.52s CPU  52536.63s WALL (     223 calls)
     sum_band     :    783.09s CPU    793.04s WALL (     223 calls)
     v_of_rho     :    130.07s CPU    132.44s WALL (     233 calls)
     v_h          :      1.37s CPU      1.39s WALL (     233 calls)
     v_xc         :    141.26s CPU    143.77s WALL (     257 calls)
     newd         :     29.66s CPU     30.19s WALL (     233 calls)
     PAW_pot      :     69.67s CPU     70.34s WALL (     244 calls)
     mix_rho      :      8.02s CPU      8.38s WALL (     223 calls)
     vdW_kernel   :      3.07s CPU      3.11s WALL (       1 calls)

     Called by c_bands:
     init_us_2    :     28.40s CPU     28.96s WALL (     458 calls)
     init_us_2:cp :     28.40s CPU     28.96s WALL (     458 calls)
     cegterg      :  41690.41s CPU  42185.84s WALL (     223 calls)

     Called by sum_band:
     sum_band:wei :      1.07s CPU      1.10s WALL (     223 calls)
     sum_band:loo :    716.28s CPU    723.33s WALL (     223 calls)
     sum_band:buf :      0.00s CPU      0.00s WALL (     223 calls)
     sum_band:ini :     23.57s CPU     23.94s WALL (     223 calls)
     sum_band:cal :    450.92s CPU    454.32s WALL (     234 calls)
     sum_band:bec :      5.79s CPU      5.87s WALL (     234 calls)
     addusdens    :     25.95s CPU     26.86s WALL (     223 calls)
     addusd:skk   :      3.29s CPU      3.54s WALL (     446 calls)
     addusd:dgemm :     11.13s CPU     11.66s WALL (     446 calls)
     addusd:qvan2 :      3.58s CPU      3.62s WALL (     446 calls)

     Called by *egterg:
     cdiaghg      :  33087.21s CPU  33287.11s WALL (    2667 calls)
     cegterg:over :   1673.61s CPU   1729.90s WALL (    2457 calls)
     cegterg:upda :   1019.56s CPU   1039.10s WALL (    2457 calls)
     cegterg:last :    485.99s CPU    489.60s WALL (     228 calls)
     h_psi        :   3764.34s CPU   3833.46s WALL (    2681 calls)
     s_psi        :   1165.47s CPU   1188.85s WALL (    2681 calls)
     g_psi        :      4.54s CPU      4.59s WALL (    2457 calls)

     Called by h_psi:
     h_psi:calbec :   1251.57s CPU   1262.39s WALL (    2681 calls)
     vloc_psi     :   1325.95s CPU   1341.28s WALL (    2681 calls)
     add_vuspsi   :   1166.28s CPU   1192.71s WALL (    2681 calls)

     General routines
     calbec       :   1817.93s CPU   1833.07s WALL (    2975 calls)
     fft          :     63.39s CPU     64.23s WALL (   16696 calls)
     ffts         :      1.80s CPU      1.82s WALL (     456 calls)
     fftw         :   1470.06s CPU   1487.21s WALL ( 1471683 calls)
     interpolate  :      2.39s CPU      2.42s WALL (     233 calls)
 
     Parallel routines

     PAW routines
     PAW_pot      :     69.67s CPU     70.34s WALL (     244 calls)
     PAW_symme    :      2.23s CPU      2.26s WALL (     467 calls)
 
     PWSCF        :     15h19m CPU     15h31m WALL

 
   This run was terminated on:   1: 8:41  31Jan2024            

=------------------------------------------------------------------------------=
   JOB DONE.
=------------------------------------------------------------------------------=
