
     Program PWSCF v.7.1 starts on 23Mar2024 at 23:36:30 

     This program is part of the open-source Quantum ESPRESSO suite
     for quantum simulation of materials; please cite
         "P. Giannozzi et al., J. Phys.:Condens. Matter 21 395502 (2009);
         "P. Giannozzi et al., J. Phys.:Condens. Matter 29 465901 (2017);
         "P. Giannozzi et al., J. Chem. Phys. 152 154105 (2020);
          URL http://www.quantum-espresso.org", 
     in publications or presentations arising from this work. More details at
     http://www.quantum-espresso.org/quote

     Parallel version (MPI & OpenMP), running on      90 processor cores
     Number of MPI processes:                90
     Threads/MPI process:                     1

     MPI processes distributed on     1 nodes
     2000046 MiB available memory on the printing compute node when the environment starts
 
     Reading input from espresso.pwi
Warning: card &CELL ignored
Warning: card    CELL_DYNAMICS    = 'BFGS' ignored
Warning: card / ignored

     Current dimensions of program PWSCF are:
     Max number of different atomic species (ntypx) = 10
     Max number of k-points (npk) =  40000
     Max angular momentum in pseudopotentials (lmaxx) =  4
     file Pb.pbe-dn-kjpaw_psl.1.0.0.UPF: wavefunction(s)  6S 6P 5D renormalized
     file I.pbe-dn-kjpaw_psl.1.0.0.UPF: wavefunction(s)  5S 5P renormalized

     **************************************************************************
     Initializing libbeef V0.1.2 with the BEEF-vdW functional.
     Citation: Wellendorff et al., PRB 85, 235149 (2012).
     **************************************************************************


     IMPORTANT: XC functional enforced from input :
     Exchange-correlation= BEEF-VDW
                           (   1   4  43  14   2   0   0)
     Any further DFT definition will be discarded
     Please, verify this is what you really want

 
     R & G space division:  proc/nbgrp/npool/nimage =      90
     Subspace diagonalization in iterative solution of the eigenvalue problem:
     a serial algorithm will be used

 
     Parallelization info
     --------------------
     sticks:   dense  smooth     PW     G-vecs:    dense   smooth      PW
     Min         339     271     68                37611    26913    3360
     Max         340     272     69                37618    26918    3366
     Sum       30577   24439   6121              3385235  2422379  302703
 
     Using Slab Decomposition
 


     bravais-lattice index     =            4
     lattice parameter (alat)  =      35.6073  a.u.
     unit-cell volume          =   30614.2220 (a.u.)^3
     number of atoms/cell      =           96
     number of atomic types    =            2
     number of electrons       =      1531.00
     number of Kohn-Sham states=          919
     kinetic-energy cutoff     =      70.0000  Ry
     charge density cutoff     =     350.0000  Ry
     scf convergence threshold =      1.0E-07
     mixing beta               =       0.7000
     number of iterations used =            8  plain     mixing
     energy convergence thresh.=      1.0E-04
     force convergence thresh. =      1.0E-03
     Exchange-correlation= BEEF-VDW
                           (   1   4  43  14   2   0   0)
     nstep                     =           50


     celldm(1)=  35.607290  celldm(2)=   0.000000  celldm(3)=   0.783025
     celldm(4)=   0.000000  celldm(5)=   0.000000  celldm(6)=   0.000000

     crystal axes: (cart. coord. in units of alat)
               a(1) = (   1.000000   0.000000   0.000000 )  
               a(2) = (  -0.500000   0.866025   0.000000 )  
               a(3) = (   0.000000   0.000000   0.783025 )  

     reciprocal axes: (cart. coord. in units 2 pi/alat)
               b(1) = (  1.000000  0.577350 -0.000000 )  
               b(2) = (  0.000000  1.154701  0.000000 )  
               b(3) = (  0.000000 -0.000000  1.277098 )  


     PseudoPot. # 1 for Pb read from file:
     /trace/group/acmegroup/atimmins/packages/espresso/pseudo/psl_1.0.0/pslibrary.1.0.0/pbe/PSEUDOPOTENTIALS/Pb.pbe-dn-kjpaw_psl.1.0.0.UPF
     MD5 check sum: 39ab5b8a6bbd56b7735ad9f188aac93a
     Pseudo is Projector augmented-wave + core cor, Zval = 14.0
     Generated using 'atomic' code by A. Dal Corso  v.7.1
     Shape of augmentation charge: PSQ
     Using radial grid of 1281 points,  6 beta functions with: 
                l(1) =   0
                l(2) =   0
                l(3) =   1
                l(4) =   1
                l(5) =   2
                l(6) =   2
     Q(r) pseudized with 0 coefficients 


     PseudoPot. # 2 for I  read from file:
     /trace/group/acmegroup/atimmins/packages/espresso/pseudo/psl_1.0.0/pslibrary.1.0.0/pbe/PSEUDOPOTENTIALS/I.pbe-dn-kjpaw_psl.1.0.0.UPF
     MD5 check sum: bfa8781bc1224d19af3f3980e3fab11e
     Pseudo is Projector augmented-wave + core cor, Zval = 17.0
     Generated using 'atomic' code by A. Dal Corso  v.7.1
     Shape of augmentation charge: PSQ
     Using radial grid of 1247 points,  6 beta functions with: 
                l(1) =   0
                l(2) =   0
                l(3) =   1
                l(4) =   1
                l(5) =   2
                l(6) =   2
     Q(r) pseudized with 0 coefficients 


     atomic species   valence    mass     pseudopotential
        Pb            14.00   207.20000     Pb( 1.00)
        I             17.00   126.90447     I ( 1.00)

     No symmetry found


                                    s                        frac. trans.

      isym =  1     identity                                     

 cryst.   s( 1) = (     1          0          0      )
                  (     0          1          0      )
                  (     0          0          1      )

 cart.    s( 1) = (  1.0000000  0.0000000  0.0000000 )
                  (  0.0000000  1.0000000  0.0000000 )
                  (  0.0000000  0.0000000  1.0000000 )


     point group C_1 (1)    
     there are  1 classes
     the character table:

       E    
A      1.00

     the symmetry operations in each class and the name of the first element:

     E        1
          identity                                               

   Cartesian axes

     site n.     atom                  positions (alat units)
         1           Pb  tau(   1) = (   0.1250086   0.2164870   0.7830203  )
         2           Pb  tau(   2) = (   0.1250034   0.2164916   0.3915076  )
         3           Pb  tau(   3) = (   0.0000077   0.4329922   0.7830161  )
         4           Pb  tau(   4) = (   0.0000025   0.4329968   0.3915034  )
         5           Pb  tau(   5) = (  -0.1249932   0.6494975   0.7830119  )
         6           Pb  tau(   6) = (  -0.1249984   0.6495021   0.3914992  )
         7           Pb  tau(   7) = (  -0.2499941   0.8660028   0.7830077  )
         8           Pb  tau(   8) = (  -0.2499993   0.8660074   0.3914950  )
         9           Pb  tau(   9) = (   0.3750086   0.2164859   0.7830237  )
        10           Pb  tau(  10) = (   0.3750034   0.2164905   0.3915110  )
        11           Pb  tau(  11) = (   0.2500077   0.4329912   0.7830194  )
        12           Pb  tau(  12) = (   0.2500025   0.4329958   0.3915068  )
        13           Pb  tau(  13) = (   0.1250068   0.6494965   0.7830152  )
        14           Pb  tau(  14) = (   0.1250016   0.6495011   0.3915026  )
        15           Pb  tau(  15) = (   0.0000059   0.8660017   0.7830110  )
        16           Pb  tau(  16) = (   0.0000007   0.8660063   0.3914983  )
        17           Pb  tau(  17) = (   0.6250086   0.2164849   0.7830270  )
        18           Pb  tau(  18) = (   0.6250034   0.2164895   0.3915143  )
        19           Pb  tau(  19) = (   0.5000077   0.4329901   0.7830228  )
        20           Pb  tau(  20) = (   0.5000025   0.4329947   0.3915101  )
        21           Pb  tau(  21) = (   0.3750068   0.6494954   0.7830186  )
        22           Pb  tau(  22) = (   0.3750016   0.6495000   0.3915059  )
        23           Pb  tau(  23) = (   0.2500059   0.8660007   0.7830144  )
        24           Pb  tau(  24) = (   0.2500007   0.8660053   0.3915017  )
        25           Pb  tau(  25) = (   0.8750086   0.2164838   0.7830303  )
        26           Pb  tau(  26) = (   0.8750034   0.2164884   0.3915177  )
        27           Pb  tau(  27) = (   0.7500077   0.4329891   0.7830261  )
        28           Pb  tau(  28) = (   0.7500025   0.4329937   0.3915135  )
        29           Pb  tau(  29) = (   0.6250068   0.6494944   0.7830219  )
        30           Pb  tau(  30) = (   0.6250016   0.6494990   0.3915092  )
        31           Pb  tau(  31) = (   0.5000059   0.8659996   0.7830177  )
        32           Pb  tau(  32) = (   0.5000007   0.8660042   0.3915050  )
        33           I   tau(  33) = (   0.1250108   0.0721500   0.6824290  )
        34           I   tau(  34) = (   0.0000047   0.2886599   0.2909121  )
        35           I   tau(  35) = (   0.0000099   0.2886553   0.6824248  )
        36           I   tau(  36) = (  -0.1249962   0.5051652   0.2909079  )
        37           I   tau(  37) = (  -0.1249910   0.5051606   0.6824206  )
        38           I   tau(  38) = (  -0.2499972   0.7216704   0.2909037  )
        39           I   tau(  39) = (  -0.2499919   0.7216658   0.6824164  )
        40           I   tau(  40) = (   0.3750056   0.0721536   0.2909197  )
        41           I   tau(  41) = (   0.3750108   0.0721490   0.6824324  )
        42           I   tau(  42) = (   0.2500047   0.2886589   0.2909155  )
        43           I   tau(  43) = (   0.2500099   0.2886543   0.6824282  )
        44           I   tau(  44) = (   0.1250038   0.5051641   0.2909113  )
        45           I   tau(  45) = (   0.1250090   0.5051595   0.6824240  )
        46           I   tau(  46) = (   0.0000028   0.7216694   0.2909071  )
        47           I   tau(  47) = (   0.0000081   0.7216648   0.6824197  )
        48           I   tau(  48) = (   0.6250056   0.0721525   0.2909230  )
        49           I   tau(  49) = (   0.6250108   0.0721479   0.6824357  )
        50           I   tau(  50) = (   0.5000047   0.2886578   0.2909188  )
        51           I   tau(  51) = (   0.5000099   0.2886532   0.6824315  )
        52           I   tau(  52) = (   0.3750038   0.5051631   0.2909146  )
        53           I   tau(  53) = (   0.3750090   0.5051585   0.6824273  )
        54           I   tau(  54) = (   0.2500028   0.7216683   0.2909104  )
        55           I   tau(  55) = (   0.2500081   0.7216637   0.6824231  )
        56           I   tau(  56) = (   0.8750056   0.0721515   0.2909264  )
        57           I   tau(  57) = (   0.8750108   0.0721469   0.6824391  )
        58           I   tau(  58) = (   0.7500047   0.2886567   0.2909222  )
        59           I   tau(  59) = (   0.7500099   0.2886521   0.6824348  )
        60           I   tau(  60) = (   0.6250038   0.5051620   0.2909180  )
        61           I   tau(  61) = (   0.6250090   0.5051574   0.6824306  )
        62           I   tau(  62) = (   0.5000028   0.7216673   0.2909137  )
        63           I   tau(  63) = (   0.5000081   0.7216627   0.6824264  )
        64           I   tau(  64) = (  -0.0000018   0.1443297   0.1005933  )
        65           I   tau(  65) = (   0.0000034   0.1443251   0.4921060  )
        66           I   tau(  66) = (  -0.1250027   0.3608350   0.1005891  )
        67           I   tau(  67) = (  -0.1249975   0.3608304   0.4921018  )
        68           I   tau(  68) = (  -0.2500036   0.5773403   0.1005849  )
        69           I   tau(  69) = (  -0.2499984   0.5773357   0.4920975  )
        70           I   tau(  70) = (  -0.3750045   0.7938455   0.1005807  )
        71           I   tau(  71) = (  -0.3749993   0.7938409   0.4920933  )
        72           I   tau(  72) = (   0.2499982   0.1443287   0.1005966  )
        73           I   tau(  73) = (   0.2500034   0.1443241   0.4921093  )
        74           I   tau(  74) = (   0.1249973   0.3608340   0.1005924  )
        75           I   tau(  75) = (   0.1250025   0.3608294   0.4921051  )
        76           I   tau(  76) = (  -0.0000036   0.5773392   0.1005882  )
        77           I   tau(  77) = (   0.0000016   0.5773346   0.4921009  )
        78           I   tau(  78) = (  -0.1250045   0.7938445   0.1005840  )
        79           I   tau(  79) = (  -0.1249993   0.7938399   0.4920967  )
        80           I   tau(  80) = (   0.4999982   0.1443276   0.1006000  )
        81           I   tau(  81) = (   0.5000034   0.1443230   0.4921126  )
        82           I   tau(  82) = (   0.3749973   0.3608329   0.1005958  )
        83           I   tau(  83) = (   0.3750025   0.3608283   0.4921084  )
        84           I   tau(  84) = (   0.2499964   0.5773382   0.1005915  )
        85           I   tau(  85) = (   0.2500016   0.5773336   0.4921042  )
        86           I   tau(  86) = (   0.1249955   0.7938434   0.1005873  )
        87           I   tau(  87) = (   0.1250007   0.7938388   0.4921000  )
        88           I   tau(  88) = (   0.7499982   0.1443266   0.1006033  )
        89           I   tau(  89) = (   0.7500034   0.1443220   0.4921160  )
        90           I   tau(  90) = (   0.6249973   0.3608319   0.1005991  )
        91           I   tau(  91) = (   0.6250025   0.3608273   0.4921118  )
        92           I   tau(  92) = (   0.4999964   0.5773371   0.1005949  )
        93           I   tau(  93) = (   0.5000016   0.5773325   0.4921076  )
        94           I   tau(  94) = (   0.3749955   0.7938424   0.1005907  )
        95           I   tau(  95) = (   0.3750007   0.7938378   0.4921034  )
        96           Pb  tau(  96) = (   0.1250056   0.0721546   0.2909163  )

   Crystallographic axes

     site n.     atom                  positions (cryst. coord.)
         1           Pb  tau(   1) = (  0.2499975  0.2499776  0.9999935  )
         2           Pb  tau(   2) = (  0.2499949  0.2499829  0.4999935  )
         3           Pb  tau(   3) = (  0.2499959  0.4999764  0.9999882  )
         4           Pb  tau(   4) = (  0.2499933  0.4999817  0.4999882  )
         5           Pb  tau(   5) = (  0.2499944  0.7499751  0.9999828  )
         6           Pb  tau(   6) = (  0.2499918  0.7499804  0.4999828  )
         7           Pb  tau(   7) = (  0.2499928  0.9999739  0.9999774  )
         8           Pb  tau(   8) = (  0.2499903  0.9999792  0.4999774  )
         9           Pb  tau(   9) = (  0.4999968  0.2499764  0.9999978  )
        10           Pb  tau(  10) = (  0.4999943  0.2499817  0.4999978  )
        11           Pb  tau(  11) = (  0.4999953  0.4999752  0.9999924  )
        12           Pb  tau(  12) = (  0.4999927  0.4999805  0.4999924  )
        13           Pb  tau(  13) = (  0.4999938  0.7499739  0.9999871  )
        14           Pb  tau(  14) = (  0.4999912  0.7499792  0.4999871  )
        15           Pb  tau(  15) = (  0.4999922  0.9999727  0.9999817  )
        16           Pb  tau(  16) = (  0.4999896  0.9999780  0.4999817  )
        17           Pb  tau(  17) = (  0.7499962  0.2499752  1.0000021  )
        18           Pb  tau(  18) = (  0.7499936  0.2499805  0.5000021  )
        19           Pb  tau(  19) = (  0.7499947  0.4999739  0.9999967  )
        20           Pb  tau(  20) = (  0.7499921  0.4999793  0.4999967  )
        21           Pb  tau(  21) = (  0.7499932  0.7499727  0.9999913  )
        22           Pb  tau(  22) = (  0.7499906  0.7499780  0.4999913  )
        23           Pb  tau(  23) = (  0.7499916  0.9999714  0.9999860  )
        24           Pb  tau(  24) = (  0.7499890  0.9999767  0.4999860  )
        25           Pb  tau(  25) = (  0.9999956  0.2499740  1.0000064  )
        26           Pb  tau(  26) = (  0.9999930  0.2499793  0.5000064  )
        27           Pb  tau(  27) = (  0.9999941  0.4999727  1.0000010  )
        28           Pb  tau(  28) = (  0.9999915  0.4999780  0.5000010  )
        29           Pb  tau(  29) = (  0.9999926  0.7499715  0.9999956  )
        30           Pb  tau(  30) = (  0.9999900  0.7499768  0.4999956  )
        31           Pb  tau(  31) = (  0.9999910  0.9999702  0.9999902  )
        32           Pb  tau(  32) = (  0.9999884  0.9999755  0.4999902  )
        33           I   tau(  33) = (  0.1666667  0.0833117  0.8715286  )
        34           I   tau(  34) = (  0.1666625  0.3333157  0.3715233  )
        35           I   tau(  35) = (  0.1666651  0.3333104  0.8715233  )
        36           I   tau(  36) = (  0.1666610  0.5833145  0.3715179  )
        37           I   tau(  37) = (  0.1666636  0.5833092  0.8715179  )
        38           I   tau(  38) = (  0.1666595  0.8333132  0.3715125  )
        39           I   tau(  39) = (  0.1666621  0.8333079  0.8715125  )
        40           I   tau(  40) = (  0.4166635  0.0833158  0.3715329  )
        41           I   tau(  41) = (  0.4166661  0.0833105  0.8715329  )
        42           I   tau(  42) = (  0.4166619  0.3333145  0.3715275  )
        43           I   tau(  43) = (  0.4166645  0.3333092  0.8715275  )
        44           I   tau(  44) = (  0.4166604  0.5833133  0.3715222  )
        45           I   tau(  45) = (  0.4166630  0.5833080  0.8715221  )
        46           I   tau(  46) = (  0.4166589  0.8333120  0.3715168  )
        47           I   tau(  47) = (  0.4166614  0.8333067  0.8715168  )
        48           I   tau(  48) = (  0.6666629  0.0833146  0.3715372  )
        49           I   tau(  49) = (  0.6666655  0.0833093  0.8715372  )
        50           I   tau(  50) = (  0.6666613  0.3333133  0.3715318  )
        51           I   tau(  51) = (  0.6666639  0.3333080  0.8715318  )
        52           I   tau(  52) = (  0.6666598  0.5833121  0.3715264  )
        53           I   tau(  53) = (  0.6666624  0.5833068  0.8715264  )
        54           I   tau(  54) = (  0.6666582  0.8333108  0.3715210  )
        55           I   tau(  55) = (  0.6666608  0.8333055  0.8715210  )
        56           I   tau(  56) = (  0.9166623  0.0833134  0.3715414  )
        57           I   tau(  57) = (  0.9166648  0.0833080  0.8715414  )
        58           I   tau(  58) = (  0.9166607  0.3333121  0.3715361  )
        59           I   tau(  59) = (  0.9166633  0.3333068  0.8715361  )
        60           I   tau(  60) = (  0.9166592  0.5833108  0.3715307  )
        61           I   tau(  61) = (  0.9166618  0.5833055  0.8715307  )
        62           I   tau(  62) = (  0.9166576  0.8333096  0.3715253  )
        63           I   tau(  63) = (  0.9166602  0.8333043  0.8715253  )
        64           I   tau(  64) = (  0.0833270  0.1666576  0.1284675  )
        65           I   tau(  65) = (  0.0833296  0.1666523  0.6284675  )
        66           I   tau(  66) = (  0.0833255  0.4166564  0.1284621  )
        67           I   tau(  67) = (  0.0833281  0.4166511  0.6284621  )
        68           I   tau(  68) = (  0.0833239  0.6666551  0.1284567  )
        69           I   tau(  69) = (  0.0833265  0.6666498  0.6284567  )
        70           I   tau(  70) = (  0.0833224  0.9166539  0.1284513  )
        71           I   tau(  71) = (  0.0833250  0.9166486  0.6284513  )
        72           I   tau(  72) = (  0.3333264  0.1666564  0.1284717  )
        73           I   tau(  73) = (  0.3333290  0.1666511  0.6284717  )
        74           I   tau(  74) = (  0.3333249  0.4166552  0.1284664  )
        75           I   tau(  75) = (  0.3333275  0.4166499  0.6284663  )
        76           I   tau(  76) = (  0.3333233  0.6666539  0.1284610  )
        77           I   tau(  77) = (  0.3333259  0.6666486  0.6284610  )
        78           I   tau(  78) = (  0.3333218  0.9166527  0.1284556  )
        79           I   tau(  79) = (  0.3333244  0.9166473  0.6284556  )
        80           I   tau(  80) = (  0.5833258  0.1666552  0.1284760  )
        81           I   tau(  81) = (  0.5833284  0.1666499  0.6284760  )
        82           I   tau(  82) = (  0.5833243  0.4166539  0.1284706  )
        83           I   tau(  83) = (  0.5833269  0.4166486  0.6284706  )
        84           I   tau(  84) = (  0.5833227  0.6666527  0.1284652  )
        85           I   tau(  85) = (  0.5833253  0.6666474  0.6284652  )
        86           I   tau(  86) = (  0.5833212  0.9166514  0.1284599  )
        87           I   tau(  87) = (  0.5833238  0.9166461  0.6284599  )
        88           I   tau(  88) = (  0.8333252  0.1666540  0.1284803  )
        89           I   tau(  89) = (  0.8333278  0.1666487  0.6284803  )
        90           I   tau(  90) = (  0.8333237  0.4166527  0.1284749  )
        91           I   tau(  91) = (  0.8333262  0.4166474  0.6284749  )
        92           I   tau(  92) = (  0.8333221  0.6666515  0.1284695  )
        93           I   tau(  93) = (  0.8333247  0.6666462  0.6284695  )
        94           I   tau(  94) = (  0.8333206  0.9166502  0.1284641  )
        95           I   tau(  95) = (  0.8333232  0.9166449  0.6284641  )
        96           Pb  tau(  96) = (  0.1666641  0.0833170  0.3715286  )

     number of k points=     1  Gaussian smearing, width (Ry)=  0.0100
                       cart. coord. in units 2pi/alat
        k(    1) = (   0.0000000   0.0000000   0.0000000), wk =   2.0000000

                       cryst. coord.
        k(    1) = (   0.0000000   0.0000000   0.0000000), wk =   2.0000000

     Dense  grid:  3385235 G-vectors     FFT dimensions: ( 216, 216, 180)

     Smooth grid:  2422379 G-vectors     FFT dimensions: ( 192, 192, 150)

     Dynamical RAM for                 wfc:      47.17 MB

     Dynamical RAM for     wfc (w. buffer):      47.17 MB

     Dynamical RAM for           str. fact:       1.15 MB

     Dynamical RAM for           local pot:       0.00 MB

     Dynamical RAM for          nlocal pot:      88.70 MB

     Dynamical RAM for                qrad:       3.00 MB

     Dynamical RAM for          rho,v,vnew:       3.86 MB

     Dynamical RAM for               rhoin:       1.29 MB

     Dynamical RAM for            rho*nmix:       9.18 MB

     Dynamical RAM for           G-vectors:       2.36 MB

     Dynamical RAM for          h,s,v(r/c):     618.57 MB

     Dynamical RAM for          <psi|beta>:      24.23 MB

     Dynamical RAM for                 psi:     188.69 MB

     Dynamical RAM for                hpsi:     188.69 MB

     Dynamical RAM for                spsi:     188.69 MB

     Dynamical RAM for      wfcinit/wfcrot:     113.68 MB

     Dynamical RAM for           addusdens:     142.92 MB

     Dynamical RAM for          addusforce:     214.63 MB

     Dynamical RAM for         addusstress:     115.37 MB

     Estimated static dynamical RAM per process >     152.81 MB

     Estimated max dynamical RAM per process >       1.34 GB

     Estimated total dynamical RAM >     120.49 GB

     Atomic positions and unit cell read from directory:
     ./PbI2.save/
     Atomic positions from file used, from input discarded
 

     Check: negative core charge=   -0.000001

     The initial density is read from file :
     ./PbI2.save/charge-density



     %%%%%%%%%%%%%%%%%%%%%%%%%%%%%%%%%%%%%%%%%%%%%%%%%%%%%%%%%%%%%%%%%%%%%%%%
     %                                                                      %
     % You are using vdW-DF, which was implemented by the Thonhauser group. %
     % Please cite the following two papers that made this development      %
     % possible and the two reviews that describe the various versions:     %
     %                                                                      %
     %   T. Thonhauser et al., PRL 115, 136402 (2015).                      %
     %   T. Thonhauser et al., PRB 76, 125112 (2007).                       %
     %   K. Berland et al., Rep. Prog. Phys. 78, 066501 (2015).             %
     %   D.C. Langreth et al., J. Phys.: Condens. Matter 21, 084203 (2009). %
     %                                                                      %
     % If you are calculating stress with vdW-DF, please also cite:         %
     %                                                                      %
     %   R. Sabatini et al., J. Phys.: Condens. Matter 24, 424209 (2012).   %
     %                                                                      %
     %%%%%%%%%%%%%%%%%%%%%%%%%%%%%%%%%%%%%%%%%%%%%%%%%%%%%%%%%%%%%%%%%%%%%%%%

     %%%%%%%%%%%%%%%%%%%%%%%%%%%%%%%%%%%%%%%%%%%%%%%%%%%%%%%%%%%%%%%%%%%%%%%%
     %                                                                      %
     %  vdW-DF NEWS:                                                        %
     %                                                                      %
     %  * vdW-DF3 is now available. DOI: 10.1021/acs.jctc.0c00471           %
     %    use with input_dft = 'vdW-DF3-opt1' or 'vdW-DF3-opt2'             %
     %                                                                      %
     %  * Unscreened and range-separated vdW-DF hybrid functionals          %
     %    DOI: 10.1063/1.4986522 and 10.1088/1361-648X/ac2ad2               %
     %    use with input_dft = 'vdW-DF-cx0' (etc) and 'vdW-DF-ahcx'         %
     %                                                                      %
     %%%%%%%%%%%%%%%%%%%%%%%%%%%%%%%%%%%%%%%%%%%%%%%%%%%%%%%%%%%%%%%%%%%%%%%%


     Carrying out vdW-DF run using the following parameters:
     Nqs    =  20  Npoints =  1024  r_max =  100.000
     q_mesh =  0.00001000  0.04494208  0.09755937  0.15916263
               0.23128650  0.31572767  0.41458969  0.53033537
               0.66584808  0.82450364  1.01025438  1.22772762
               1.48234092  1.78043706  2.12944203  2.53805004
               3.01644009  3.57652955  4.23227104  5.00000000


     -----------------------------------------------
     Non-local corr. energy    =      45.71849183 Ry
     -----------------------------------------------

     Wavefunctions not found or not readable, recomputing them from scratch
     Starting wfcs are  864 randomized atomic wfcs +   55 random wfcs
     Checking if some PAW data can be deallocated... 
       PAW data deallocated on   63 nodes for type:  1
       PAW data deallocated on   27 nodes for type:  2

     total cpu time spent up to now is       19.0 secs

     Self-consistent Calculation

     iteration #  1     ecut=    70.00 Ry     beta= 0.70
     Davidson diagonalization with overlap

---- Real-time Memory Report at c_bands before calling an iterative solver
           538 MiB given to the printing process from OS
             0 MiB allocation reported by mallinfo(arena+hblkhd)
       1981406 MiB available memory on the node where the printing process lives
------------------
     ethr =  1.00E-05,  avg # of iterations = 37.0

     Threshold (ethr) on eigenvalues was too large:
     Diagonalizing with lowered threshold

     Davidson diagonalization with overlap

---- Real-time Memory Report at c_bands before calling an iterative solver
          1383 MiB given to the printing process from OS
             0 MiB allocation reported by mallinfo(arena+hblkhd)
       1972972 MiB available memory on the node where the printing process lives
------------------
     c_bands:  5 eigenvalues not converged
     ethr =  1.13E-08,  avg # of iterations = 20.0


     -----------------------------------------------
     Non-local corr. energy    =      45.71857451 Ry
     -----------------------------------------------


     total cpu time spent up to now is      687.2 secs

     total energy              =  -65089.50745925 Ry
     estimated scf accuracy    <       0.00000012 Ry

     iteration #  2     ecut=    70.00 Ry     beta= 0.70
     Davidson diagonalization with overlap

---- Real-time Memory Report at c_bands before calling an iterative solver
          1458 MiB given to the printing process from OS
             0 MiB allocation reported by mallinfo(arena+hblkhd)
       1970821 MiB available memory on the node where the printing process lives
------------------
     c_bands:  5 eigenvalues not converged
     ethr =  7.72E-12,  avg # of iterations = 40.0


     -----------------------------------------------
     Non-local corr. energy    =      45.71854980 Ry
     -----------------------------------------------


     total cpu time spent up to now is     1140.4 secs

     total energy              =  -65089.50745962 Ry
     estimated scf accuracy    <       0.00000065 Ry

     iteration #  3     ecut=    70.00 Ry     beta= 0.70
     Davidson diagonalization with overlap

---- Real-time Memory Report at c_bands before calling an iterative solver
          1484 MiB given to the printing process from OS
             0 MiB allocation reported by mallinfo(arena+hblkhd)
       1970788 MiB available memory on the node where the printing process lives
------------------
     c_bands:  2 eigenvalues not converged
     ethr =  7.72E-12,  avg # of iterations = 20.0


     -----------------------------------------------
     Non-local corr. energy    =      45.71846529 Ry
     -----------------------------------------------


     total cpu time spent up to now is     1465.1 secs

     End of self-consistent calculation

          k = 0.0000 0.0000 0.0000 (302703 PWs)   bands (ev):

   -41.2601 -41.2601 -41.2600 -41.2342 -41.2342 -41.2341 -41.2339 -41.2339
   -41.2338 -41.1605 -41.1604 -41.1604 -41.1601 -41.1601 -41.1600 -40.9596
   -40.9596 -40.9595 -40.9470 -40.9470 -40.9469 -40.9461 -40.9461 -40.9461
   -40.9103 -40.9103 -40.9103 -40.9098 -40.9098 -40.9098 -40.9000 -40.8999
   -40.8999 -40.8999 -40.8999 -40.8999 -40.8920 -40.8919 -40.8919 -40.8919
   -40.8919 -40.8918 -40.8892 -40.8892 -40.8892 -40.8891 -40.8891 -40.8891
   -40.8655 -40.8654 -40.8654 -40.8654 -40.8654 -40.8654 -40.8649 -40.8649
   -40.8649 -40.8649 -40.8648 -40.8648 -40.8360 -40.8360 -40.8360 -40.8249
   -40.8249 -40.8249 -40.8249 -40.8249 -40.8248 -40.8245 -40.8245 -40.8245
   -40.8245 -40.8244 -40.8244 -40.8239 -40.8239 -40.8238 -40.8218 -40.8218
   -40.8217 -40.8159 -40.8159 -40.8159 -40.8159 -40.8159 -40.8159 -40.8118
   -40.8117 -40.8117 -40.8117 -40.8117 -40.8117 -40.8105 -40.8105 -40.8105
   -40.8105 -40.8105 -40.8105 -40.7941 -40.7941 -40.7941 -40.7936 -40.7936
   -40.7936 -40.7894 -40.7894 -40.7894 -40.7881 -40.7881 -40.7881 -40.7877
   -40.7876 -40.7876 -40.7847 -40.7847 -40.7846 -40.7842 -40.7842 -40.7841
   -40.7779 -40.7779 -40.7731 -40.7731 -40.7731 -40.7729 -40.7729 -40.7729
   -40.7707 -40.7707 -40.7707 -40.7695 -40.7695 -40.7694 -40.7692 -40.7691
   -40.7691 -40.7648 -40.7648 -40.7615 -40.7615 -40.7615 -40.7601 -40.7600
   -40.7600 -40.7600 -40.7587 -40.7587 -40.7587 -40.7546 -40.7546 -40.7546
   -40.7540 -40.7540 -40.7540 -40.7470 -40.7470 -40.7469 -40.7468 -40.7468
   -40.7468 -40.7457 -40.7456 -40.7456 -40.7445 -40.7444 -40.7444 -40.7440
   -40.7440 -40.7440 -40.7336 -40.7336 -40.7288 -40.7288 -40.7269 -40.7150
   -40.7150 -40.7150 -40.7141 -40.7141 -40.7141 -40.7057 -40.7057 -40.7057
   -40.7034 -40.7034 -40.7034 -40.7018 -40.7018 -40.7018 -40.6787 -40.6787
   -40.6787 -40.6782 -40.6782 -40.6782 -40.6726 -40.6726 -40.6726 -40.6719
   -40.6719 -40.6719 -40.6708 -40.6708 -40.6708 -40.6573 -40.6572 -40.6572
   -40.6572 -40.6572 -40.6572 -40.6562 -40.6562 -40.6562 -40.6562 -40.6562
   -40.6562 -40.6549 -40.6549 -40.6549 -40.6548 -40.6548 -40.6548 -40.6542
   -40.6542 -40.6542 -40.6541 -40.6541 -40.6541 -40.6507 -40.6507 -40.6507
   -40.6499 -40.6499 -40.6499 -40.6499 -40.6499 -40.6498 -40.6493 -40.6493
   -40.6493 -40.6493 -40.6493 -40.6493 -40.6475 -40.6475 -40.6475 -40.6472
   -40.6472 -40.6472 -40.6453 -40.6453 -40.6453 -40.6430 -40.6430 -40.6383
   -40.6383 -40.6383 -40.6381 -40.6380 -40.6380 -40.6374 -40.6374 -40.6373
   -40.6370 -40.6370 -40.6370 -40.6366 -40.6366 -40.6365 -40.6325 -40.6325
   -40.6325 -40.6312 -40.6311 -40.6311 -40.6309 -40.6309 -40.6309 -40.6309
   -40.6309 -40.6309 -40.6306 -40.6306 -40.6305 -40.6303 -40.6303 -40.6303
   -40.6303 -40.6303 -40.6303 -40.6296 -40.6295 -40.6295 -40.6295 -40.6295
   -40.6295 -40.6292 -40.6292 -40.6292 -40.6292 -40.6292 -40.6292 -40.6290
   -40.6289 -40.6289 -40.6286 -40.6286 -40.6286 -40.6285 -40.6285 -40.6285
   -40.6282 -40.6282 -40.6281 -13.4992 -13.4992 -13.4179 -13.4179 -13.3750
   -13.0601 -13.0600 -13.0583 -13.0452 -13.0451 -13.0447 -13.0375 -13.0375
   -13.0355 -13.0342 -13.0342 -13.0338 -13.0329 -13.0329 -13.0325 -13.0303
   -13.0265 -13.0263 -13.0263 -13.0208 -13.0208 -13.0207 -13.0206 -13.0205
   -13.0152 -13.0131 -13.0131 -13.0109 -13.0109 -13.0093 -12.9461 -12.9461
   -12.9418 -12.9402 -12.9315 -12.9315 -12.9299 -12.9288 -12.9288 -12.9242
   -12.9231 -12.9231 -12.9211 -12.9211 -12.9192 -12.9192 -12.9186 -12.9176
   -12.9139 -12.9115 -12.9115 -12.9075 -12.9075 -12.9056 -12.9050 -12.9050
   -12.9015 -12.9015 -12.9002 -12.8995 -12.8988 -12.8988 -12.8977 -12.8976
   -12.8973 -12.8962 -12.8960 -12.8960 -12.8954 -12.8942 -12.8942 -12.8924
   -12.8924 -12.8921 -12.8906 -12.8905 -12.8905 -12.8895 -12.8895 -12.8891
   -12.8815 -12.8779 -12.8779 -12.8728 -12.8728 -12.8642 -12.8632 -12.8607
   -12.8607 -12.8575 -12.8575 -12.8553 -12.8541 -12.8526 -12.8526 -12.8250
   -12.8215 -12.8215 -12.8174 -12.8174 -12.8159 -12.8127 -12.8127 -12.8102
   -12.8086 -12.8086 -12.8077 -12.8049 -12.8042 -12.8042 -12.8028 -12.8024
   -12.8023 -12.7993 -12.7993 -12.7991 -12.7986 -12.7986 -12.7976 -12.7971
   -12.7956 -12.7956 -12.7953 -12.7953 -12.7935 -12.7870 -12.7870 -12.7865
   -12.7812 -12.7808 -12.7807 -12.7801 -12.7751 -12.7751 -12.7732 -12.7732
   -12.7724 -12.7723 -12.7689 -12.7684 -12.7683 -12.7682 -12.7675 -12.7675
   -12.7672 -12.7660 -12.7652 -12.7652 -12.7648 -12.7635 -12.7633 -12.7633
   -12.7612 -12.7612 -12.7606 -12.7606 -12.7590 -12.7583 -12.7573 -12.7573
    -8.2796  -8.0782  -8.0419  -8.0418  -7.9448  -7.9172  -7.9172  -7.9127
    -7.8900  -7.8900  -7.8341  -7.7929  -7.7928  -7.7393  -7.7379  -7.7379
    -7.7202  -7.7031  -7.7031  -7.6902  -7.6855  -7.6612  -7.6611  -7.6418
    -7.6418  -7.6007  -7.5999  -7.5999  -7.5970  -7.5711  -7.5711  -7.5663
    -7.5515  -7.5511  -7.5511  -7.5325  -7.5186  -7.5186  -7.5148  -7.5069
    -7.5057  -7.5057  -7.4968  -7.4968  -7.4953  -7.4853  -7.4737  -7.4737
    -7.4694  -7.4391  -7.4391  -7.4275  -7.4136  -7.4136  -7.4005  -7.3922
    -7.3922  -7.3688  -7.3688  -7.3673  -7.3550  -7.3550  -7.3539  -4.0309
    -3.7140  -3.7093  -3.7093  -3.6806  -3.6806  -3.6274  -3.6274  -3.6146
    -3.6108  -3.5518  -3.5354  -3.5354  -3.4994  -3.4923  -3.4894  -3.4894
    -3.4776  -3.4776  -3.4439  -3.4227  -3.4227  -3.3708  -3.3566  -3.3566
    -3.3210  -3.2382  -3.2382  -3.2240  -3.2240  -3.2159  -3.1785  -3.0178
     0.8050   0.8050   0.8606   1.0978   1.0978   1.1831   1.1833   1.1833
     1.2027   1.2160   1.2213   1.2213   1.2359   1.2359   1.3333   1.3749
     1.3888   1.3888   1.4290   1.4291   1.4390   1.4482   1.4753   1.4754
     1.4791   1.4791   1.4840   1.5499   1.5499   1.5580   1.5658   1.5658
     1.5735   1.5886   1.5886   1.5919   1.6669   1.6669   1.6808   1.7095
     1.7096   1.7251   1.7251   1.7256   1.7529   1.7529   1.8019   1.8019
     1.8087   1.8386   1.8424   1.8897   1.8897   1.8969   1.9751   2.0300
     2.0300   2.0652   2.0652   2.0819   2.0839   2.0839   2.0973   2.1024
     2.1024   2.1024   2.1151   2.1258   2.1258   2.1830   2.1830   2.1939
     2.1941   2.1942   2.2100   2.2341   2.2342   2.2407   2.2549   2.2550
     2.2552   2.2556   2.3012   2.3355   2.3442   2.3442   2.3561   2.3562
     2.3625   2.3625   2.3802   2.3840   2.3840   2.3996   2.4017   2.4017
     2.4159   2.4681   2.4764   2.4764   2.5294   2.5294   2.5332   2.5486
     2.5486   2.6038   2.6044   2.6044   2.6224   2.6224   2.6477   2.6593
     2.6797   2.6798   2.6949   2.7420   2.7469   2.7469   2.7634   2.7807
     2.7807   2.7998   2.7998   2.8372   2.8466   2.8466   2.8584   2.8584
     2.8741   2.8759   2.8759   2.8912   2.8956   2.8956   2.9025   2.9193
     2.9193   2.9580   2.9580   2.9711   2.9711   2.9824   2.9827   3.0111
     3.0238   3.0238   3.0334   3.0365   3.0365   3.0474   3.0529   3.0529
     3.0578   3.0710   3.0710   3.0737   3.0737   3.0820   3.0853   3.0853
     3.0981   3.1367   3.1367   3.1788   3.1788   3.2069   3.2265   3.2267
     3.2349   3.2367   3.2367   3.2569   3.2569   3.2721   3.2721   3.2724
     3.3499   3.3499   3.3863   3.4076   3.4076   3.4214   3.4510   3.4510
     3.4679   3.4703   3.4707   3.4707   3.5009   5.1733   5.8112   5.8113
     5.9452   6.2565   6.3198   6.4909   6.4909   6.5279   6.5280   6.5370
     6.5989   6.5989   6.6048   6.7429   6.7430   6.7430   6.7657   6.7657
     6.7941   6.7946   6.7947   6.8656   6.8727   6.8727   6.9508   6.9508
     6.9657   6.9925   6.9925   7.0014   7.0024   7.0024   7.0798   7.0798
     7.1477   7.1477   7.1531   7.1649   7.1724   7.2072   7.2072   7.2429
     7.2474   7.2726   7.2726   7.2791   7.2793   7.2793   7.3125   7.3126
     7.3166   7.3323   7.3323   7.3457   7.3514   7.3579   7.3579   7.3726
     7.3736   7.3736   7.4134   7.4134   7.4585   7.4592   7.4592   7.4728
     7.4919   7.4920   7.5081   7.5090   7.5090   7.5217   7.5217   7.5243
     7.5307   7.5485   7.5485   7.5579   7.5580   7.5685   7.5972   7.5972
     7.6276   7.6276   7.6370   7.6465   7.6509   7.6509   7.6688   7.7528
     7.7528   7.7861   7.8100   7.8143   7.8143   8.0866   8.0887   8.0887
     9.2273   9.2273   9.2485   9.7821   9.7983   9.7983   9.8554   9.8734
     9.8734   9.8906   9.9153   9.9153   9.9173  10.0497  10.0887  10.0887
    10.0960  10.0960  10.0975  10.1187  10.1222  10.1265  10.1265  10.1835
    10.1835  10.3370  10.3892  10.3946  10.3946  10.4264  10.4264  10.5038
    10.5079  10.5079  10.5452  10.5523  10.5524  10.5634  10.8340  10.8363
    10.8364  10.8496  10.8556  10.8557  10.9052  10.9544  10.9545  11.0228
    11.0228  11.0319  11.1331  11.1331  11.1494  11.2055  11.2055

     occupation numbers 
     1.0000   1.0000   1.0000   1.0000   1.0000   1.0000   1.0000   1.0000
     1.0000   1.0000   1.0000   1.0000   1.0000   1.0000   1.0000   1.0000
     1.0000   1.0000   1.0000   1.0000   1.0000   1.0000   1.0000   1.0000
     1.0000   1.0000   1.0000   1.0000   1.0000   1.0000   1.0000   1.0000
     1.0000   1.0000   1.0000   1.0000   1.0000   1.0000   1.0000   1.0000
     1.0000   1.0000   1.0000   1.0000   1.0000   1.0000   1.0000   1.0000
     1.0000   1.0000   1.0000   1.0000   1.0000   1.0000   1.0000   1.0000
     1.0000   1.0000   1.0000   1.0000   1.0000   1.0000   1.0000   1.0000
     1.0000   1.0000   1.0000   1.0000   1.0000   1.0000   1.0000   1.0000
     1.0000   1.0000   1.0000   1.0000   1.0000   1.0000   1.0000   1.0000
     1.0000   1.0000   1.0000   1.0000   1.0000   1.0000   1.0000   1.0000
     1.0000   1.0000   1.0000   1.0000   1.0000   1.0000   1.0000   1.0000
     1.0000   1.0000   1.0000   1.0000   1.0000   1.0000   1.0000   1.0000
     1.0000   1.0000   1.0000   1.0000   1.0000   1.0000   1.0000   1.0000
     1.0000   1.0000   1.0000   1.0000   1.0000   1.0000   1.0000   1.0000
     1.0000   1.0000   1.0000   1.0000   1.0000   1.0000   1.0000   1.0000
     1.0000   1.0000   1.0000   1.0000   1.0000   1.0000   1.0000   1.0000
     1.0000   1.0000   1.0000   1.0000   1.0000   1.0000   1.0000   1.0000
     1.0000   1.0000   1.0000   1.0000   1.0000   1.0000   1.0000   1.0000
     1.0000   1.0000   1.0000   1.0000   1.0000   1.0000   1.0000   1.0000
     1.0000   1.0000   1.0000   1.0000   1.0000   1.0000   1.0000   1.0000
     1.0000   1.0000   1.0000   1.0000   1.0000   1.0000   1.0000   1.0000
     1.0000   1.0000   1.0000   1.0000   1.0000   1.0000   1.0000   1.0000
     1.0000   1.0000   1.0000   1.0000   1.0000   1.0000   1.0000   1.0000
     1.0000   1.0000   1.0000   1.0000   1.0000   1.0000   1.0000   1.0000
     1.0000   1.0000   1.0000   1.0000   1.0000   1.0000   1.0000   1.0000
     1.0000   1.0000   1.0000   1.0000   1.0000   1.0000   1.0000   1.0000
     1.0000   1.0000   1.0000   1.0000   1.0000   1.0000   1.0000   1.0000
     1.0000   1.0000   1.0000   1.0000   1.0000   1.0000   1.0000   1.0000
     1.0000   1.0000   1.0000   1.0000   1.0000   1.0000   1.0000   1.0000
     1.0000   1.0000   1.0000   1.0000   1.0000   1.0000   1.0000   1.0000
     1.0000   1.0000   1.0000   1.0000   1.0000   1.0000   1.0000   1.0000
     1.0000   1.0000   1.0000   1.0000   1.0000   1.0000   1.0000   1.0000
     1.0000   1.0000   1.0000   1.0000   1.0000   1.0000   1.0000   1.0000
     1.0000   1.0000   1.0000   1.0000   1.0000   1.0000   1.0000   1.0000
     1.0000   1.0000   1.0000   1.0000   1.0000   1.0000   1.0000   1.0000
     1.0000   1.0000   1.0000   1.0000   1.0000   1.0000   1.0000   1.0000
     1.0000   1.0000   1.0000   1.0000   1.0000   1.0000   1.0000   1.0000
     1.0000   1.0000   1.0000   1.0000   1.0000   1.0000   1.0000   1.0000
     1.0000   1.0000   1.0000   1.0000   1.0000   1.0000   1.0000   1.0000
     1.0000   1.0000   1.0000   1.0000   1.0000   1.0000   1.0000   1.0000
     1.0000   1.0000   1.0000   1.0000   1.0000   1.0000   1.0000   1.0000
     1.0000   1.0000   1.0000   1.0000   1.0000   1.0000   1.0000   1.0000
     1.0000   1.0000   1.0000   1.0000   1.0000   1.0000   1.0000   1.0000
     1.0000   1.0000   1.0000   1.0000   1.0000   1.0000   1.0000   1.0000
     1.0000   1.0000   1.0000   1.0000   1.0000   1.0000   1.0000   1.0000
     1.0000   1.0000   1.0000   1.0000   1.0000   1.0000   1.0000   1.0000
     1.0000   1.0000   1.0000   1.0000   1.0000   1.0000   1.0000   1.0000
     1.0000   1.0000   1.0000   1.0000   1.0000   1.0000   1.0000   1.0000
     1.0000   1.0000   1.0000   1.0000   1.0000   1.0000   1.0000   1.0000
     1.0000   1.0000   1.0000   1.0000   1.0000   1.0000   1.0000   1.0000
     1.0000   1.0000   1.0000   1.0000   1.0000   1.0000   1.0000   1.0000
     1.0000   1.0000   1.0000   1.0000   1.0000   1.0000   1.0000   1.0000
     1.0000   1.0000   1.0000   1.0000   1.0000   1.0000   1.0000   1.0000
     1.0000   1.0000   1.0000   1.0000   1.0000   1.0000   1.0000   1.0000
     1.0000   1.0000   1.0000   1.0000   1.0000   1.0000   1.0000   1.0000
     1.0000   1.0000   1.0000   1.0000   1.0000   1.0000   1.0000   1.0000
     1.0000   1.0000   1.0000   1.0000   1.0000   1.0000   1.0000   1.0000
     1.0000   1.0000   1.0000   1.0000   1.0000   1.0000   1.0000   1.0000
     1.0000   1.0000   1.0000   1.0000   1.0000   1.0000   1.0000   1.0000
     1.0000   1.0000   1.0000   1.0000   1.0000   1.0000   1.0000   1.0000
     1.0000   1.0000   1.0000   1.0000   1.0000   1.0000   1.0000   1.0000
     1.0000   1.0000   1.0000   1.0000   1.0000   1.0000   1.0000   1.0000
     1.0000   1.0000   1.0000   1.0000   1.0000   1.0000   1.0000   1.0000
     1.0000   1.0000   1.0000   1.0000   1.0000   1.0000   1.0000   1.0000
     1.0000   1.0000   1.0000   1.0000   1.0000   1.0000   1.0000   1.0000
     1.0000   1.0000   1.0000   1.0000   1.0000   1.0000   1.0000   1.0000
     1.0000   1.0000   1.0000   1.0000   1.0000   1.0000   1.0000   1.0000
     1.0000   1.0000   1.0000   1.0000   1.0000   1.0000   1.0000   1.0000
     1.0000   1.0000   1.0000   1.0000   1.0000   1.0000   1.0000   1.0000
     1.0000   1.0000   1.0000   1.0000   1.0000   1.0000   1.0000   1.0000
     1.0000   1.0000   1.0000   1.0000   1.0000   1.0000   1.0000   1.0000
     1.0000   1.0000   1.0000   1.0000   1.0000   1.0000   1.0000   1.0000
     1.0000   1.0000   1.0000   1.0000   1.0000   1.0000   1.0000   1.0000
     1.0000   1.0000   1.0000   1.0000   1.0000   1.0000   1.0000   1.0000
     1.0000   1.0000   1.0000   1.0000   1.0000   1.0000   1.0000   1.0000
     1.0000   1.0000   1.0000   1.0000   1.0000   1.0000   1.0000   1.0000
     1.0000   1.0000   1.0000   1.0000   1.0000   1.0000   1.0000   1.0000
     1.0000   1.0000   1.0000   1.0000   1.0000   1.0000   1.0000   1.0000
     1.0000   1.0000   1.0000   1.0000   1.0000   1.0000   1.0000   1.0000
     1.0000   1.0000   1.0000   1.0000   1.0000   1.0000   1.0000   1.0000
     1.0000   1.0000   1.0000   1.0000   1.0000   1.0000   1.0000   1.0000
     1.0000   1.0000   1.0000   1.0000   1.0000   1.0000   1.0000   1.0000
     1.0000   1.0000   1.0000   1.0000   1.0000   1.0000   1.0000   1.0000
     1.0000   1.0000   1.0000   1.0000   1.0000   1.0000   1.0000   1.0000
     1.0000   1.0000   1.0000   1.0000   1.0000   1.0000   1.0000   1.0000
     1.0000   1.0000   1.0000   1.0000   1.0000   1.0000   1.0000   1.0000
     1.0000   1.0000   1.0000   1.0000   1.0000   1.0000   1.0000   1.0000
     1.0000   1.0000   1.0000   1.0000   1.0000   1.0000   1.0000   1.0000
     1.0000   1.0000   1.0000   1.0000   1.0000   1.0000   1.0000   1.0000
     1.0000   1.0000   1.0000   1.0000   1.0000   1.0000   1.0000   1.0000
     1.0000   1.0000   1.0000   1.0000   1.0000   1.0000   1.0000   1.0000
     1.0000   1.0000   1.0000   1.0000   1.0000   1.0000   1.0000   1.0000
     1.0000   1.0000   1.0000   1.0000   1.0000   1.0000   1.0000   1.0000
     1.0000   1.0000   1.0000   1.0000   1.0000   1.0000   1.0000   1.0000
     1.0000   1.0000   1.0000   1.0000   1.0000   0.5000   0.0000   0.0000
     0.0000   0.0000   0.0000   0.0000   0.0000   0.0000   0.0000   0.0000
     0.0000   0.0000   0.0000   0.0000   0.0000   0.0000   0.0000   0.0000
     0.0000   0.0000   0.0000   0.0000   0.0000   0.0000   0.0000   0.0000
     0.0000   0.0000   0.0000   0.0000   0.0000   0.0000   0.0000   0.0000
     0.0000   0.0000   0.0000   0.0000   0.0000   0.0000   0.0000   0.0000
     0.0000   0.0000   0.0000   0.0000   0.0000   0.0000   0.0000   0.0000
     0.0000   0.0000   0.0000   0.0000   0.0000   0.0000   0.0000   0.0000
     0.0000   0.0000   0.0000   0.0000   0.0000   0.0000   0.0000   0.0000
     0.0000   0.0000   0.0000   0.0000   0.0000   0.0000   0.0000   0.0000
     0.0000   0.0000   0.0000   0.0000   0.0000   0.0000   0.0000   0.0000
     0.0000   0.0000   0.0000   0.0000   0.0000   0.0000   0.0000   0.0000
     0.0000   0.0000   0.0000   0.0000   0.0000   0.0000   0.0000   0.0000
     0.0000   0.0000   0.0000   0.0000   0.0000   0.0000   0.0000   0.0000
     0.0000   0.0000   0.0000   0.0000   0.0000   0.0000   0.0000   0.0000
     0.0000   0.0000   0.0000   0.0000   0.0000   0.0000   0.0000   0.0000
     0.0000   0.0000   0.0000   0.0000   0.0000   0.0000   0.0000   0.0000
     0.0000   0.0000   0.0000   0.0000   0.0000   0.0000   0.0000   0.0000
     0.0000   0.0000   0.0000   0.0000   0.0000   0.0000   0.0000   0.0000
     0.0000   0.0000   0.0000   0.0000   0.0000   0.0000   0.0000

     the Fermi energy is     5.1733 ev

!    total energy              =  -65089.50745963 Ry
     total all-electron energy =  -2276515.549112 Ry
     estimated scf accuracy    <       0.00000003 Ry
     smearing contrib. (-TS)   =      -0.00564190 Ry
     internal energy E=F+TS    =  -65089.50181774 Ry

     The total energy is F=E-TS. E is the sum of the following terms:
     one-electron contribution =  -11839.66247110 Ry
     hartree contribution      =    6623.81618356 Ry
     xc contribution           =   -4514.99041323 Ry
     ewald contribution        =   -9844.35773465 Ry
     one-center paw contrib.   =  -45514.30738232 Ry
      -> PAW hartree energy AE =     191.95296129 Ry
      -> PAW hartree energy PS =    -192.42804275 Ry
      -> PAW xc energy AE      =   -1596.86222967 Ry
      -> PAW xc energy PS      =      66.62429225 Ry
      -> total E_H with PAW    =    6623.34110210 Ry
      -> total E_XC with PAW   =   -6045.22835065 Ry

     convergence has been achieved in   3 iterations


     -----------------------------------------------
     Non-local corr. energy    =      45.71846529 Ry
     -----------------------------------------------


     Forces acting on atoms (cartesian axes, Ry/au):

     atom    1 type  1   force =     0.00000039   -0.00020860   -0.00019874
     atom    2 type  1   force =     0.00000064    0.00023948   -0.00028410
     atom    3 type  1   force =    -0.00013390    0.00017364    0.00008469
     atom    4 type  1   force =    -0.00069281    0.00034799   -0.00001643
     atom    5 type  1   force =     0.00008103   -0.00020169    0.00008355
     atom    6 type  1   force =    -0.00004726   -0.00077520   -0.00002044
     atom    7 type  1   force =    -0.00018116    0.00010461   -0.00019753
     atom    8 type  1   force =     0.00020719   -0.00011811   -0.00028356
     atom    9 type  1   force =     0.00058856    0.00034008   -0.00023598
     atom   10 type  1   force =     0.00054584    0.00031538   -0.00018316
     atom   11 type  1   force =     0.00013417    0.00017235    0.00008432
     atom   12 type  1   force =     0.00069350    0.00034797   -0.00001702
     atom   13 type  1   force =     0.00000024   -0.00000034   -0.00012330
     atom   14 type  1   force =    -0.00000034    0.00000041    0.00037053
     atom   15 type  1   force =     0.00021586    0.00002966    0.00008250
     atom   16 type  1   force =     0.00064886    0.00042797   -0.00002051
     atom   17 type  1   force =     0.00000052    0.00022752   -0.00007274
     atom   18 type  1   force =    -0.00000088    0.00001629   -0.00015878
     atom   19 type  1   force =     0.00019583   -0.00011357   -0.00006924
     atom   20 type  1   force =     0.00001379   -0.00000556   -0.00015886
     atom   21 type  1   force =    -0.00008131   -0.00020207    0.00008279
     atom   22 type  1   force =     0.00004706   -0.00077489   -0.00002009
     atom   23 type  1   force =    -0.00021696    0.00002874    0.00008237
     atom   24 type  1   force =    -0.00064841    0.00042673   -0.00001935
     atom   25 type  1   force =    -0.00058949    0.00034002   -0.00023637
     atom   26 type  1   force =    -0.00054691    0.00031607   -0.00018396
     atom   27 type  1   force =    -0.00019619   -0.00011393   -0.00006966
     atom   28 type  1   force =    -0.00001440   -0.00000553   -0.00015813
     atom   29 type  1   force =     0.00000000   -0.00068058   -0.00023735
     atom   30 type  1   force =     0.00000015   -0.00062787   -0.00018312
     atom   31 type  1   force =     0.00018147    0.00010402   -0.00019905
     atom   32 type  1   force =    -0.00020643   -0.00011912   -0.00028444
     atom   33 type  2   force =     0.00000385    0.00000465   -0.00031862
     atom   34 type  2   force =     0.00017561   -0.00009817   -0.00000492
     atom   35 type  2   force =    -0.00000152   -0.00004105   -0.00047857
     atom   36 type  2   force =     0.00011382    0.00006245    0.00048314
     atom   37 type  2   force =     0.00002170    0.00000869    0.00014942
     atom   38 type  2   force =     0.00000978    0.00020122   -0.00001108
     atom   39 type  2   force =    -0.00003699    0.00002080   -0.00047831
     atom   40 type  2   force =    -0.00016791   -0.00010497   -0.00001136
     atom   41 type  2   force =    -0.00003899    0.00002229   -0.00047826
     atom   42 type  2   force =    -0.00017886   -0.00009659   -0.00000743
     atom   43 type  2   force =    -0.00000161   -0.00003997   -0.00048365
     atom   44 type  2   force =    -0.00000011    0.00007002   -0.00022878
     atom   45 type  2   force =     0.00000151   -0.00009740   -0.00006756
     atom   46 type  2   force =     0.00005771   -0.00003495   -0.00023215
     atom   47 type  2   force =    -0.00008245    0.00004599   -0.00006917
     atom   48 type  2   force =     0.00000095   -0.00013029    0.00047509
     atom   49 type  2   force =     0.00000159   -0.00002176    0.00015012
     atom   50 type  2   force =    -0.00020315   -0.00011744    0.00002931
     atom   51 type  2   force =    -0.00020519   -0.00011682    0.00025035
     atom   52 type  2   force =    -0.00011065    0.00006332    0.00047958
     atom   53 type  2   force =    -0.00002081    0.00000774    0.00015371
     atom   54 type  2   force =    -0.00005523   -0.00003238   -0.00023531
     atom   55 type  2   force =     0.00008280    0.00004635   -0.00007114
     atom   56 type  2   force =     0.00016973   -0.00010768   -0.00000991
     atom   57 type  2   force =     0.00003618    0.00002811   -0.00047737
     atom   58 type  2   force =     0.00020196   -0.00011498    0.00001817
     atom   59 type  2   force =     0.00020378   -0.00011310    0.00024967
     atom   60 type  2   force =    -0.00000075    0.00023021    0.00002560
     atom   61 type  2   force =    -0.00000160    0.00023599    0.00024478
     atom   62 type  2   force =    -0.00000768    0.00019712   -0.00001122
     atom   63 type  2   force =     0.00004017    0.00002031   -0.00047534
     atom   64 type  2   force =    -0.00013658    0.00008154    0.00006346
     atom   65 type  2   force =     0.00020782   -0.00011918   -0.00010725
     atom   66 type  2   force =     0.00019061   -0.00016178    0.00024639
     atom   67 type  2   force =     0.00030536   -0.00012121    0.00043797
     atom   68 type  2   force =    -0.00004205    0.00024122    0.00024661
     atom   69 type  2   force =     0.00004561    0.00032620    0.00043847
     atom   70 type  2   force =    -0.00000212   -0.00016669    0.00005429
     atom   71 type  2   force =    -0.00000164    0.00024642   -0.00010277
     atom   72 type  2   force =     0.00013613    0.00008234    0.00006007
     atom   73 type  2   force =    -0.00020894   -0.00012062   -0.00009410
     atom   74 type  2   force =    -0.00000039   -0.00006211    0.00005569
     atom   75 type  2   force =     0.00000173   -0.00008682   -0.00020826
     atom   76 type  2   force =     0.00004938    0.00002846    0.00010375
     atom   77 type  2   force =     0.00010414    0.00005814    0.00004345
     atom   78 type  2   force =    -0.00005708    0.00003113    0.00005845
     atom   79 type  2   force =    -0.00007302    0.00003892   -0.00020436
     atom   80 type  2   force =    -0.00022278   -0.00008541    0.00024323
     atom   81 type  2   force =    -0.00025650   -0.00019975    0.00043999
     atom   82 type  2   force =    -0.00019281   -0.00015302    0.00024697
     atom   83 type  2   force =    -0.00030566   -0.00012047    0.00043838
     atom   84 type  2   force =    -0.00005586    0.00002768    0.00010506
     atom   85 type  2   force =    -0.00010512    0.00006074    0.00004570
     atom   86 type  2   force =     0.00000130   -0.00006285    0.00010306
     atom   87 type  2   force =     0.00000269   -0.00012028    0.00004616
     atom   88 type  2   force =     0.00022722   -0.00008486    0.00024557
     atom   89 type  2   force =     0.00025397   -0.00020035    0.00043072
     atom   90 type  2   force =    -0.00000033   -0.00000251    0.00025108
     atom   91 type  2   force =     0.00000178   -0.00000229   -0.00030097
     atom   92 type  2   force =     0.00004128    0.00024311    0.00024303
     atom   93 type  2   force =    -0.00004848    0.00032448    0.00043301
     atom   94 type  2   force =     0.00005723    0.00003453    0.00005733
     atom   95 type  2   force =     0.00007623    0.00003857   -0.00020847
     atom   96 type  1   force =     0.00000056   -0.00000290    0.00029065
     The non-local contrib.  to forces
     atom    1 type  1   force =    -0.00000523    0.05881241   -0.07004570
     atom    2 type  1   force =     0.00000631    0.10058970    0.07809611
     atom    3 type  1   force =     0.00488439    0.01938389    0.00085218
     atom    4 type  1   force =    -0.01105378    0.01303683   -0.00574311
     atom    5 type  1   force =     0.01923702   -0.00549141    0.00083450
     atom    6 type  1   force =     0.00581051   -0.01611002   -0.00569408
     atom    7 type  1   force =     0.05094692   -0.02940336   -0.06996534
     atom    8 type  1   force =     0.08709176   -0.05031055    0.07804259
     atom    9 type  1   force =     0.08445546    0.04873167   -0.04287101
     atom   10 type  1   force =     0.01085275    0.00624152   -0.00158369
     atom   11 type  1   force =    -0.00487287    0.01938654    0.00085107
     atom   12 type  1   force =     0.01105442    0.01304012   -0.00573911
     atom   13 type  1   force =     0.00000210   -0.00001087   -0.00111258
     atom   14 type  1   force =     0.00000391   -0.00001530   -0.00429022
     atom   15 type  1   force =     0.01435716   -0.01394561    0.00083317
     atom   16 type  1   force =     0.01683294    0.00301731   -0.00569707
     atom   17 type  1   force =    -0.00000142   -0.01860619    0.02729988
     atom   18 type  1   force =     0.00000114    0.00237301    0.00223738
     atom   19 type  1   force =    -0.01606822    0.00928216    0.02730774
     atom   20 type  1   force =     0.00208773   -0.00122855    0.00225411
     atom   21 type  1   force =    -0.01923008   -0.00549438    0.00083649
     atom   22 type  1   force =    -0.00580462   -0.01611765   -0.00570878
     atom   23 type  1   force =    -0.01434810   -0.01394581    0.00083610
     atom   24 type  1   force =    -0.01683242    0.00302503   -0.00571705
     atom   25 type  1   force =    -0.08446417    0.04874420   -0.04289012
     atom   26 type  1   force =    -0.01084528    0.00624215   -0.00159157
     atom   27 type  1   force =     0.01607956    0.00929038    0.02730562
     atom   28 type  1   force =    -0.00207900   -0.00122494    0.00225277
     atom   29 type  1   force =     0.00000706   -0.09747239   -0.04282008
     atom   30 type  1   force =     0.00000549   -0.01257612   -0.00158034
     atom   31 type  1   force =    -0.05094677   -0.02939741   -0.06998206
     atom   32 type  1   force =    -0.08709706   -0.05032216    0.07806241
     atom   33 type  2   force =     0.00000768    0.00000289    0.23618754
     atom   34 type  2   force =     0.00199049   -0.00648948    0.23235042
     atom   35 type  2   force =     0.03124123   -0.01148645    0.25500557
     atom   36 type  2   force =     0.00979006    0.00564813    0.25033907
     atom   37 type  2   force =     0.00551051    0.00317530    0.25648741
     atom   38 type  2   force =    -0.00465169    0.00499167    0.23233579
     atom   39 type  2   force =     0.00564054    0.03281129    0.25499640
     atom   40 type  2   force =    -0.00663267    0.00154942    0.23234503
     atom   41 type  2   force =    -0.02559854   -0.02129614    0.25499817
     atom   42 type  2   force =    -0.00198559   -0.00649800    0.23234397
     atom   43 type  2   force =    -0.03123958   -0.01149225    0.25499874
     atom   44 type  2   force =    -0.00000064    0.00226174    0.24497097
     atom   45 type  2   force =    -0.00000172   -0.00138081    0.25619865
     atom   46 type  2   force =     0.00194853   -0.00113468    0.24497160
     atom   47 type  2   force =    -0.00118547    0.00068104    0.25620413
     atom   48 type  2   force =     0.00000145   -0.01128863    0.25032912
     atom   49 type  2   force =    -0.00000458   -0.00634922    0.25648917
     atom   50 type  2   force =    -0.00380100   -0.00216982    0.24811167
     atom   51 type  2   force =    -0.04070197   -0.02347119    0.26535345
     atom   52 type  2   force =    -0.00979126    0.00565211    0.25033442
     atom   53 type  2   force =    -0.00551157    0.00316865    0.25648802
     atom   54 type  2   force =    -0.00195518   -0.00113648    0.24496771
     atom   55 type  2   force =     0.00118033    0.00068119    0.25619828
     atom   56 type  2   force =     0.00662505    0.00154129    0.23235103
     atom   57 type  2   force =     0.02559062   -0.02129469    0.25500305
     atom   58 type  2   force =     0.00378487   -0.00215810    0.24810669
     atom   59 type  2   force =     0.04069553   -0.02346860    0.26535609
     atom   60 type  2   force =     0.00000099    0.00439507    0.24811096
     atom   61 type  2   force =    -0.00000464    0.04698700    0.26534468
     atom   62 type  2   force =     0.00465499    0.00498340    0.23233557
     atom   63 type  2   force =    -0.00563508    0.03280679    0.25499952
     atom   64 type  2   force =     0.15224366   -0.08787388   -0.07142424
     atom   65 type  2   force =     0.00995248   -0.00574597   -0.24281194
     atom   66 type  2   force =    -0.01727967   -0.00283044   -0.25994578
     atom   67 type  2   force =    -0.00323297   -0.00564420   -0.24284985
     atom   68 type  2   force =    -0.01106790   -0.01355826   -0.25995088
     atom   69 type  2   force =    -0.00650391    0.00003180   -0.24284657
     atom   70 type  2   force =    -0.00001165    0.17575899   -0.07144231
     atom   71 type  2   force =    -0.00000555    0.01153562   -0.24280117
     atom   72 type  2   force =    -0.15224656   -0.08786441   -0.07142357
     atom   73 type  2   force =    -0.00996562   -0.00574848   -0.24279882
     atom   74 type  2   force =    -0.00000133   -0.00463671   -0.25485041
     atom   75 type  2   force =     0.00000161   -0.03488823   -0.24491492
     atom   76 type  2   force =    -0.00909813   -0.00523500   -0.26251784
     atom   77 type  2   force =    -0.00273542   -0.00155985   -0.24350117
     atom   78 type  2   force =    -0.00399981    0.00231863   -0.25485320
     atom   79 type  2   force =    -0.03020170    0.01745348   -0.24491932
     atom   80 type  2   force =     0.00621610    0.01637770   -0.25995430
     atom   81 type  2   force =    -0.00326100    0.00562225   -0.24285039
     atom   82 type  2   force =     0.01727551   -0.00281676   -0.25994341
     atom   83 type  2   force =     0.00323319   -0.00563156   -0.24284689
     atom   84 type  2   force =     0.00909774   -0.00523609   -0.26251591
     atom   85 type  2   force =     0.00273387   -0.00155793   -0.24349861
     atom   86 type  2   force =     0.00000136    0.01051498   -0.26251606
     atom   87 type  2   force =     0.00000132    0.00316642   -0.24349960
     atom   88 type  2   force =    -0.00620600    0.01637424   -0.25995364
     atom   89 type  2   force =     0.00326644    0.00562360   -0.24286008
     atom   90 type  2   force =    -0.00000054   -0.00000980   -0.24897269
     atom   91 type  2   force =    -0.00000382   -0.00001151   -0.23873681
     atom   92 type  2   force =     0.01105877   -0.01355039   -0.25995222
     atom   93 type  2   force =     0.00649532    0.00002996   -0.24285082
     atom   94 type  2   force =     0.00400065    0.00232181   -0.25485511
     atom   95 type  2   force =     0.03021328    0.01745879   -0.24492267
     atom   96 type  1   force =    -0.00000267    0.00002867   -0.12750027
     The ionic contribution  to forces
     atom    1 type  1   force =     0.00039735   -0.66310136   -0.67781640
     atom    2 type  1   force =    -0.00004153   -6.65366164   -3.14572661
     atom    3 type  1   force =    -0.17010432   -0.48503005   -0.36766023
     atom    4 type  1   force =     0.44932568   -0.41708737    0.30749052
     atom    5 type  1   force =    -0.50403576    0.09407657   -0.36592690
     atom    6 type  1   force =    -0.13774781    0.59626002    0.30582181
     atom    7 type  1   force =    -0.57633903    0.33285085   -0.68463191
     atom    8 type  1   force =    -5.76220271    3.32799862   -3.14163328
     atom    9 type  1   force =    -1.98899381   -1.14525319    0.46797700
     atom   10 type  1   force =    -0.96489278   -0.55548524    0.15500423
     atom   11 type  1   force =     0.17038120   -0.48507564   -0.36746386
     atom   12 type  1   force =    -0.44875059   -0.41710607    0.30749977
     atom   13 type  1   force =     0.00027035   -0.00046167   -0.83844920
     atom   14 type  1   force =     0.00031313   -0.00067900    0.54690324
     atom   15 type  1   force =    -0.33355326    0.39034018   -0.36558814
     atom   16 type  1   force =    -0.58532019   -0.17883099    0.30649533
     atom   17 type  1   force =    -0.00002589    0.61706922   -0.67986477
     atom   18 type  1   force =    -0.00026100   -0.07153814    0.26241081
     atom   19 type  1   force =     0.53155228   -0.30817685   -0.68167911
     atom   20 type  1   force =    -0.06397364    0.03674573    0.26093562
     atom   21 type  1   force =     0.50410976    0.09409799   -0.36552092
     atom   22 type  1   force =     0.13753153    0.59634221    0.30659359
     atom   23 type  1   force =     0.33371733    0.39011517   -0.36541209
     atom   24 type  1   force =     0.58553151   -0.17953486    0.30730707
     atom   25 type  1   force =     1.98917411   -1.14621135    0.46972810
     atom   26 type  1   force =     0.96484300   -0.55593135    0.15599313
     atom   27 type  1   force =    -0.53240459   -0.30863222   -0.68141114
     atom   28 type  1   force =     0.06320852    0.03658380    0.26055966
     atom   29 type  1   force =    -0.00074478    2.29355658    0.46414159
     atom   30 type  1   force =    -0.00044982    1.11426336    0.15472601
     atom   31 type  1   force =     0.57598919    0.33216486   -0.68263030
     atom   32 type  1   force =     5.76221991    3.32805680   -3.14288824
     atom   33 type  2   force =     0.00022289    0.00026945  -14.69791241
     atom   34 type  2   force =     0.73315948   -1.21190961  -12.68697627
     atom   35 type  2   force =    -0.84508747    0.17546057  -14.64228040
     atom   36 type  2   force =    -0.24121248   -0.13962543  -13.76471058
     atom   37 type  2   force =    -0.11095250   -0.06589205  -15.25476444
     atom   38 type  2   force =    -0.68224872    1.23750738  -12.68409538
     atom   39 type  2   force =    -0.27228300   -0.81930565  -14.64388285
     atom   40 type  2   force =    -1.41394075   -0.02750379  -12.68451958
     atom   41 type  2   force =     0.57307375    0.64554213  -14.64375477
     atom   42 type  2   force =    -0.73273893   -1.21114758  -12.68670042
     atom   43 type  2   force =     0.84564967    0.17547816  -14.64254345
     atom   44 type  2   force =     0.00042795   -0.40413916  -13.35391187
     atom   45 type  2   force =     0.00043298   -0.04990221  -15.62317406
     atom   46 type  2   force =    -0.34858032    0.20108704  -13.35445095
     atom   47 type  2   force =    -0.04152227    0.02375317  -15.62321279
     atom   48 type  2   force =    -0.00022115    0.27829187  -13.76555225
     atom   49 type  2   force =     0.00014503    0.12835241  -15.25469547
     atom   50 type  2   force =    -0.15511575   -0.08918102  -13.96640825
     atom   51 type  2   force =     1.38557675    0.80129095  -15.29279057
     atom   52 type  2   force =     0.24121745   -0.13986765  -13.76499339
     atom   53 type  2   force =     0.11116550   -0.06584584  -15.25480106
     atom   54 type  2   force =     0.34916341    0.20089679  -13.35427326
     atom   55 type  2   force =     0.04215099    0.02362661  -15.62347391
     atom   56 type  2   force =     1.41525388   -0.02798669  -12.68534510
     atom   57 type  2   force =    -0.57334754    0.64478590  -14.64300043
     atom   58 type  2   force =     0.15493759   -0.08945618  -13.96645893
     atom   59 type  2   force =    -1.38634865    0.80130658  -15.29249050
     atom   60 type  2   force =    -0.00034527    0.17779424  -13.96625391
     atom   61 type  2   force =    -0.00036745   -1.60034234  -15.29260914
     atom   62 type  2   force =     0.68203059    1.23810988  -12.68464822
     atom   63 type  2   force =     0.27176112   -0.81965134  -14.64340094
     atom   64 type  2   force =    -5.81797118    3.36343111    9.25503652
     atom   65 type  2   force =     1.29777143   -0.74885736   11.59840999
     atom   66 type  2   force =     0.79879817   -0.27032884   14.58076770
     atom   67 type  2   force =     0.38724368    0.05392060   14.35849273
     atom   68 type  2   force =     0.16578053    0.82444704   14.58129644
     atom   69 type  2   force =     0.23974202    0.30736042   14.35836152
     atom   70 type  2   force =    -0.00121429   -6.71857565    9.25304258
     atom   71 type  2   force =     0.00013007    1.49775021   11.59937544
     atom   72 type  2   force =     5.81730469    3.36444240    9.25408496
     atom   73 type  2   force =    -1.29732633   -0.74877325   11.59932440
     atom   74 type  2   force =     0.00035741    0.19297102   14.50502038
     atom   75 type  2   force =     0.00039115    1.11010558   14.16024655
     atom   76 type  2   force =     0.05798898    0.03204252   14.45548855
     atom   77 type  2   force =     0.36100532    0.20595607   14.73850594
     atom   78 type  2   force =     0.17024221   -0.09865446   14.50461088
     atom   79 type  2   force =     0.95900518   -0.55399097   14.16064463
     atom   80 type  2   force =    -0.63211112   -0.55538231   14.58122863
     atom   81 type  2   force =    -0.14721449   -0.36058142   14.35791309
     atom   82 type  2   force =    -0.79882586   -0.26994620   14.58090956
     atom   83 type  2   force =    -0.38725266    0.05387257   14.35880425
     atom   84 type  2   force =    -0.05742471    0.03196319   14.45554297
     atom   85 type  2   force =    -0.36029004    0.20610730   14.73855570
     atom   86 type  2   force =     0.00022491   -0.06689384   14.45516773
     atom   87 type  2   force =     0.00049514   -0.41663605   14.73856491
     atom   88 type  2   force =     0.63239651   -0.55555926   14.58103607
     atom   89 type  2   force =     0.14678873   -0.36103412   14.35742031
     atom   90 type  2   force =    -0.00013007   -0.00027611   13.99736277
     atom   91 type  2   force =    -0.00013708   -0.00055750   14.60395034
     atom   92 type  2   force =    -0.16613751    0.82463243   14.58125463
     atom   93 type  2   force =    -0.24025302    0.30724618   14.35816510
     atom   94 type  2   force =    -0.16935407   -0.09855333   14.50444388
     atom   95 type  2   force =    -0.95996031   -0.55500971   14.16030649
     atom   96 type  1   force =    -0.00084350    0.00284016   13.57946553
     The local contribution  to forces
     atom    1 type  1   force =    -0.00039363    0.60510307    0.74638964
     atom    2 type  1   force =     0.00003568    6.55636313    3.06957277
     atom    3 type  1   force =     0.16519496    0.46619578    0.36691993
     atom    4 type  1   force =    -0.43919779    0.40468527   -0.30177704
     atom    5 type  1   force =     0.48525658   -0.08887804    0.36520295
     atom    6 type  1   force =     0.13202004   -0.58126980   -0.30016277
     atom    7 type  1   force =     0.52609316   -0.30385139    0.75312988
     atom    8 type  1   force =     5.67795930   -3.27932846    3.06553181
     atom    9 type  1   force =     1.90681249    1.09783878   -0.42624183
     atom   10 type  1   force =     0.95479181    0.54967962   -0.15357947
     atom   11 type  1   force =    -0.16548412    0.46623630    0.36672460
     atom   12 type  1   force =     0.43862364    0.40470370   -0.30179150
     atom   13 type  1   force =    -0.00027076    0.00047288    0.83940951
     atom   14 type  1   force =    -0.00031599    0.00069485   -0.54216738
     atom   15 type  1   force =     0.31967957   -0.37664477    0.36486309
     atom   16 type  1   force =     0.56950148    0.17630421   -0.30083330
     atom   17 type  1   force =     0.00002902   -0.59857859    0.65304731
     atom   18 type  1   force =     0.00025779    0.06916788   -0.26473409
     atom   19 type  1   force =    -0.51558599    0.29895488    0.65485964
     atom   20 type  1   force =     0.06188654   -0.03551443   -0.26327382
     atom   21 type  1   force =    -0.48534017   -0.08889755    0.36479392
     atom   22 type  1   force =    -0.13181146   -0.58134594   -0.30091937
     atom   23 type  1   force =    -0.31985370   -0.37642213    0.36468494
     atom   24 type  1   force =    -0.56971061    0.17699646   -0.30162295
     atom   25 type  1   force =    -1.90698740    1.09878220   -0.42797601
     atom   26 type  1   force =    -0.95475484    0.55012544   -0.15456098
     atom   27 type  1   force =     0.51642714    0.29940352    0.65459376
     atom   28 type  1   force =    -0.06113188   -0.03535856   -0.26289650
     atom   29 type  1   force =     0.00073681   -2.19871064   -0.42245958
     atom   30 type  1   force =     0.00044388   -1.10255212   -0.15330641
     atom   31 type  1   force =    -0.52574478   -0.30317136    0.75113951
     atom   32 type  1   force =    -5.67797076   -3.27937942    3.06676501
     atom   33 type  2   force =    -0.00023559   -0.00027543   14.46677148
     atom   34 type  2   force =    -0.73498455    1.21837632   12.45975362
     atom   35 type  2   force =     0.81459750   -0.16436811   14.39233970
     atom   36 type  2   force =     0.23177772    0.13418530   13.52061328
     atom   37 type  2   force =     0.10565730    0.06284180   15.00394185
     atom   38 type  2   force =     0.68696252   -1.24235420   12.45689119
     atom   39 type  2   force =     0.26667369    0.78734014   14.39394910
     atom   40 type  2   force =     1.42047529    0.02582236   12.45730655
     atom   41 type  2   force =    -0.54819046   -0.62469826   14.39382113
     atom   42 type  2   force =     0.73456228    1.21762107   12.45948662
     atom   43 type  2   force =    -0.81515826   -0.16437979   14.39261461
     atom   44 type  2   force =    -0.00042666    0.40191387   13.11444071
     atom   45 type  2   force =    -0.00043234    0.05112137   15.37271553
     atom   46 type  2   force =     0.34666737   -0.19996955   13.11498025
     atom   47 type  2   force =     0.04256711   -0.02435283   15.37274697
     atom   48 type  2   force =     0.00021780   -0.26741611   13.52146420
     atom   49 type  2   force =    -0.00014053   -0.12225442   15.00387215
     atom   50 type  2   force =     0.15855752    0.09114273   13.72373216
     atom   51 type  2   force =    -1.34611313   -0.77852662   15.03344902
     atom   52 type  2   force =    -0.23178508    0.13442259   13.52090330
     atom   53 type  2   force =    -0.10586945    0.06280432   15.00397471
     atom   54 type  2   force =    -0.34724485   -0.19977889   13.11481027
     atom   55 type  2   force =    -0.04318962   -0.02422653   15.37301461
     atom   56 type  2   force =    -1.42177953    0.02631437   12.45812512
     atom   57 type  2   force =     0.54847535   -0.62394891   14.39306151
     atom   58 type  2   force =    -0.15836216    0.09140465   13.72379774
     atom   59 type  2   force =     1.34689023   -0.77854876   15.03314832
     atom   60 type  2   force =     0.00034537   -0.18177126   13.72358002
     atom   61 type  2   force =     0.00037230    1.55478514   15.03327846
     atom   62 type  2   force =    -0.68674833   -1.24294236   12.45744438
     atom   63 type  2   force =    -0.26616058    0.78769041   14.39346265
     atom   64 type  2   force =     5.66900024   -3.27743965   -9.18520883
     atom   65 type  2   force =    -1.30727175    0.75434393  -11.36085552
     atom   66 type  2   force =    -0.78175155    0.27299619  -14.32641490
     atom   67 type  2   force =    -0.38363533   -0.04842443  -14.12059994
     atom   68 type  2   force =    -0.15497144   -0.81101113  -14.32694197
     atom   69 type  2   force =    -0.23317741   -0.30699178  -14.12046649
     atom   70 type  2   force =     0.00122447    6.54659755   -9.18320240
     atom   71 type  2   force =    -0.00012462   -1.50876687  -11.36182739
     atom   72 type  2   force =    -5.66833279   -3.27845854   -9.18425990
     atom   73 type  2   force =     1.30683988    0.75426372  -11.36178531
     atom   74 type  2   force =    -0.00035579   -0.18842582  -14.25588466
     atom   75 type  2   force =    -0.00039360   -1.07609704  -13.92079017
     atom   76 type  2   force =    -0.04892774   -0.02683013  -14.19876689
     atom   77 type  2   force =    -0.35821992   -0.20436670  -14.50017845
     atom   78 type  2   force =    -0.16631644    0.09638037  -14.25547515
     atom   79 type  2   force =    -0.92957324    0.53697837  -13.92117896
     atom   80 type  2   force =     0.62586511    0.53928954  -14.32686621
     atom   81 type  2   force =     0.15015780    0.35470835  -14.12002116
     atom   82 type  2   force =     0.78178544    0.27259239  -14.32656057
     atom   83 type  2   force =     0.38364416   -0.04838790  -14.12091211
     atom   84 type  2   force =     0.04836971   -0.02674817  -14.19882568
     atom   85 type  2   force =     0.35750755   -0.20452121  -14.50023223
     atom   86 type  2   force =    -0.00022555    0.05642460  -14.19845153
     atom   87 type  2   force =    -0.00049815    0.41341308  -14.50024274
     atom   88 type  2   force =    -0.62616267    0.53946875  -14.32667602
     atom   89 type  2   force =    -0.14973454    0.35515972  -14.11951567
     atom   90 type  2   force =     0.00013137    0.00028658  -13.75371747
     atom   91 type  2   force =     0.00014001    0.00056920  -14.37082844
     atom   92 type  2   force =     0.15533819   -0.81120327  -14.32689643
     atom   93 type  2   force =     0.23369800   -0.30687411  -14.12026398
     atom   94 type  2   force =     0.16542734    0.09627394  -14.25530840
     atom   95 type  2   force =     0.93051198    0.53799011  -13.92083586
     atom   96 type  1   force =     0.00084547   -0.00287110  -13.45333958
     The core correction contribution to forces
     atom    1 type  1   force =    -0.00000001   -0.00097685    0.00127321
     atom    2 type  1   force =    -0.00000021   -0.00301702   -0.00211085
     atom    3 type  1   force =    -0.00006817   -0.00032135   -0.00002403
     atom    4 type  1   force =     0.00026662   -0.00022844    0.00010928
     atom    5 type  1   force =    -0.00031211    0.00010186   -0.00002344
     atom    6 type  1   force =    -0.00006504    0.00034534    0.00010865
     atom    7 type  1   force =    -0.00084611    0.00048810    0.00127131
     atom    8 type  1   force =    -0.00261196    0.00150830   -0.00210990
     atom    9 type  1   force =    -0.00168528   -0.00097249    0.00091544
     atom   10 type  1   force =    -0.00022382   -0.00012898    0.00005604
     atom   11 type  1   force =     0.00006798   -0.00032133   -0.00002393
     atom   12 type  1   force =    -0.00026664   -0.00022840    0.00010926
     atom   13 type  1   force =     0.00000001    0.00000010    0.00000480
     atom   14 type  1   force =     0.00000001    0.00000003    0.00004121
     atom   15 type  1   force =    -0.00024412    0.00021984   -0.00002336
     atom   16 type  1   force =    -0.00033145   -0.00011631    0.00010870
     atom   17 type  1   force =     0.00000008    0.00030238   -0.00052086
     atom   18 type  1   force =     0.00000007   -0.00003149   -0.00001927
     atom   19 type  1   force =     0.00026136   -0.00015109   -0.00052146
     atom   20 type  1   force =    -0.00002774    0.00001603   -0.00001953
     atom   21 type  1   force =     0.00031208    0.00010190   -0.00002342
     atom   22 type  1   force =     0.00006503    0.00034535    0.00010890
     atom   23 type  1   force =     0.00024417    0.00021993   -0.00002339
     atom   24 type  1   force =     0.00033151   -0.00011639    0.00010902
     atom   25 type  1   force =     0.00168554   -0.00097284    0.00091590
     atom   26 type  1   force =     0.00022367   -0.00012907    0.00005625
     atom   27 type  1   force =    -0.00026142   -0.00015116   -0.00052136
     atom   28 type  1   force =     0.00002769    0.00001579   -0.00001959
     atom   29 type  1   force =    -0.00000014    0.00194492    0.00091412
     atom   30 type  1   force =    -0.00000012    0.00025889    0.00005594
     atom   31 type  1   force =     0.00084614    0.00048802    0.00127176
     atom   32 type  1   force =     0.00261207    0.00150848   -0.00211014
     atom   33 type  2   force =    -0.00000070    0.00000272   -0.00521164
     atom   34 type  2   force =     0.00003521   -0.00004628   -0.00492168
     atom   35 type  2   force =    -0.00071247    0.00038026   -0.00540890
     atom   36 type  2   force =    -0.00019336   -0.00010850   -0.00554866
     atom   37 type  2   force =    -0.00012069   -0.00006640   -0.00536924
     atom   38 type  2   force =    -0.00002228    0.00005233   -0.00492111
     atom   39 type  2   force =    -0.00002712   -0.00080299   -0.00540642
[...]
     atom   15 type  1   force =    -0.00002375    0.00006141    0.00005126
     atom   16 type  1   force =    -0.00003419    0.00005514   -0.00004066
     atom   17 type  1   force =    -0.00000154    0.00004209    0.00001921
     atom   18 type  1   force =     0.00000086    0.00004643   -0.00000010
     atom   19 type  1   force =     0.00003614   -0.00002128    0.00001747
     atom   20 type  1   force =     0.00004064   -0.00002294   -0.00000172
     atom   21 type  1   force =     0.00006684   -0.00000864    0.00005023
     atom   22 type  1   force =     0.00006631    0.00000254   -0.00004092
     atom   23 type  1   force =     0.00002308    0.00006297    0.00005033
     atom   24 type  1   force =     0.00003132    0.00005789   -0.00004192
     atom   25 type  1   force =     0.00000217   -0.00000080    0.00003928
     atom   26 type  1   force =    -0.00001372    0.00001030   -0.00002729
     atom   27 type  1   force =    -0.00003715   -0.00002305    0.00001696
     atom   28 type  1   force =    -0.00003998   -0.00002022   -0.00000096
     atom   29 type  1   force =     0.00000079    0.00000235    0.00004011
     atom   30 type  1   force =     0.00000046   -0.00002047   -0.00002480
     atom   31 type  1   force =     0.00003743    0.00002130    0.00005555
     atom   32 type  1   force =     0.00002914    0.00001857   -0.00005997
     atom   33 type  2   force =     0.00000931    0.00000642   -0.00010008
     atom   34 type  2   force =    -0.00002528   -0.00002772   -0.00015749
     atom   35 type  2   force =    -0.00004057   -0.00002594   -0.00008103
     atom   36 type  2   force =    -0.00004837   -0.00003566   -0.00015645
     atom   37 type  2   force =    -0.00007317   -0.00004855   -0.00009264
     atom   38 type  2   force =    -0.00003031    0.00000544   -0.00016805
     atom   39 type  2   force =    -0.00004136   -0.00002059   -0.00008102
     atom   40 type  2   force =    -0.00001305    0.00003352   -0.00016801
     atom   41 type  2   force =    -0.00000813    0.00004723   -0.00008129
     atom   42 type  2   force =     0.00001838   -0.00002461   -0.00016293
     atom   43 type  2   force =     0.00003488   -0.00002495   -0.00009186
     atom   44 type  2   force =    -0.00000065   -0.00003391   -0.00020065
     atom   45 type  2   force =     0.00000275   -0.00004926   -0.00009274
     atom   46 type  2   force =    -0.00003659    0.00001537   -0.00020480
     atom   47 type  2   force =    -0.00003968    0.00002079   -0.00009382
     atom   48 type  2   force =     0.00000334    0.00005989   -0.00016736
     atom   49 type  2   force =     0.00000219    0.00008985   -0.00009234
     atom   50 type  2   force =    -0.00000206   -0.00000210   -0.00012461
     atom   51 type  2   force =     0.00002649    0.00001051   -0.00009111
     atom   52 type  2   force =     0.00005550   -0.00003341   -0.00016365
     atom   53 type  2   force =     0.00007478   -0.00005141   -0.00008502
     atom   54 type  2   force =     0.00004029    0.00001938   -0.00021201
     atom   55 type  2   force =     0.00003920    0.00002128   -0.00009732
     atom   56 type  2   force =     0.00001284    0.00002991   -0.00016499
     atom   57 type  2   force =     0.00000242    0.00005826   -0.00007877
     atom   58 type  2   force =     0.00000031    0.00000187   -0.00014584
     atom   59 type  2   force =    -0.00002877    0.00001923   -0.00009354
     atom   60 type  2   force =    -0.00000168   -0.00000556   -0.00013065
     atom   61 type  2   force =    -0.00000210   -0.00002563   -0.00009980
     atom   62 type  2   force =     0.00003292   -0.00000528   -0.00016822
     atom   63 type  2   force =     0.00004810   -0.00002120   -0.00007586
     atom   64 type  2   force =    -0.00007323    0.00004409    0.00006428
     atom   65 type  2   force =    -0.00001630    0.00000768    0.00010005
     atom   66 type  2   force =    -0.00001113   -0.00003735    0.00013193
     atom   67 type  2   force =    -0.00005459   -0.00003295    0.00011307
     atom   68 type  2   force =    -0.00003305    0.00000323    0.00013504
     atom   69 type  2   force =    -0.00005897   -0.00003187    0.00011056
     atom   70 type  2   force =    -0.00000251   -0.00009311    0.00005993
     atom   71 type  2   force =    -0.00000136   -0.00001042    0.00010090
     atom   72 type  2   force =     0.00007272    0.00004390    0.00006271
     atom   73 type  2   force =     0.00001541    0.00000472    0.00011651
     atom   74 type  2   force =    -0.00000046   -0.00003563    0.00016527
     atom   75 type  2   force =     0.00000218   -0.00002362    0.00009820
     atom   76 type  2   force =    -0.00001832   -0.00001037    0.00015544
     atom   77 type  2   force =    -0.00004597   -0.00003013    0.00011080
     atom   78 type  2   force =    -0.00003812    0.00001713    0.00017060
     atom   79 type  2   force =    -0.00001448    0.00001166    0.00009738
     atom   80 type  2   force =    -0.00000661    0.00002447    0.00012825
     atom   81 type  2   force =     0.00000204    0.00006796    0.00011675
     atom   82 type  2   force =     0.00000754   -0.00002080    0.00013379
     atom   83 type  2   force =     0.00005416   -0.00003327    0.00011185
     atom   84 type  2   force =     0.00000578   -0.00001256    0.00015885
     atom   85 type  2   force =     0.00004389   -0.00002614    0.00011485
     atom   86 type  2   force =     0.00000080    0.00001295    0.00015726
     atom   87 type  2   force =     0.00000457    0.00005069    0.00011836
     atom   88 type  2   force =     0.00001405    0.00002614    0.00013273
     atom   89 type  2   force =    -0.00000745    0.00006728    0.00010236
     atom   90 type  2   force =    -0.00000085   -0.00000409    0.00012011
     atom   91 type  2   force =     0.00000307   -0.00000361    0.00013061
     atom   92 type  2   force =     0.00003227    0.00000416    0.00012909
     atom   93 type  2   force =     0.00005489   -0.00003512    0.00010196
     atom   94 type  2   force =     0.00003907    0.00002289    0.00017056
     atom   95 type  2   force =     0.00002129    0.00001273    0.00009191
     atom   96 type  1   force =     0.00000110    0.00000090   -0.00000065

     Total force =     0.003799     Total SCF correction =     0.001145
     SCF correction compared to forces is large: reduce conv_thr to get better values


     Computing stress (Cartesian axis) and pressure



     -----------------------------------------------
     Non-local corr. energy    =      45.71846529 Ry
     -----------------------------------------------

          total   stress  (Ry/bohr**3)                   (kbar)     P=       -5.73
  -0.00003928  -0.00000000  -0.00000000           -5.78       -0.00       -0.00
  -0.00000000  -0.00003928   0.00000000           -0.00       -5.78        0.00
  -0.00000000   0.00000000  -0.00003829           -0.00        0.00       -5.63

     kinetic stress (kbar)  15066.41     -0.00     -0.00
                               -0.00  15066.41      0.00
                               -0.00      0.00  15078.51

     local   stress (kbar)  -7336.85     -0.02     -0.01
                               -0.02  -7336.87     -0.01
                               -0.01     -0.01   1273.79

     nonloc. stress (kbar)  -1184.58     -0.00     -0.00
                               -0.00  -1184.58      0.00
                               -0.00      0.00  -1189.15

     hartree stress (kbar)  11900.97      0.01      0.00
                                0.01  11900.98      0.00
                                0.00      0.00   8026.29

     exc-cor stress (kbar)   6914.29      0.00     -0.00
                                0.00   6914.29      0.00
                               -0.00      0.00   6913.21

     corecor stress (kbar) -11262.20     -0.00      0.00
                               -0.00 -11262.20     -0.00
                                0.00     -0.00 -11262.14

     ewald   stress (kbar) -14186.59      0.01      0.00
                                0.01 -14186.57      0.01
                                0.00      0.01 -18930.19

     hubbard stress (kbar)      0.00      0.00      0.00
                                0.00      0.00      0.00
                                0.00      0.00      0.00

     DFT-D   stress (kbar)      0.00      0.00      0.00
                                0.00      0.00      0.00
                                0.00      0.00      0.00

     XDM     stress (kbar)      0.00      0.00      0.00
                                0.00      0.00      0.00
                                0.00      0.00      0.00

     dft-nl  stress (kbar)     82.76     -0.00      0.00
                               -0.00     82.76     -0.00
                                0.00     -0.00     84.04

     TS-vdW  stress (kbar)      0.00      0.00      0.00
                                0.00      0.00      0.00
                                0.00      0.00      0.00

     MDB     stress (kbar)      0.00      0.00      0.00
                                0.00      0.00      0.00
                                0.00      0.00      0.00

     3D-RISM stress (kbar)      0.00      0.00      0.00
                                0.00      0.00      0.00
                                0.00      0.00      0.00


     BFGS Geometry Optimization
     Energy error            =      0.0E+00 Ry
     Gradient error          =      7.8E-04 Ry/Bohr

     bfgs converged in   1 scf cycles and   0 bfgs steps
     (criteria: energy <  1.0E-04 Ry, force <  1.0E-03 Ry/Bohr)

     End of BFGS Geometry Optimization

     Final energy             =  -65089.5074596347 Ry
Begin final coordinates

ATOMIC_POSITIONS (angstrom)
Pb            2.3554203625        4.1802491600       14.6728750210
Pb            2.3553459401        4.0452156886        7.4697644879
Pb            0.0112391810        8.2003897659       14.7719260915
Pb           -0.0078366750        8.1619540972        7.3499146669
Pb           -2.3135672040       12.2270731515       14.7720285680
Pb           -2.3563532299       12.2298531407        7.3498922179
Pb           -4.6229410204       16.2670990847       14.6726257734
Pb           -4.7399435552       16.3347382028        7.4698406750
Pb            7.1858157895        4.1483321295       14.7496726349
Pb            7.0778587924        4.0860416863        7.4089766483
Pb            4.6995344059        8.2004137910       14.7719424966
Pb            4.7185583438        8.1619516969        7.3499283069
Pb            2.3553807714       12.2383111026       14.7293199953
Pb            2.3553823175       12.2383055958        7.3298066296
Pb            0.0305994911       16.2873454277       14.7721485689
Pb            0.0067765049       16.3230070725        7.3500337277
Pb           11.7766910222        4.0465204799       14.8254318265
Pb           11.7766817178        4.0853553739        7.4036860326
Pb            9.3930482530        8.1750306000       14.8251955463
Pb            9.4266449858        8.1556497467        7.4035303165
Pb            7.0243490588       12.2270888502       14.7721062797
Pb            7.0671361143       12.2298606592        7.3499663454
Pb            4.6802168844       16.2873583041       14.7722062737
Pb            4.7039849908       16.3230517073        7.3500939798
Pb           16.3676062656        4.1482973677       14.7497902296
Pb           16.4754538320        4.0860376279        7.4091376099
Pb           14.1603193823        8.1750212512       14.8252192273
Pb           14.1266959664        8.1556390950        7.4034795406
Pb           11.7766797959       12.0997944597       14.7494168717
Pb           11.7766536147       12.2245840714        7.4088895717
Pb            9.3337787294       16.2670927315       14.6727501848
Pb            9.4507070256       16.3347771023        7.4699004062
I             2.3553718791        1.3595368077       12.9336212260
I             0.0325326981        5.3847464425        5.5201711798
I             0.0016463722        5.4225399868       12.9052821318
I            -2.3591180819        9.5163725002        5.4846029948
I            -2.3563940089        9.5180022296       12.8920849641
I            -4.7413685446       13.6536199971        5.5201120434
I            -4.7239489168       13.6075153660       12.9050963007
I             7.0026691953        1.3585324764        5.5201892428
I             7.0511468039        1.3664255940       12.9052259183
I             4.6781195764        5.3847608050        5.5201242542
I             4.7091330613        5.4225797828       12.9052449469
I             2.3553637315        9.5048760825        5.4699505426
I             2.3553738474        9.5073408996       12.8588964955
I            -0.0118353236       13.6050801811        5.4699230090
I            -0.0097557154       13.6039123446       12.8590439655
I            11.7766896766        1.3641023900        5.4848648775
I            11.7766833088        1.3608880962       12.8922621388
I             9.4152390809        5.4355397768        5.5198987195
I             9.3914427945        5.4216334213       12.8915247763
I             7.0698630273        9.5164082276        5.4846748488
I             7.0671343871        9.5180346775       12.8921041194
I             4.7226153315       13.6051115815        5.4699912488
I             4.7205316388       13.6039272352       12.8591034692
I            16.5506136495        1.3585896000        5.5202659736
I            16.5022643883        1.3664076170       12.9053180005
I            14.1381245293        5.4354965995        5.5199171083
I            14.1620483991        5.4215762119       12.8915798387
I            11.7766436946        9.5257186812        5.5198345466
I            11.7766961488        9.5528604671       12.8913746719
I             9.4520887166       13.6536405000        5.5201420089
I             9.4347056180       13.6075550100       12.9051501509
I             0.0473597866        2.6917241488        2.0703363670
I             0.0011170206        2.7188179124        9.3273146705
I            -2.3602990396        6.8021117628        1.9147576112
I            -2.3434842753        6.8082613595        9.2710545501
I            -4.7104510318       10.8724700254        1.9146856384
I            -4.6966738856       10.8840681818        9.2708494994
I            -7.0657730702       15.0121543102        2.0700831645
I            -7.0658980391       14.9591837053        9.3272035326
I             4.6636215357        2.6917064788        2.0702503526
I             4.7096436336        2.7188154910        9.3271713286
I             2.3553741535        6.8029407790        1.8978623488
I             2.3553589391        6.6974159097        9.2329378802
I             0.0132914185       10.8860460265        1.8972814128
I            -0.0041884807       10.8760760707        9.2278898598
I            -2.3518452701       14.9559964977        1.8978947306
I            -2.4429828740       15.0086115585        9.2329662409
I             9.4265653341        2.7222872414        1.9148749172
I             9.4234164580        2.7045346136        9.2710589352
I             7.0710764779        6.8021001069        1.9147234861
I             7.0542175453        6.8081948267        9.2709967999
I             4.6974458279       10.8860513589        1.8973206219
I             4.7149095678       10.8760652889        9.2279075662
I             2.3553753085       14.9427299186        1.8974531235
I             2.3553517238       14.9628763614        9.2279835877
I            14.1267587584        2.7222846389        1.9149239490
I            14.1298492175        2.7045443669        9.2712052295
I            11.7766575103        6.7990271514        1.9047455173
I            11.7766675429        6.7990353451        9.3026058589
I             9.4212262378       10.8724587080        1.9147026188
I             9.4074513369       10.8840658424        9.2709373546
I             7.0626156522       14.9560079938        1.8980079241
I             7.1538039213       15.0086705900        9.2330280457
Pb            2.3555207913        1.3591188268        3.7262881861
End final coordinates



     Writing all to output data dir ./PbI2.save/
 
     init_run     :     16.73s CPU     17.59s WALL (       1 calls)
     electrons    :   1425.73s CPU   1447.95s WALL (       1 calls)
     forces       :      9.65s CPU     10.10s WALL (       1 calls)
     stress       :    157.61s CPU    159.38s WALL (       1 calls)

     Called by init_run:
     wfcinit      :     11.95s CPU     12.31s WALL (       1 calls)
     wfcinit:atom :      0.04s CPU      0.09s WALL (       1 calls)
     wfcinit:wfcr :     11.67s CPU     11.86s WALL (       1 calls)
     potinit      :      1.70s CPU      1.91s WALL (       1 calls)
     hinit0       :      0.61s CPU      0.64s WALL (       1 calls)

     Called by electrons:
     c_bands      :   1403.23s CPU   1423.73s WALL (       4 calls)
     sum_band     :     15.65s CPU     16.49s WALL (       4 calls)
     v_of_rho     :      3.27s CPU      3.40s WALL (       4 calls)
     v_h          :      0.04s CPU      0.04s WALL (       4 calls)
     v_xc         :      4.70s CPU      4.85s WALL (       6 calls)
     newd         :      1.75s CPU      2.38s WALL (       4 calls)
     PAW_pot      :      2.19s CPU      2.21s WALL (       4 calls)
     mix_rho      :      0.06s CPU      0.07s WALL (       4 calls)
     vdW_kernel   :      0.35s CPU      0.36s WALL (       1 calls)

     Called by c_bands:
     init_us_2    :      0.57s CPU      0.66s WALL (       9 calls)
     init_us_2:cp :      0.57s CPU      0.66s WALL (       9 calls)
     cegterg      :   1401.95s CPU   1420.92s WALL (       6 calls)

     Called by sum_band:
     sum_band:wei :      0.00s CPU      0.00s WALL (       4 calls)
     sum_band:loo :     13.53s CPU     13.64s WALL (       4 calls)
     sum_band:buf :      0.00s CPU      0.00s WALL (       4 calls)
     sum_band:ini :      0.40s CPU      0.40s WALL (       4 calls)
     sum_band:cal :      6.65s CPU      6.70s WALL (       4 calls)
     sum_band:bec :      0.07s CPU      0.07s WALL (       4 calls)
     addusdens    :      1.86s CPU      2.57s WALL (       4 calls)
     addusd:skk   :      0.17s CPU      0.18s WALL (       8 calls)
     addusd:dgemm :      0.98s CPU      1.65s WALL (       8 calls)
     addusd:qvan2 :      0.68s CPU      0.69s WALL (       8 calls)

     Called by *egterg:
     cdiaghg      :   1000.36s CPU   1009.98s WALL (     121 calls)
     cegterg:over :     89.15s CPU     91.17s WALL (     117 calls)
     cegterg:upda :     57.22s CPU     58.17s WALL (     117 calls)
     cegterg:last :     40.82s CPU     41.13s WALL (       9 calls)
     h_psi        :    164.95s CPU    167.11s WALL (     124 calls)
     s_psi        :     41.18s CPU     41.53s WALL (     124 calls)
     g_psi        :      0.29s CPU      0.30s WALL (     117 calls)

     Called by h_psi:
     h_psi:calbec :     44.77s CPU     45.19s WALL (     124 calls)
     vloc_psi     :     77.88s CPU     78.60s WALL (     124 calls)
     add_vuspsi   :     41.23s CPU     41.60s WALL (     124 calls)

     General routines
     calbec       :     59.74s CPU     60.30s WALL (     133 calls)
     fft          :      3.05s CPU      3.13s WALL (     420 calls)
     ffts         :      0.07s CPU      0.07s WALL (       8 calls)
     fftw         :     79.79s CPU     80.52s WALL (   48614 calls)
     interpolate  :      0.07s CPU      0.08s WALL (       4 calls)
 
     Parallel routines

     PAW routines
     PAW_pot      :      2.19s CPU      2.21s WALL (       4 calls)
 
     PWSCF        :  26m54.67s CPU  27m25.77s WALL

 
   This run was terminated on:   0: 3:56  24Mar2024            

=------------------------------------------------------------------------------=
   JOB DONE.
=------------------------------------------------------------------------------=
