
     Program PWSCF v.7.1 starts on 24Mar2024 at 19:19:58 

     This program is part of the open-source Quantum ESPRESSO suite
     for quantum simulation of materials; please cite
         "P. Giannozzi et al., J. Phys.:Condens. Matter 21 395502 (2009);
         "P. Giannozzi et al., J. Phys.:Condens. Matter 29 465901 (2017);
         "P. Giannozzi et al., J. Chem. Phys. 152 154105 (2020);
          URL http://www.quantum-espresso.org", 
     in publications or presentations arising from this work. More details at
     http://www.quantum-espresso.org/quote

     Parallel version (MPI & OpenMP), running on      90 processor cores
     Number of MPI processes:                90
     Threads/MPI process:                     1

     MPI processes distributed on     1 nodes
     2010047 MiB available memory on the printing compute node when the environment starts
 
     Reading input from espresso.pwi
Warning: card &CELL ignored
Warning: card    CELL_DYNAMICS    = 'BFGS' ignored
Warning: card / ignored

     Current dimensions of program PWSCF are:
     Max number of different atomic species (ntypx) = 10
     Max number of k-points (npk) =  40000
     Max angular momentum in pseudopotentials (lmaxx) =  4
     file Pb.pbe-dn-kjpaw_psl.1.0.0.UPF: wavefunction(s)  6S 6P 5D renormalized
     file I.pbe-dn-kjpaw_psl.1.0.0.UPF: wavefunction(s)  5S 5P renormalized

     **************************************************************************
     Initializing libbeef V0.1.2 with the BEEF-vdW functional.
     Citation: Wellendorff et al., PRB 85, 235149 (2012).
     **************************************************************************


     IMPORTANT: XC functional enforced from input :
     Exchange-correlation= BEEF-VDW
                           (   1   4  43  14   2   0   0)
     Any further DFT definition will be discarded
     Please, verify this is what you really want

 
     K-points division:     npool     =       2
     R & G space division:  proc/nbgrp/npool/nimage =      45
     Subspace diagonalization in iterative solution of the eigenvalue problem:
     a serial algorithm will be used

 
     Parallelization info
     --------------------
     sticks:   dense  smooth     PW     G-vecs:    dense   smooth      PW
     Min         382     306     79                42328    30286    3973
     Max         383     307     80                42337    30290    3978
     Sum       17215   13777   3559              1904969  1362953  178821
 
     Using Slab Decomposition
 


     bravais-lattice index     =            4
     lattice parameter (alat)  =      26.7090  a.u.
     unit-cell volume          =   17226.5091 (a.u.)^3
     number of atoms/cell      =           54
     number of atomic types    =            2
     number of electrons       =       860.00
     number of Kohn-Sham states=          516
     kinetic-energy cutoff     =      70.0000  Ry
     charge density cutoff     =     350.0000  Ry
     scf convergence threshold =      1.0E-07
     mixing beta               =       0.7000
     number of iterations used =            8  plain     mixing
     Exchange-correlation= BEEF-VDW
                           (   1   4  43  14   2   0   0)

     celldm(1)=  26.709025  celldm(2)=   0.000000  celldm(3)=   1.043981
     celldm(4)=   0.000000  celldm(5)=   0.000000  celldm(6)=   0.000000

     crystal axes: (cart. coord. in units of alat)
               a(1) = (   1.000000   0.000000   0.000000 )  
               a(2) = (  -0.500000   0.866025   0.000000 )  
               a(3) = (   0.000000   0.000000   1.043981 )  

     reciprocal axes: (cart. coord. in units 2 pi/alat)
               b(1) = (  1.000000  0.577350 -0.000000 )  
               b(2) = (  0.000000  1.154701  0.000000 )  
               b(3) = (  0.000000 -0.000000  0.957872 )  


     PseudoPot. # 1 for Pb read from file:
     //group///packages/espresso/pseudo/psl_1.0.0/pslibrary.1.0.0/pbe/PSEUDOPOTENTIALS/Pb.pbe-dn-kjpaw_psl.1.0.0.UPF
     MD5 check sum: 39ab5b8a6bbd56b7735ad9f188aac93a
     Pseudo is Projector augmented-wave + core cor, Zval = 14.0
     Generated using 'atomic' code by A. Dal Corso  v.7.1
     Shape of augmentation charge: PSQ
     Using radial grid of 1281 points,  6 beta functions with: 
                l(1) =   0
                l(2) =   0
                l(3) =   1
                l(4) =   1
                l(5) =   2
                l(6) =   2
     Q(r) pseudized with 0 coefficients 


     PseudoPot. # 2 for I  read from file:
     //group///packages/espresso/pseudo/psl_1.0.0/pslibrary.1.0.0/pbe/PSEUDOPOTENTIALS/I.pbe-dn-kjpaw_psl.1.0.0.UPF
     MD5 check sum: bfa8781bc1224d19af3f3980e3fab11e
     Pseudo is Projector augmented-wave + core cor, Zval = 17.0
     Generated using 'atomic' code by A. Dal Corso  v.7.1
     Shape of augmentation charge: PSQ
     Using radial grid of 1247 points,  6 beta functions with: 
                l(1) =   0
                l(2) =   0
                l(3) =   1
                l(4) =   1
                l(5) =   2
                l(6) =   2
     Q(r) pseudized with 0 coefficients 


     atomic species   valence    mass     pseudopotential
        Pb            14.00   207.20000     Pb( 1.00)
        I             17.00   126.90447     I ( 1.00)

     No symmetry found


                                    s                        frac. trans.

      isym =  1     identity                                     

 cryst.   s( 1) = (     1          0          0      )
                  (     0          1          0      )
                  (     0          0          1      )

 cart.    s( 1) = (  1.0000000  0.0000000  0.0000000 )
                  (  0.0000000  1.0000000  0.0000000 )
                  (  0.0000000  0.0000000  1.0000000 )


     point group C_1 (1)    
     there are  1 classes
     the character table:

       E    
A      1.00

     the symmetry operations in each class and the name of the first element:

     E        1
          identity                                               

   Cartesian axes

     site n.     atom                  positions (alat units)
         1           Pb  tau(   1) = (   0.1666780   0.2886497   1.0439767  )
         2           Pb  tau(   2) = (   0.1666712   0.2886557   0.5219862  )
         3           Pb  tau(   3) = (   0.0000102   0.5773235   1.0439712  )
         4           Pb  tau(   4) = (   0.0000034   0.5773295   0.5219807  )
         5           Pb  tau(   5) = (  -0.1666576   0.8659973   1.0439657  )
         6           Pb  tau(   6) = (  -0.1666644   0.8660033   0.5219752  )
         7           Pb  tau(   7) = (   0.5000113   0.2886484   1.0439810  )
         8           Pb  tau(   8) = (   0.5000045   0.2886544   0.5219905  )
         9           Pb  tau(   9) = (   0.3333436   0.5773222   1.0439755  )
        10           Pb  tau(  10) = (   0.3333367   0.5773282   0.5219850  )
        11           Pb  tau(  11) = (   0.1666758   0.8659960   1.0439700  )
        12           Pb  tau(  12) = (   0.1666690   0.8660020   0.5219795  )
        13           Pb  tau(  13) = (   0.8333447   0.2886471   1.0439853  )
        14           Pb  tau(  14) = (   0.8333379   0.2886531   0.5219949  )
        15           Pb  tau(  15) = (   0.6666769   0.5773209   1.0439798  )
        16           Pb  tau(  16) = (   0.6666701   0.5773269   0.5219894  )
        17           Pb  tau(  17) = (   0.5000091   0.8659947   1.0439743  )
        18           Pb  tau(  18) = (   0.5000023   0.8660007   0.5219839  )
        19           I   tau(  19) = (   0.1666806   0.0962006   0.9099004  )
        20           I   tau(  20) = (   0.0000060   0.3848804   0.3879044  )
        21           I   tau(  21) = (   0.0000129   0.3848744   0.9098949  )
        22           I   tau(  22) = (  -0.1666617   0.6735542   0.3878990  )
        23           I   tau(  23) = (  -0.1666549   0.6735482   0.9098894  )
        24           I   tau(  24) = (   0.5000071   0.0962053   0.3879143  )
        25           I   tau(  25) = (   0.5000140   0.0961993   0.9099047  )
        26           I   tau(  26) = (   0.3333394   0.3848792   0.3879088  )
        27           I   tau(  27) = (   0.3333462   0.3848731   0.9098993  )
        28           I   tau(  28) = (   0.1666716   0.6735530   0.3879033  )
        29           I   tau(  29) = (   0.1666784   0.6735469   0.9098938  )
        30           I   tau(  30) = (   0.8333405   0.0962041   0.3879186  )
        31           I   tau(  31) = (   0.8333473   0.0961980   0.9099091  )
        32           I   tau(  32) = (   0.6666727   0.3848779   0.3879131  )
        33           I   tau(  33) = (   0.6666795   0.3848718   0.9099036  )
        34           I   tau(  34) = (   0.5000049   0.6735517   0.3879076  )
        35           I   tau(  35) = (   0.5000117   0.6735457   0.9098981  )
        36           I   tau(  36) = (  -0.0000023   0.1924396   0.1340740  )
        37           I   tau(  37) = (   0.0000045   0.1924336   0.6560644  )
        38           I   tau(  38) = (  -0.1666701   0.4811134   0.1340685  )
        39           I   tau(  39) = (  -0.1666632   0.4811074   0.6560589  )
        40           I   tau(  40) = (  -0.3333378   0.7697873   0.1340630  )
        41           I   tau(  41) = (  -0.3333310   0.7697812   0.6560534  )
        42           I   tau(  42) = (   0.3333311   0.1924384   0.1340783  )
        43           I   tau(  43) = (   0.3333379   0.1924323   0.6560688  )
        44           I   tau(  44) = (   0.1666633   0.4811122   0.1340728  )
        45           I   tau(  45) = (   0.1666701   0.4811061   0.6560633  )
        46           I   tau(  46) = (  -0.0000045   0.7697860   0.1340673  )
        47           I   tau(  47) = (   0.0000023   0.7697799   0.6560578  )
        48           I   tau(  48) = (   0.6666644   0.1924371   0.1340827  )
        49           I   tau(  49) = (   0.6666712   0.1924310   0.6560731  )
        50           I   tau(  50) = (   0.4999966   0.4811109   0.1340772  )
        51           I   tau(  51) = (   0.5000034   0.4811049   0.6560676  )
        52           I   tau(  52) = (   0.3333288   0.7697847   0.1340717  )
        53           I   tau(  53) = (   0.3333356   0.7697787   0.6560621  )
        54           Pb  tau(  54) = (   0.1666738   0.0962066   0.3879099  )

   Crystallographic axes

     site n.     atom                  positions (cryst. coord.)
         1           Pb  tau(   1) = (  0.3333300  0.3333039  0.9999959  )
         2           Pb  tau(   2) = (  0.3333266  0.3333109  0.4999959  )
         3           Pb  tau(   3) = (  0.3333281  0.6666357  0.9999906  )
         4           Pb  tau(   4) = (  0.3333248  0.6666427  0.4999906  )
         5           Pb  tau(   5) = (  0.3333262  0.9999675  0.9999854  )
         6           Pb  tau(   6) = (  0.3333229  0.9999745  0.4999854  )
         7           Pb  tau(   7) = (  0.6666626  0.3333025  1.0000001  )
         8           Pb  tau(   8) = (  0.6666592  0.3333094  0.5000001  )
         9           Pb  tau(   9) = (  0.6666607  0.6666343  0.9999948  )
        10           Pb  tau(  10) = (  0.6666573  0.6666412  0.4999948  )
        11           Pb  tau(  11) = (  0.6666588  0.9999661  0.9999895  )
        12           Pb  tau(  12) = (  0.6666555  0.9999730  0.4999895  )
        13           Pb  tau(  13) = (  0.9999951  0.3333010  1.0000042  )
        14           Pb  tau(  14) = (  0.9999918  0.3333079  0.5000042  )
        15           Pb  tau(  15) = (  0.9999933  0.6666328  0.9999990  )
        16           Pb  tau(  16) = (  0.9999899  0.6666397  0.4999990  )
        17           Pb  tau(  17) = (  0.9999914  0.9999646  0.9999937  )
        18           Pb  tau(  18) = (  0.9999881  0.9999715  0.4999937  )
        19           I   tau(  19) = (  0.2222221  0.1110829  0.8715680  )
        20           I   tau(  20) = (  0.2222169  0.4444217  0.3715628  )
        21           I   tau(  21) = (  0.2222202  0.4444147  0.8715628  )
        22           I   tau(  22) = (  0.2222150  0.7777534  0.3715575  )
        23           I   tau(  23) = (  0.2222183  0.7777465  0.8715575  )
        24           I   tau(  24) = (  0.5555513  0.1110884  0.3715722  )
        25           I   tau(  25) = (  0.5555547  0.1110814  0.8715722  )
        26           I   tau(  26) = (  0.5555495  0.4444202  0.3715669  )
        27           I   tau(  27) = (  0.5555528  0.4444132  0.8715669  )
        28           I   tau(  28) = (  0.5555476  0.7777520  0.3715617  )
        29           I   tau(  29) = (  0.5555509  0.7777450  0.8715617  )
        30           I   tau(  30) = (  0.8888839  0.1110869  0.3715764  )
        31           I   tau(  31) = (  0.8888873  0.1110799  0.8715764  )
        32           I   tau(  32) = (  0.8888820  0.4444187  0.3715711  )
        33           I   tau(  33) = (  0.8888854  0.4444117  0.8715711  )
        34           I   tau(  34) = (  0.8888802  0.7777505  0.3715658  )
        35           I   tau(  35) = (  0.8888835  0.7777435  0.8715658  )
        36           I   tau(  36) = (  0.1111028  0.2222102  0.1284257  )
        37           I   tau(  37) = (  0.1111061  0.2222032  0.6284257  )
        38           I   tau(  38) = (  0.1111009  0.5555420  0.1284204  )
        39           I   tau(  39) = (  0.1111043  0.5555350  0.6284204  )
        40           I   tau(  40) = (  0.1110991  0.8888738  0.1284152  )
        41           I   tau(  41) = (  0.1111024  0.8888668  0.6284152  )
        42           I   tau(  42) = (  0.4444354  0.2222087  0.1284299  )
        43           I   tau(  43) = (  0.4444387  0.2222017  0.6284299  )
        44           I   tau(  44) = (  0.4444335  0.5555405  0.1284246  )
        45           I   tau(  45) = (  0.4444369  0.5555335  0.6284246  )
        46           I   tau(  46) = (  0.4444316  0.8888723  0.1284193  )
        47           I   tau(  47) = (  0.4444350  0.8888653  0.6284193  )
        48           I   tau(  48) = (  0.7777680  0.2222072  0.1284340  )
        49           I   tau(  49) = (  0.7777713  0.2222002  0.6284340  )
        50           I   tau(  50) = (  0.7777661  0.5555390  0.1284287  )
        51           I   tau(  51) = (  0.7777694  0.5555320  0.6284287  )
        52           I   tau(  52) = (  0.7777642  0.8888708  0.1284235  )
        53           I   tau(  53) = (  0.7777676  0.8888638  0.6284235  )
        54           Pb  tau(  54) = (  0.2222187  0.1110899  0.3715680  )

     number of k points=     4  Gaussian smearing, width (Ry)=  0.0100
                       cart. coord. in units 2pi/alat
        k(    1) = (   0.0000000   0.0000000   0.0000000), wk =   0.5000000
        k(    2) = (   0.0000000  -0.5773503   0.0000000), wk =   0.5000000
        k(    3) = (   0.5000000  -0.2886751   0.0000000), wk =   0.5000000
        k(    4) = (  -0.5000000  -0.2886751   0.0000000), wk =   0.5000000

                       cryst. coord.
        k(    1) = (   0.0000000   0.0000000   0.0000000), wk =   0.5000000
        k(    2) = (   0.0000000  -0.5000000   0.0000000), wk =   0.5000000
        k(    3) = (   0.5000000  -0.5000000   0.0000000), wk =   0.5000000
        k(    4) = (  -0.5000000   0.0000000   0.0000000), wk =   0.5000000

     Dense  grid:  1904969 G-vectors     FFT dimensions: ( 160, 160, 180)

     Smooth grid:  1362953 G-vectors     FFT dimensions: ( 144, 144, 150)

     Dynamical RAM for                 wfc:      29.81 MB

     Dynamical RAM for     wfc (w. buffer):      89.43 MB

     Dynamical RAM for           str. fact:       1.29 MB

     Dynamical RAM for           local pot:       0.00 MB

     Dynamical RAM for          nlocal pot:      56.15 MB

     Dynamical RAM for                qrad:       3.00 MB

     Dynamical RAM for          rho,v,vnew:       4.28 MB

     Dynamical RAM for               rhoin:       1.43 MB

     Dynamical RAM for            rho*nmix:      10.33 MB

     Dynamical RAM for           G-vectors:       2.65 MB

     Dynamical RAM for          h,s,v(r/c):     195.01 MB

     Dynamical RAM for          <psi|beta>:       7.65 MB

     Dynamical RAM for                 psi:     119.24 MB

     Dynamical RAM for                hpsi:     119.24 MB

     Dynamical RAM for                spsi:     119.24 MB

     Dynamical RAM for      wfcinit/wfcrot:      65.72 MB

     Dynamical RAM for           addusdens:      71.70 MB

     Dynamical RAM for          addusforce:      93.79 MB

     Dynamical RAM for         addusstress:      65.07 MB

     Estimated static dynamical RAM per process >     164.08 MB

     Estimated max dynamical RAM per process >     734.79 MB

     Estimated total dynamical RAM >      64.13 GB

     Atomic positions and unit cell read from directory:
     ./PbI2.save/
     Atomic positions from file used, from input discarded
 

     Check: negative core charge=   -0.000001

     The initial density is read from file :
     ./PbI2.save/charge-density



     %%%%%%%%%%%%%%%%%%%%%%%%%%%%%%%%%%%%%%%%%%%%%%%%%%%%%%%%%%%%%%%%%%%%%%%%
     %                                                                      %
     % You are using vdW-DF, which was implemented by the Thonhauser group. %
     % Please cite the following two papers that made this development      %
     % possible and the two reviews that describe the various versions:     %
     %                                                                      %
     %   T. Thonhauser et al., PRL 115, 136402 (2015).                      %
     %   T. Thonhauser et al., PRB 76, 125112 (2007).                       %
     %   K. Berland et al., Rep. Prog. Phys. 78, 066501 (2015).             %
     %   D.C. Langreth et al., J. Phys.: Condens. Matter 21, 084203 (2009). %
     %                                                                      %
     % If you are calculating stress with vdW-DF, please also cite:         %
     %                                                                      %
     %   R. Sabatini et al., J. Phys.: Condens. Matter 24, 424209 (2012).   %
     %                                                                      %
     %%%%%%%%%%%%%%%%%%%%%%%%%%%%%%%%%%%%%%%%%%%%%%%%%%%%%%%%%%%%%%%%%%%%%%%%

     %%%%%%%%%%%%%%%%%%%%%%%%%%%%%%%%%%%%%%%%%%%%%%%%%%%%%%%%%%%%%%%%%%%%%%%%
     %                                                                      %
     %  vdW-DF NEWS:                                                        %
     %                                                                      %
     %  * vdW-DF3 is now available. DOI: 10.1021/acs.jctc.0c00471           %
     %    use with input_dft = 'vdW-DF3-opt1' or 'vdW-DF3-opt2'             %
     %                                                                      %
     %  * Unscreened and range-separated vdW-DF hybrid functionals          %
     %    DOI: 10.1063/1.4986522 and 10.1088/1361-648X/ac2ad2               %
     %    use with input_dft = 'vdW-DF-cx0' (etc) and 'vdW-DF-ahcx'         %
     %                                                                      %
     %%%%%%%%%%%%%%%%%%%%%%%%%%%%%%%%%%%%%%%%%%%%%%%%%%%%%%%%%%%%%%%%%%%%%%%%


     Carrying out vdW-DF run using the following parameters:
     Nqs    =  20  Npoints =  1024  r_max =  100.000
     q_mesh =  0.00001000  0.04494208  0.09755937  0.15916263
               0.23128650  0.31572767  0.41458969  0.53033537
               0.66584808  0.82450364  1.01025438  1.22772762
               1.48234092  1.78043706  2.12944203  2.53805004
               3.01644009  3.57652955  4.23227104  5.00000000


     -----------------------------------------------
     Non-local corr. energy    =      25.57942983 Ry
     -----------------------------------------------

     Starting wfcs from file
     Checking if some PAW data can be deallocated... 
       PAW data deallocated on   53 nodes for type:  1
       PAW data deallocated on   37 nodes for type:  2

     total cpu time spent up to now is       13.3 secs

     Self-consistent Calculation

     iteration #  1     ecut=    70.00 Ry     beta= 0.70
     Davidson diagonalization with overlap

---- Real-time Memory Report at c_bands before calling an iterative solver
           307 MiB given to the printing process from OS
             0 MiB allocation reported by mallinfo(arena+hblkhd)
       1990553 MiB available memory on the node where the printing process lives
------------------
     ethr =  1.00E-05,  avg # of iterations =  1.0

     Threshold (ethr) on eigenvalues was too large:
     Diagonalizing with lowered threshold

     Davidson diagonalization with overlap

---- Real-time Memory Report at c_bands before calling an iterative solver
           655 MiB given to the printing process from OS
             0 MiB allocation reported by mallinfo(arena+hblkhd)
       1984854 MiB available memory on the node where the printing process lives
------------------
     c_bands:  2 eigenvalues not converged
     c_bands:  1 eigenvalues not converged
     ethr =  5.58E-13,  avg # of iterations = 18.5


     -----------------------------------------------
     Non-local corr. energy    =      25.57942902 Ry
     -----------------------------------------------


     total cpu time spent up to now is      149.5 secs

     End of self-consistent calculation

          k = 0.0000 0.0000 0.0000 (170421 PWs)   bands (ev):

   -41.2081 -41.2022 -41.2020 -41.1955 -41.1946 -41.1945 -41.1930 -41.1927
   -41.1870 -41.1861 -41.1813 -41.1812 -41.1808 -41.1807 -41.1247 -41.1243
   -41.1200 -41.1199 -41.1197 -41.1196 -40.9480 -40.9480 -40.9456 -40.9455
   -40.9445 -40.9444 -40.9422 -40.9421 -40.9396 -40.9395 -40.9390 -40.9389
   -40.9386 -40.9385 -40.9368 -40.9367 -40.9358 -40.9357 -40.9213 -40.9212
   -40.9208 -40.9207 -40.9191 -40.9190 -40.9186 -40.9185 -40.9184 -40.9183
   -40.9179 -40.9178 -40.8866 -40.8865 -40.8863 -40.8862 -40.8860 -40.8860
   -40.8834 -40.8828 -40.8773 -40.8773 -40.8762 -40.8758 -40.8750 -40.8750
   -40.8739 -40.8732 -40.8732 -40.8722 -40.8720 -40.8701 -40.8686 -40.8685
   -40.8681 -40.8680 -40.8669 -40.8665 -40.8665 -40.8664 -40.8661 -40.8661
   -40.8659 -40.8659 -40.8651 -40.8649 -40.8646 -40.8593 -40.8593 -40.8583
   -40.8583 -40.8582 -40.6807 -40.6806 -40.6803 -40.6802 -40.6798 -40.6793
   -40.6717 -40.6716 -40.6706 -40.6622 -40.6621 -40.6614 -40.6614 -40.6608
   -40.6600 -40.6175 -40.6174 -40.6153 -40.6151 -40.6143 -40.5277 -40.5276
   -40.5273 -40.5270 -40.5268 -40.5267 -40.5266 -40.5265 -40.5262 -40.5259
   -40.5258 -40.5251 -40.5249 -40.5248 -40.5246 -40.5127 -40.5123 -40.5122
   -40.5120 -40.5120 -40.5119 -40.5118 -40.5118 -40.5117 -40.5116 -40.5115
   -40.5083 -40.5081 -40.5079 -40.5078 -40.5077 -40.5076 -40.4994 -40.4993
   -40.4992 -40.4991 -40.4951 -40.4951 -40.4951 -40.4949 -40.4949 -40.4948
   -40.4920 -40.4920 -40.4917 -40.4917 -40.4904 -40.4902 -40.4872 -40.4870
   -40.4850 -40.4844 -40.4766 -40.4762 -40.4759 -40.4756 -40.4647 -40.4644
   -40.4581 -40.4538 -40.4537 -40.4534 -40.4533 -40.4465 -40.4461 -13.4818
   -13.4813 -13.3179 -13.3166 -13.2502 -13.1540 -13.1410 -13.1386 -13.1260
   -13.1256 -13.1230 -13.1194 -13.1187 -13.1166 -13.1164 -13.1154 -13.1084
   -13.1009 -13.0976 -13.0967 -13.0924 -13.0909 -13.0860 -13.0831 -13.0765
   -13.0758 -13.0741 -13.0729 -13.0722 -13.0665 -13.0659 -13.0653 -13.0627
   -13.0611 -13.0611 -13.0028 -13.0002 -12.9987 -12.9907 -12.9901 -12.9888
   -12.9843 -12.9834 -12.9825 -12.9817 -12.9804 -12.9802 -12.9782 -12.9775
   -12.9755 -12.7184 -12.7093 -12.7072 -12.7035 -12.7022 -12.6968 -12.6966
   -12.6960 -12.6944 -12.6917 -12.6893 -12.6892 -12.6863 -12.6851 -12.6821
   -12.6720 -12.6668 -12.6651 -12.6596 -12.6571 -12.6549 -12.6548 -12.6514
   -12.6493 -12.6482 -12.6470 -12.6463 -12.6458 -12.6425 -12.6409 -12.6379
   -12.6295 -12.6171 -12.6163 -12.6064 -12.6046 -12.6035 -12.5998 -12.5997
   -12.5921 -12.5871 -12.5836 -12.5812 -12.5783 -12.5750  -8.2711  -8.0917
    -7.9982  -7.9975  -7.9587  -7.8821  -7.8819  -7.8111  -7.7929  -7.7752
    -7.7750  -7.7303  -7.6587  -7.6519  -7.6348  -7.6347  -7.6159  -7.6146
    -7.6073  -7.5564  -7.5560  -7.5534  -7.4999  -7.4550  -7.4541  -7.3530
    -7.3242  -7.3221  -7.3033  -7.2507  -7.2499  -7.2386  -7.2270  -7.2087
    -7.2034  -3.9694  -3.8379  -3.8368  -3.6773  -3.6762  -3.6517  -3.5884
    -3.5830  -3.5828  -3.4075  -3.4069  -3.3459  -3.2588  -3.2426  -3.2412
    -3.2190  -3.1313  -3.1218  -2.9253   0.9348   0.9357   1.0867   1.1079
     1.1399   1.1412   1.1636   1.1648   1.1865   1.2108   1.3862   1.3868
     1.4599   1.5014   1.5015   1.5228   1.5383   1.5403   1.6645   1.6674
     1.6687   1.6880   1.7541   1.7542   1.7998   1.8203   1.8204   1.8255
     1.8760   1.8769   1.9040   1.9043   1.9314   1.9701   1.9718   2.0154
     2.1544   2.1571   2.1799   2.2614   2.2716   2.2737   2.3183   2.3597
     2.3642   2.3703   2.3839   2.3848   2.4053   2.4217   2.4221   2.5072
     2.5074   2.5567   2.5648   2.5662   2.5819   2.5839   2.6152   2.6169
     2.6525   2.6528   2.6718   2.6880   2.6908   2.7039   2.7084   2.7897
     2.8078   2.8096   2.8125   2.8653   2.8661   2.8684   2.8844   2.8869
     3.0357   3.0368   3.0433   3.0446   3.0620   3.0624   3.0863   3.1022
     3.1182   3.1190   3.1219   3.1243   3.1307   3.1308   3.1717   3.1775
     3.1777   3.2274   3.2354   3.2388   3.2649   3.3249   3.3262   3.4057
     3.4161   3.4182   3.4989   3.5433   3.5447   4.8178   5.4976   5.5045
     5.8655   6.1984   6.3971   6.4643   6.4666   6.5500   6.5501   6.5596
     6.6812   6.6875   6.7843   6.8543   6.8581   6.9409   6.9995   7.0011
     7.0286   7.0290   7.0383   7.0938   7.0972   7.1602   7.1622   7.1890
     7.1959   7.1979   7.2114   7.2420   7.3473   7.3501   7.4352   7.4526
     7.4555   7.5044   7.5363   7.5486   7.5511   7.6148   7.6168   7.6346
     7.6590   7.6598   7.6798   7.7283   7.7329   7.7848   7.7971   7.7988
     7.8349   7.9259   7.9283   7.9316   8.0473   8.0486   9.4104   9.4105
     9.4679   9.4866   9.5486   9.5515   9.8806   9.9055   9.9978  10.0003
    10.0497  10.1068  10.1132  10.2998  10.3001  10.5064  10.8235  10.8256
    10.8768  10.9550  10.9611  10.9992  11.0470  11.0522  11.0637  11.0960
    11.1282  11.1305  11.1528  11.1621

     occupation numbers 
     1.0000   1.0000   1.0000   1.0000   1.0000   1.0000   1.0000   1.0000
     1.0000   1.0000   1.0000   1.0000   1.0000   1.0000   1.0000   1.0000
     1.0000   1.0000   1.0000   1.0000   1.0000   1.0000   1.0000   1.0000
     1.0000   1.0000   1.0000   1.0000   1.0000   1.0000   1.0000   1.0000
     1.0000   1.0000   1.0000   1.0000   1.0000   1.0000   1.0000   1.0000
     1.0000   1.0000   1.0000   1.0000   1.0000   1.0000   1.0000   1.0000
     1.0000   1.0000   1.0000   1.0000   1.0000   1.0000   1.0000   1.0000
     1.0000   1.0000   1.0000   1.0000   1.0000   1.0000   1.0000   1.0000
     1.0000   1.0000   1.0000   1.0000   1.0000   1.0000   1.0000   1.0000
     1.0000   1.0000   1.0000   1.0000   1.0000   1.0000   1.0000   1.0000
     1.0000   1.0000   1.0000   1.0000   1.0000   1.0000   1.0000   1.0000
     1.0000   1.0000   1.0000   1.0000   1.0000   1.0000   1.0000   1.0000
     1.0000   1.0000   1.0000   1.0000   1.0000   1.0000   1.0000   1.0000
     1.0000   1.0000   1.0000   1.0000   1.0000   1.0000   1.0000   1.0000
     1.0000   1.0000   1.0000   1.0000   1.0000   1.0000   1.0000   1.0000
     1.0000   1.0000   1.0000   1.0000   1.0000   1.0000   1.0000   1.0000
     1.0000   1.0000   1.0000   1.0000   1.0000   1.0000   1.0000   1.0000
     1.0000   1.0000   1.0000   1.0000   1.0000   1.0000   1.0000   1.0000
     1.0000   1.0000   1.0000   1.0000   1.0000   1.0000   1.0000   1.0000
     1.0000   1.0000   1.0000   1.0000   1.0000   1.0000   1.0000   1.0000
     1.0000   1.0000   1.0000   1.0000   1.0000   1.0000   1.0000   1.0000
     1.0000   1.0000   1.0000   1.0000   1.0000   1.0000   1.0000   1.0000
     1.0000   1.0000   1.0000   1.0000   1.0000   1.0000   1.0000   1.0000
     1.0000   1.0000   1.0000   1.0000   1.0000   1.0000   1.0000   1.0000
     1.0000   1.0000   1.0000   1.0000   1.0000   1.0000   1.0000   1.0000
     1.0000   1.0000   1.0000   1.0000   1.0000   1.0000   1.0000   1.0000
     1.0000   1.0000   1.0000   1.0000   1.0000   1.0000   1.0000   1.0000
     1.0000   1.0000   1.0000   1.0000   1.0000   1.0000   1.0000   1.0000
     1.0000   1.0000   1.0000   1.0000   1.0000   1.0000   1.0000   1.0000
     1.0000   1.0000   1.0000   1.0000   1.0000   1.0000   1.0000   1.0000
     1.0000   1.0000   1.0000   1.0000   1.0000   1.0000   1.0000   1.0000
     1.0000   1.0000   1.0000   1.0000   1.0000   1.0000   1.0000   1.0000
     1.0000   1.0000   1.0000   1.0000   1.0000   1.0000   1.0000   1.0000
     1.0000   1.0000   1.0000   1.0000   1.0000   1.0000   1.0000   1.0000
     1.0000   1.0000   1.0000   1.0000   1.0000   1.0000   1.0000   1.0000
     1.0000   1.0000   1.0000   1.0000   1.0000   1.0000   1.0000   1.0000
     1.0000   1.0000   1.0000   1.0000   1.0000   1.0000   1.0000   1.0000
     1.0000   1.0000   1.0000   1.0000   1.0000   1.0000   1.0000   1.0000
     1.0000   1.0000   1.0000   1.0000   1.0000   1.0000   1.0000   1.0000
     1.0000   1.0000   1.0000   1.0000   1.0000   1.0000   1.0000   1.0000
     1.0000   1.0000   1.0000   1.0000   1.0000   1.0000   1.0000   1.0000
     1.0000   1.0000   1.0000   1.0000   1.0000   1.0000   1.0000   1.0000
     1.0000   1.0000   1.0000   1.0000   1.0000   1.0000   1.0000   1.0000
     1.0000   1.0000   1.0000   1.0000   1.0000   1.0000   1.0000   1.0000
     1.0000   1.0000   1.0000   1.0000   1.0000   1.0000   1.0000   1.0000
     1.0000   1.0000   1.0000   1.0000   1.0000   1.0000   1.0000   1.0000
     1.0000   1.0000   1.0000   1.0000   1.0000   1.0000   1.0000   1.0000
     1.0000   1.0000   1.0000   1.0000   1.0000   1.0000   1.0000   1.0000
     1.0000   1.0000   1.0000   1.0000   1.0000   1.0000   1.0000   1.0000
     1.0000   1.0000   1.0000   1.0000   1.0000   1.0000   1.0000   1.0000
     1.0000   1.0000   1.0000   1.0000   1.0000   1.0000   1.0000   1.0000
     1.0000   1.0000   1.0000   1.0000   1.0000   1.0000   1.0000   1.0000
     1.0000   1.0000   1.0000   1.0000   1.0000   1.0000   1.0000   1.0000
     1.0000   1.0000   1.0000   1.0000   1.0000   0.9999   0.0004   0.0003
     0.0000   0.0000   0.0000   0.0000   0.0000   0.0000   0.0000   0.0000
     0.0000   0.0000   0.0000   0.0000   0.0000   0.0000   0.0000   0.0000
     0.0000   0.0000   0.0000   0.0000   0.0000   0.0000   0.0000   0.0000
     0.0000   0.0000   0.0000   0.0000   0.0000   0.0000   0.0000   0.0000
     0.0000   0.0000   0.0000   0.0000   0.0000   0.0000   0.0000   0.0000
     0.0000   0.0000   0.0000   0.0000   0.0000   0.0000   0.0000   0.0000
     0.0000   0.0000   0.0000   0.0000   0.0000   0.0000   0.0000   0.0000
     0.0000   0.0000   0.0000   0.0000   0.0000   0.0000   0.0000   0.0000
     0.0000   0.0000   0.0000   0.0000   0.0000   0.0000   0.0000   0.0000
     0.0000   0.0000   0.0000   0.0000   0.0000   0.0000   0.0000   0.0000
     0.0000   0.0000   0.0000   0.0000

          k = 0.0000-0.5774 0.0000 (170366 PWs)   bands (ev):

   -41.2081 -41.2022 -41.2020 -41.1955 -41.1946 -41.1945 -41.1930 -41.1927
   -41.1870 -41.1861 -41.1813 -41.1812 -41.1808 -41.1807 -41.1247 -41.1243
   -41.1200 -41.1199 -41.1197 -41.1196 -40.9480 -40.9480 -40.9456 -40.9455
   -40.9445 -40.9444 -40.9422 -40.9421 -40.9396 -40.9395 -40.9390 -40.9389
   -40.9386 -40.9385 -40.9368 -40.9367 -40.9358 -40.9357 -40.9213 -40.9212
   -40.9208 -40.9207 -40.9191 -40.9190 -40.9186 -40.9185 -40.9184 -40.9183
   -40.9179 -40.9178 -40.8866 -40.8865 -40.8863 -40.8862 -40.8860 -40.8860
   -40.8834 -40.8828 -40.8773 -40.8773 -40.8762 -40.8758 -40.8750 -40.8750
   -40.8739 -40.8732 -40.8732 -40.8722 -40.8720 -40.8701 -40.8686 -40.8685
   -40.8681 -40.8680 -40.8669 -40.8665 -40.8665 -40.8664 -40.8661 -40.8661
   -40.8659 -40.8659 -40.8651 -40.8649 -40.8646 -40.8593 -40.8593 -40.8583
   -40.8583 -40.8582 -40.6807 -40.6806 -40.6803 -40.6802 -40.6798 -40.6793
   -40.6717 -40.6716 -40.6706 -40.6622 -40.6621 -40.6614 -40.6614 -40.6608
   -40.6600 -40.6175 -40.6174 -40.6153 -40.6151 -40.6143 -40.5277 -40.5276
   -40.5273 -40.5270 -40.5268 -40.5267 -40.5266 -40.5265 -40.5262 -40.5259
   -40.5258 -40.5251 -40.5249 -40.5248 -40.5246 -40.5127 -40.5123 -40.5122
   -40.5120 -40.5120 -40.5119 -40.5118 -40.5118 -40.5117 -40.5116 -40.5115
   -40.5083 -40.5081 -40.5079 -40.5078 -40.5077 -40.5076 -40.4994 -40.4993
   -40.4992 -40.4991 -40.4951 -40.4951 -40.4951 -40.4949 -40.4949 -40.4948
   -40.4920 -40.4920 -40.4917 -40.4917 -40.4904 -40.4902 -40.4872 -40.4870
   -40.4850 -40.4844 -40.4766 -40.4762 -40.4759 -40.4756 -40.4647 -40.4644
   -40.4581 -40.4538 -40.4537 -40.4534 -40.4533 -40.4465 -40.4461 -13.4818
   -13.4813 -13.3179 -13.3166 -13.2502 -13.1543 -13.1410 -13.1383 -13.1259
   -13.1254 -13.1226 -13.1193 -13.1188 -13.1168 -13.1166 -13.1155 -13.1084
   -13.1009 -13.0976 -13.0967 -13.0924 -13.0910 -13.0863 -13.0835 -13.0765
   -13.0757 -13.0737 -13.0727 -13.0721 -13.0663 -13.0658 -13.0652 -13.0629
   -13.0614 -13.0611 -13.0025 -13.0002 -12.9986 -12.9908 -12.9902 -12.9890
   -12.9844 -12.9834 -12.9825 -12.9818 -12.9804 -12.9802 -12.9781 -12.9775
   -12.9754 -12.7188 -12.7091 -12.7074 -12.7032 -12.7021 -12.6967 -12.6965
   -12.6959 -12.6945 -12.6920 -12.6895 -12.6893 -12.6862 -12.6851 -12.6820
   -12.6712 -12.6667 -12.6649 -12.6605 -12.6575 -12.6552 -12.6549 -12.6513
   -12.6495 -12.6482 -12.6469 -12.6461 -12.6456 -12.6424 -12.6407 -12.6379
   -12.6296 -12.6171 -12.6163 -12.6064 -12.6046 -12.6036 -12.5998 -12.5996
   -12.5922 -12.5870 -12.5837 -12.5811 -12.5783 -12.5749  -8.2138  -8.1681
    -8.0329  -8.0140  -7.9480  -7.8796  -7.8574  -7.7688  -7.7461  -7.7328
    -7.7257  -7.7153  -7.7073  -7.6998  -7.6959  -7.6571  -7.6338  -7.6126
    -7.6052  -7.5964  -7.5768  -7.5637  -7.4684  -7.4054  -7.3823  -7.3454
    -7.3338  -7.3319  -7.3022  -7.2833  -7.2670  -7.2332  -7.2193  -7.2135
    -7.2001  -3.9897  -3.7992  -3.7830  -3.7642  -3.7451  -3.7197  -3.5693
    -3.5525  -3.4410  -3.3875  -3.3739  -3.3556  -3.3480  -3.3020  -3.2569
    -3.2088  -3.1011  -3.0511  -2.9557   0.7717   0.8692   0.9410   1.0049
     1.0383   1.2946   1.3294   1.3471   1.3930   1.4547   1.4568   1.4608
     1.4685   1.4917   1.4968   1.5074   1.5246   1.5291   1.6529   1.7007
     1.7124   1.7359   1.7471   1.7767   1.7899   1.8046   1.8303   1.8416
     1.8567   1.8860   1.9193   1.9472   1.9949   2.0049   2.0626   2.0660
     2.1156   2.1415   2.1458   2.1573   2.1801   2.1977   2.2072   2.2232
     2.2630   2.2841   2.3210   2.3341   2.3419   2.3961   2.4080   2.4647
     2.4851   2.4922   2.5119   2.5180   2.5304   2.5432   2.5924   2.6036
     2.6181   2.6532   2.6550   2.6631   2.6853   2.6878   2.7007   2.7176
     2.7796   2.7981   2.8320   2.8637   2.8678   2.8882   2.9379   2.9469
     2.9487   2.9608   2.9754   3.0022   3.0045   3.0394   3.0794   3.1189
     3.1232   3.1346   3.1422   3.1588   3.1834   3.1997   3.2014   3.2139
     3.2477   3.2539   3.2582   3.2768   3.2918   3.3384   3.3534   3.4070
     3.4618   3.5038   3.5504   3.5751   3.5857   4.8881   5.4666   5.4994
     6.2277   6.3601   6.4470   6.5107   6.6622   6.7108   6.7188   6.7331
     6.7589   6.8086   6.8591   6.8676   6.9014   6.9179   6.9369   6.9460
     6.9827   6.9847   7.0597   7.0638   7.1232   7.1494   7.1580   7.1938
     7.2043   7.2177   7.2933   7.3004   7.3065   7.3076   7.3117   7.3402
     7.3539   7.3792   7.3908   7.4346   7.4405   7.4567   7.5241   7.5540
     7.5757   7.5832   7.6074   7.6126   7.6194   7.6898   7.6964   7.7673
     7.7909   7.9289   7.9340   7.9952   8.0378   8.0924   9.1910   9.6105
     9.6301   9.6986   9.7330   9.8986   9.9852  10.0553  10.1609  10.2042
    10.2696  10.2797  10.3132  10.3299  10.3371  10.3586  10.3745  10.4097
    10.4814  10.5465  10.7406  10.7627  10.8013  10.8590  10.8910  10.9158
    10.9300  10.9784  11.0040  11.0142

     occupation numbers 
     1.0000   1.0000   1.0000   1.0000   1.0000   1.0000   1.0000   1.0000
     1.0000   1.0000   1.0000   1.0000   1.0000   1.0000   1.0000   1.0000
     1.0000   1.0000   1.0000   1.0000   1.0000   1.0000   1.0000   1.0000
     1.0000   1.0000   1.0000   1.0000   1.0000   1.0000   1.0000   1.0000
     1.0000   1.0000   1.0000   1.0000   1.0000   1.0000   1.0000   1.0000
     1.0000   1.0000   1.0000   1.0000   1.0000   1.0000   1.0000   1.0000
     1.0000   1.0000   1.0000   1.0000   1.0000   1.0000   1.0000   1.0000
     1.0000   1.0000   1.0000   1.0000   1.0000   1.0000   1.0000   1.0000
     1.0000   1.0000   1.0000   1.0000   1.0000   1.0000   1.0000   1.0000
     1.0000   1.0000   1.0000   1.0000   1.0000   1.0000   1.0000   1.0000
     1.0000   1.0000   1.0000   1.0000   1.0000   1.0000   1.0000   1.0000
     1.0000   1.0000   1.0000   1.0000   1.0000   1.0000   1.0000   1.0000
     1.0000   1.0000   1.0000   1.0000   1.0000   1.0000   1.0000   1.0000
     1.0000   1.0000   1.0000   1.0000   1.0000   1.0000   1.0000   1.0000
     1.0000   1.0000   1.0000   1.0000   1.0000   1.0000   1.0000   1.0000
     1.0000   1.0000   1.0000   1.0000   1.0000   1.0000   1.0000   1.0000
     1.0000   1.0000   1.0000   1.0000   1.0000   1.0000   1.0000   1.0000
     1.0000   1.0000   1.0000   1.0000   1.0000   1.0000   1.0000   1.0000
     1.0000   1.0000   1.0000   1.0000   1.0000   1.0000   1.0000   1.0000
     1.0000   1.0000   1.0000   1.0000   1.0000   1.0000   1.0000   1.0000
     1.0000   1.0000   1.0000   1.0000   1.0000   1.0000   1.0000   1.0000
     1.0000   1.0000   1.0000   1.0000   1.0000   1.0000   1.0000   1.0000
     1.0000   1.0000   1.0000   1.0000   1.0000   1.0000   1.0000   1.0000
     1.0000   1.0000   1.0000   1.0000   1.0000   1.0000   1.0000   1.0000
     1.0000   1.0000   1.0000   1.0000   1.0000   1.0000   1.0000   1.0000
     1.0000   1.0000   1.0000   1.0000   1.0000   1.0000   1.0000   1.0000
     1.0000   1.0000   1.0000   1.0000   1.0000   1.0000   1.0000   1.0000
     1.0000   1.0000   1.0000   1.0000   1.0000   1.0000   1.0000   1.0000
     1.0000   1.0000   1.0000   1.0000   1.0000   1.0000   1.0000   1.0000
     1.0000   1.0000   1.0000   1.0000   1.0000   1.0000   1.0000   1.0000
     1.0000   1.0000   1.0000   1.0000   1.0000   1.0000   1.0000   1.0000
     1.0000   1.0000   1.0000   1.0000   1.0000   1.0000   1.0000   1.0000
     1.0000   1.0000   1.0000   1.0000   1.0000   1.0000   1.0000   1.0000
     1.0000   1.0000   1.0000   1.0000   1.0000   1.0000   1.0000   1.0000
     1.0000   1.0000   1.0000   1.0000   1.0000   1.0000   1.0000   1.0000
     1.0000   1.0000   1.0000   1.0000   1.0000   1.0000   1.0000   1.0000
     1.0000   1.0000   1.0000   1.0000   1.0000   1.0000   1.0000   1.0000
     1.0000   1.0000   1.0000   1.0000   1.0000   1.0000   1.0000   1.0000
     1.0000   1.0000   1.0000   1.0000   1.0000   1.0000   1.0000   1.0000
     1.0000   1.0000   1.0000   1.0000   1.0000   1.0000   1.0000   1.0000
     1.0000   1.0000   1.0000   1.0000   1.0000   1.0000   1.0000   1.0000
     1.0000   1.0000   1.0000   1.0000   1.0000   1.0000   1.0000   1.0000
     1.0000   1.0000   1.0000   1.0000   1.0000   1.0000   1.0000   1.0000
     1.0000   1.0000   1.0000   1.0000   1.0000   1.0000   1.0000   1.0000
     1.0000   1.0000   1.0000   1.0000   1.0000   1.0000   1.0000   1.0000
     1.0000   1.0000   1.0000   1.0000   1.0000   1.0000   1.0000   1.0000
     1.0000   1.0000   1.0000   1.0000   1.0000   1.0000   1.0000   1.0000
     1.0000   1.0000   1.0000   1.0000   1.0000   1.0000   1.0000   1.0000
     1.0000   1.0000   1.0000   1.0000   1.0000   1.0000   1.0000   1.0000
     1.0000   1.0000   1.0000   1.0000   1.0000   1.0000   1.0000   1.0000
     1.0000   1.0000   1.0000   1.0000   1.0000   1.0000   1.0000   1.0000
     1.0000   1.0000   1.0000   1.0000   1.0000   1.0000   1.0000   1.0000
     1.0000   1.0000   1.0000   1.0000   1.0000   1.0000   1.0000   1.0000
     1.0000   1.0000   1.0000   1.0000   1.0000   0.9984   0.0011   0.0003
     0.0000   0.0000   0.0000   0.0000   0.0000   0.0000   0.0000   0.0000
     0.0000   0.0000   0.0000   0.0000   0.0000   0.0000   0.0000   0.0000
     0.0000   0.0000   0.0000   0.0000   0.0000   0.0000   0.0000   0.0000
     0.0000   0.0000   0.0000   0.0000   0.0000   0.0000   0.0000   0.0000
     0.0000   0.0000   0.0000   0.0000   0.0000   0.0000   0.0000   0.0000
     0.0000   0.0000   0.0000   0.0000   0.0000   0.0000   0.0000   0.0000
     0.0000   0.0000   0.0000   0.0000   0.0000   0.0000   0.0000   0.0000
     0.0000   0.0000   0.0000   0.0000   0.0000   0.0000   0.0000   0.0000
     0.0000   0.0000   0.0000   0.0000   0.0000   0.0000   0.0000   0.0000
     0.0000   0.0000   0.0000   0.0000   0.0000   0.0000   0.0000   0.0000
     0.0000   0.0000   0.0000   0.0000

          k = 0.5000-0.2887 0.0000 (170366 PWs)   bands (ev):

   -41.2081 -41.2022 -41.2020 -41.1955 -41.1946 -41.1945 -41.1930 -41.1927
   -41.1870 -41.1861 -41.1813 -41.1812 -41.1808 -41.1807 -41.1247 -41.1243
   -41.1200 -41.1199 -41.1197 -41.1196 -40.9480 -40.9480 -40.9456 -40.9455
   -40.9445 -40.9444 -40.9422 -40.9421 -40.9396 -40.9395 -40.9390 -40.9389
   -40.9386 -40.9385 -40.9368 -40.9367 -40.9358 -40.9357 -40.9213 -40.9212
   -40.9208 -40.9207 -40.9191 -40.9190 -40.9186 -40.9185 -40.9184 -40.9183
   -40.9179 -40.9178 -40.8866 -40.8865 -40.8863 -40.8862 -40.8860 -40.8860
   -40.8834 -40.8828 -40.8773 -40.8773 -40.8762 -40.8758 -40.8750 -40.8750
   -40.8739 -40.8732 -40.8732 -40.8722 -40.8720 -40.8701 -40.8686 -40.8685
   -40.8681 -40.8680 -40.8669 -40.8665 -40.8665 -40.8664 -40.8661 -40.8661
   -40.8659 -40.8659 -40.8651 -40.8649 -40.8646 -40.8593 -40.8593 -40.8583
   -40.8583 -40.8582 -40.6807 -40.6806 -40.6803 -40.6802 -40.6798 -40.6793
   -40.6717 -40.6716 -40.6706 -40.6622 -40.6621 -40.6614 -40.6614 -40.6608
   -40.6600 -40.6175 -40.6174 -40.6153 -40.6151 -40.6143 -40.5277 -40.5276
   -40.5273 -40.5270 -40.5268 -40.5267 -40.5266 -40.5265 -40.5262 -40.5259
   -40.5258 -40.5251 -40.5249 -40.5248 -40.5246 -40.5127 -40.5123 -40.5122
   -40.5120 -40.5120 -40.5119 -40.5118 -40.5118 -40.5117 -40.5116 -40.5115
   -40.5083 -40.5081 -40.5079 -40.5078 -40.5077 -40.5076 -40.4994 -40.4993
   -40.4992 -40.4991 -40.4951 -40.4951 -40.4951 -40.4949 -40.4949 -40.4948
   -40.4920 -40.4920 -40.4917 -40.4917 -40.4904 -40.4902 -40.4872 -40.4870
   -40.4850 -40.4844 -40.4766 -40.4762 -40.4759 -40.4756 -40.4647 -40.4644
   -40.4581 -40.4538 -40.4537 -40.4534 -40.4533 -40.4465 -40.4461 -13.4818
   -13.4813 -13.3179 -13.3166 -13.2502 -13.1543 -13.1410 -13.1383 -13.1259
   -13.1255 -13.1226 -13.1193 -13.1188 -13.1167 -13.1166 -13.1155 -13.1084
   -13.1009 -13.0976 -13.0967 -13.0924 -13.0910 -13.0863 -13.0835 -13.0765
   -13.0758 -13.0737 -13.0727 -13.0721 -13.0663 -13.0658 -13.0652 -13.0629
   -13.0614 -13.0611 -13.0025 -13.0002 -12.9986 -12.9908 -12.9902 -12.9890
   -12.9844 -12.9834 -12.9825 -12.9818 -12.9804 -12.9802 -12.9782 -12.9774
   -12.9754 -12.7188 -12.7091 -12.7074 -12.7031 -12.7021 -12.6967 -12.6965
   -12.6959 -12.6945 -12.6920 -12.6895 -12.6893 -12.6862 -12.6851 -12.6820
   -12.6712 -12.6667 -12.6648 -12.6605 -12.6575 -12.6552 -12.6549 -12.6513
   -12.6495 -12.6482 -12.6470 -12.6461 -12.6456 -12.6424 -12.6407 -12.6379
   -12.6296 -12.6171 -12.6163 -12.6064 -12.6046 -12.6036 -12.5998 -12.5996
   -12.5922 -12.5870 -12.5837 -12.5811 -12.5783 -12.5749  -8.2138  -8.1681
    -8.0329  -8.0140  -7.9481  -7.8796  -7.8574  -7.7689  -7.7461  -7.7328
    -7.7257  -7.7152  -7.7073  -7.6998  -7.6959  -7.6571  -7.6338  -7.6126
    -7.6051  -7.5964  -7.5768  -7.5637  -7.4684  -7.4054  -7.3822  -7.3453
    -7.3339  -7.3319  -7.3022  -7.2833  -7.2670  -7.2332  -7.2194  -7.2136
    -7.1999  -3.9897  -3.7992  -3.7830  -3.7642  -3.7450  -3.7196  -3.5693
    -3.5525  -3.4410  -3.3875  -3.3739  -3.3556  -3.3480  -3.3019  -3.2570
    -3.2089  -3.1011  -3.0511  -2.9557   0.7717   0.8692   0.9410   1.0049
     1.0384   1.2946   1.3294   1.3471   1.3930   1.4546   1.4569   1.4608
     1.4685   1.4917   1.4968   1.5074   1.5246   1.5291   1.6529   1.7008
     1.7124   1.7359   1.7472   1.7767   1.7899   1.8046   1.8304   1.8416
     1.8567   1.8861   1.9193   1.9471   1.9950   2.0049   2.0625   2.0660
     2.1156   2.1415   2.1459   2.1574   2.1802   2.1977   2.2072   2.2232
     2.2630   2.2841   2.3208   2.3341   2.3419   2.3961   2.4080   2.4647
     2.4851   2.4922   2.5119   2.5180   2.5304   2.5432   2.5924   2.6038
     2.6180   2.6532   2.6551   2.6631   2.6852   2.6877   2.7006   2.7176
     2.7795   2.7980   2.8320   2.8637   2.8677   2.8882   2.9379   2.9467
     2.9487   2.9609   2.9754   3.0023   3.0047   3.0394   3.0793   3.1189
     3.1232   3.1345   3.1421   3.1588   3.1833   3.1999   3.2014   3.2140
     3.2477   3.2539   3.2583   3.2768   3.2917   3.3385   3.3534   3.4070
     3.4617   3.5037   3.5503   3.5750   3.5858   4.8881   5.4667   5.4993
     6.2277   6.3601   6.4470   6.5106   6.6622   6.7108   6.7187   6.7332
     6.7590   6.8087   6.8591   6.8677   6.9014   6.9180   6.9367   6.9460
     6.9827   6.9847   7.0596   7.0637   7.1234   7.1494   7.1580   7.1938
     7.2043   7.2178   7.2933   7.3004   7.3064   7.3077   7.3118   7.3402
     7.3540   7.3793   7.3908   7.4345   7.4403   7.4566   7.5241   7.5540
     7.5756   7.5832   7.6075   7.6127   7.6194   7.6898   7.6963   7.7674
     7.7909   7.9288   7.9340   7.9952   8.0378   8.0925   9.1910   9.6104
     9.6302   9.6985   9.7330   9.8986   9.9852  10.0553  10.1608  10.2041
    10.2696  10.2798  10.3131  10.3300  10.3370  10.3586  10.3746  10.4097
    10.4814  10.5465  10.7406  10.7628  10.8013  10.8590  10.8911  10.9157
    10.9299  10.9784  11.0039  11.0143

     occupation numbers 
     1.0000   1.0000   1.0000   1.0000   1.0000   1.0000   1.0000   1.0000
     1.0000   1.0000   1.0000   1.0000   1.0000   1.0000   1.0000   1.0000
     1.0000   1.0000   1.0000   1.0000   1.0000   1.0000   1.0000   1.0000
     1.0000   1.0000   1.0000   1.0000   1.0000   1.0000   1.0000   1.0000
     1.0000   1.0000   1.0000   1.0000   1.0000   1.0000   1.0000   1.0000
     1.0000   1.0000   1.0000   1.0000   1.0000   1.0000   1.0000   1.0000
     1.0000   1.0000   1.0000   1.0000   1.0000   1.0000   1.0000   1.0000
     1.0000   1.0000   1.0000   1.0000   1.0000   1.0000   1.0000   1.0000
     1.0000   1.0000   1.0000   1.0000   1.0000   1.0000   1.0000   1.0000
     1.0000   1.0000   1.0000   1.0000   1.0000   1.0000   1.0000   1.0000
     1.0000   1.0000   1.0000   1.0000   1.0000   1.0000   1.0000   1.0000
     1.0000   1.0000   1.0000   1.0000   1.0000   1.0000   1.0000   1.0000
     1.0000   1.0000   1.0000   1.0000   1.0000   1.0000   1.0000   1.0000
     1.0000   1.0000   1.0000   1.0000   1.0000   1.0000   1.0000   1.0000
     1.0000   1.0000   1.0000   1.0000   1.0000   1.0000   1.0000   1.0000
     1.0000   1.0000   1.0000   1.0000   1.0000   1.0000   1.0000   1.0000
     1.0000   1.0000   1.0000   1.0000   1.0000   1.0000   1.0000   1.0000
     1.0000   1.0000   1.0000   1.0000   1.0000   1.0000   1.0000   1.0000
     1.0000   1.0000   1.0000   1.0000   1.0000   1.0000   1.0000   1.0000
     1.0000   1.0000   1.0000   1.0000   1.0000   1.0000   1.0000   1.0000
     1.0000   1.0000   1.0000   1.0000   1.0000   1.0000   1.0000   1.0000
     1.0000   1.0000   1.0000   1.0000   1.0000   1.0000   1.0000   1.0000
     1.0000   1.0000   1.0000   1.0000   1.0000   1.0000   1.0000   1.0000
     1.0000   1.0000   1.0000   1.0000   1.0000   1.0000   1.0000   1.0000
     1.0000   1.0000   1.0000   1.0000   1.0000   1.0000   1.0000   1.0000
     1.0000   1.0000   1.0000   1.0000   1.0000   1.0000   1.0000   1.0000
     1.0000   1.0000   1.0000   1.0000   1.0000   1.0000   1.0000   1.0000
     1.0000   1.0000   1.0000   1.0000   1.0000   1.0000   1.0000   1.0000
     1.0000   1.0000   1.0000   1.0000   1.0000   1.0000   1.0000   1.0000
     1.0000   1.0000   1.0000   1.0000   1.0000   1.0000   1.0000   1.0000
     1.0000   1.0000   1.0000   1.0000   1.0000   1.0000   1.0000   1.0000
     1.0000   1.0000   1.0000   1.0000   1.0000   1.0000   1.0000   1.0000
     1.0000   1.0000   1.0000   1.0000   1.0000   1.0000   1.0000   1.0000
     1.0000   1.0000   1.0000   1.0000   1.0000   1.0000   1.0000   1.0000
     1.0000   1.0000   1.0000   1.0000   1.0000   1.0000   1.0000   1.0000
     1.0000   1.0000   1.0000   1.0000   1.0000   1.0000   1.0000   1.0000
     1.0000   1.0000   1.0000   1.0000   1.0000   1.0000   1.0000   1.0000
     1.0000   1.0000   1.0000   1.0000   1.0000   1.0000   1.0000   1.0000
     1.0000   1.0000   1.0000   1.0000   1.0000   1.0000   1.0000   1.0000
     1.0000   1.0000   1.0000   1.0000   1.0000   1.0000   1.0000   1.0000
     1.0000   1.0000   1.0000   1.0000   1.0000   1.0000   1.0000   1.0000
     1.0000   1.0000   1.0000   1.0000   1.0000   1.0000   1.0000   1.0000
     1.0000   1.0000   1.0000   1.0000   1.0000   1.0000   1.0000   1.0000
     1.0000   1.0000   1.0000   1.0000   1.0000   1.0000   1.0000   1.0000
     1.0000   1.0000   1.0000   1.0000   1.0000   1.0000   1.0000   1.0000
     1.0000   1.0000   1.0000   1.0000   1.0000   1.0000   1.0000   1.0000
     1.0000   1.0000   1.0000   1.0000   1.0000   1.0000   1.0000   1.0000
     1.0000   1.0000   1.0000   1.0000   1.0000   1.0000   1.0000   1.0000
     1.0000   1.0000   1.0000   1.0000   1.0000   1.0000   1.0000   1.0000
     1.0000   1.0000   1.0000   1.0000   1.0000   1.0000   1.0000   1.0000
     1.0000   1.0000   1.0000   1.0000   1.0000   1.0000   1.0000   1.0000
     1.0000   1.0000   1.0000   1.0000   1.0000   1.0000   1.0000   1.0000
     1.0000   1.0000   1.0000   1.0000   1.0000   1.0000   1.0000   1.0000
     1.0000   1.0000   1.0000   1.0000   1.0000   0.9984   0.0011   0.0003
     0.0000   0.0000   0.0000   0.0000   0.0000   0.0000   0.0000   0.0000
     0.0000   0.0000   0.0000   0.0000   0.0000   0.0000   0.0000   0.0000
     0.0000   0.0000   0.0000   0.0000   0.0000   0.0000   0.0000   0.0000
     0.0000   0.0000   0.0000   0.0000   0.0000   0.0000   0.0000   0.0000
     0.0000   0.0000   0.0000   0.0000   0.0000   0.0000   0.0000   0.0000
     0.0000   0.0000   0.0000   0.0000   0.0000   0.0000   0.0000   0.0000
     0.0000   0.0000   0.0000   0.0000   0.0000   0.0000   0.0000   0.0000
     0.0000   0.0000   0.0000   0.0000   0.0000   0.0000   0.0000   0.0000
     0.0000   0.0000   0.0000   0.0000   0.0000   0.0000   0.0000   0.0000
     0.0000   0.0000   0.0000   0.0000   0.0000   0.0000   0.0000   0.0000
     0.0000   0.0000   0.0000   0.0000

          k =-0.5000-0.2887 0.0000 (170366 PWs)   bands (ev):

   -41.2081 -41.2022 -41.2020 -41.1955 -41.1946 -41.1945 -41.1930 -41.1927
   -41.1870 -41.1861 -41.1813 -41.1812 -41.1808 -41.1807 -41.1247 -41.1243
   -41.1200 -41.1199 -41.1197 -41.1196 -40.9480 -40.9480 -40.9456 -40.9455
   -40.9445 -40.9444 -40.9422 -40.9421 -40.9396 -40.9395 -40.9390 -40.9389
   -40.9386 -40.9385 -40.9368 -40.9367 -40.9358 -40.9357 -40.9213 -40.9212
   -40.9208 -40.9207 -40.9191 -40.9190 -40.9186 -40.9185 -40.9184 -40.9183
   -40.9179 -40.9178 -40.8866 -40.8865 -40.8863 -40.8862 -40.8860 -40.8860
   -40.8834 -40.8828 -40.8773 -40.8773 -40.8762 -40.8758 -40.8750 -40.8750
   -40.8739 -40.8732 -40.8732 -40.8722 -40.8720 -40.8701 -40.8686 -40.8685
   -40.8681 -40.8680 -40.8669 -40.8665 -40.8665 -40.8664 -40.8661 -40.8661
   -40.8659 -40.8659 -40.8651 -40.8649 -40.8646 -40.8593 -40.8593 -40.8583
   -40.8583 -40.8582 -40.6807 -40.6806 -40.6803 -40.6802 -40.6798 -40.6793
   -40.6717 -40.6716 -40.6706 -40.6622 -40.6621 -40.6614 -40.6614 -40.6608
   -40.6600 -40.6175 -40.6174 -40.6153 -40.6151 -40.6143 -40.5277 -40.5276
   -40.5273 -40.5270 -40.5268 -40.5267 -40.5266 -40.5265 -40.5262 -40.5259
   -40.5258 -40.5251 -40.5249 -40.5248 -40.5246 -40.5127 -40.5123 -40.5122
   -40.5120 -40.5120 -40.5119 -40.5118 -40.5118 -40.5117 -40.5116 -40.5115
   -40.5083 -40.5081 -40.5079 -40.5078 -40.5077 -40.5076 -40.4994 -40.4993
   -40.4992 -40.4991 -40.4951 -40.4951 -40.4951 -40.4949 -40.4949 -40.4948
   -40.4920 -40.4920 -40.4917 -40.4917 -40.4904 -40.4902 -40.4872 -40.4870
   -40.4850 -40.4844 -40.4766 -40.4762 -40.4759 -40.4756 -40.4647 -40.4644
   -40.4581 -40.4538 -40.4537 -40.4534 -40.4533 -40.4465 -40.4461 -13.4818
   -13.4813 -13.3179 -13.3166 -13.2502 -13.1543 -13.1406 -13.1386 -13.1258
   -13.1253 -13.1230 -13.1194 -13.1189 -13.1169 -13.1164 -13.1154 -13.1084
   -13.1009 -13.0976 -13.0967 -13.0926 -13.0909 -13.0862 -13.0835 -13.0764
   -13.0757 -13.0739 -13.0727 -13.0720 -13.0665 -13.0657 -13.0651 -13.0627
   -13.0614 -13.0614 -13.0025 -13.0001 -12.9987 -12.9908 -12.9904 -12.9888
   -12.9844 -12.9834 -12.9825 -12.9817 -12.9804 -12.9802 -12.9781 -12.9774
   -12.9754 -12.7187 -12.7094 -12.7074 -12.7031 -12.7021 -12.6968 -12.6965
   -12.6959 -12.6944 -12.6917 -12.6895 -12.6894 -12.6862 -12.6850 -12.6821
   -12.6715 -12.6666 -12.6648 -12.6599 -12.6579 -12.6551 -12.6550 -12.6514
   -12.6495 -12.6482 -12.6468 -12.6460 -12.6459 -12.6425 -12.6406 -12.6379
   -12.6296 -12.6171 -12.6163 -12.6064 -12.6046 -12.6036 -12.5998 -12.5996
   -12.5921 -12.5871 -12.5836 -12.5811 -12.5782 -12.5750  -8.2139  -8.1681
    -8.0314  -8.0147  -7.9504  -7.8783  -7.8564  -7.7686  -7.7466  -7.7322
    -7.7255  -7.7163  -7.7081  -7.7001  -7.6959  -7.6559  -7.6331  -7.6130
    -7.6061  -7.5960  -7.5768  -7.5637  -7.4677  -7.4059  -7.3838  -7.3460
    -7.3339  -7.3296  -7.3030  -7.2828  -7.2647  -7.2334  -7.2236  -7.2141
    -7.1972  -3.9900  -3.7976  -3.7837  -3.7634  -3.7454  -3.7192  -3.5723
    -3.5523  -3.4403  -3.3862  -3.3745  -3.3548  -3.3480  -3.3001  -3.2619
    -3.2104  -3.0957  -3.0504  -2.9582   0.7723   0.8698   0.9398   1.0049
     1.0373   1.2962   1.3294   1.3483   1.3934   1.4574   1.4577   1.4598
     1.4678   1.4928   1.4945   1.5064   1.5231   1.5302   1.6519   1.6994
     1.7125   1.7344   1.7463   1.7773   1.7898   1.8056   1.8305   1.8438
     1.8565   1.8861   1.9193   1.9444   1.9944   2.0044   2.0611   2.0662
     2.1141   2.1425   2.1479   2.1562   2.1823   2.1984   2.2077   2.2224
     2.2644   2.2838   2.3179   2.3366   2.3408   2.3974   2.4072   2.4653
     2.4839   2.4912   2.5127   2.5191   2.5313   2.5417   2.5925   2.6057
     2.6199   2.6533   2.6542   2.6643   2.6858   2.6908   2.7014   2.7179
     2.7795   2.7912   2.8310   2.8633   2.8654   2.8902   2.9405   2.9477
     2.9488   2.9584   2.9755   3.0030   3.0043   3.0386   3.0783   3.1198
     3.1242   3.1332   3.1418   3.1565   3.1840   3.1997   3.2017   3.2156
     3.2479   3.2544   3.2591   3.2764   3.2901   3.3398   3.3535   3.4066
     3.4606   3.5048   3.5505   3.5743   3.5871   4.8874   5.4721   5.4944
     6.2273   6.3603   6.4478   6.5066   6.6611   6.7165   6.7170   6.7261
     6.7568   6.8026   6.8640   6.8674   6.9026   6.9197   6.9392   6.9507
     6.9821   6.9843   7.0608   7.0675   7.1260   7.1478   7.1622   7.1873
     7.2005   7.2127   7.2933   7.2984   7.3073   7.3109   7.3126   7.3399
     7.3548   7.3772   7.3933   7.4328   7.4388   7.4616   7.5222   7.5552
     7.5735   7.5831   7.6081   7.6129   7.6205   7.6892   7.6922   7.7711
     7.7948   7.9290   7.9337   7.9994   8.0405   8.0873   9.1938   9.6098
     9.6290   9.6987   9.7314   9.9003   9.9864  10.0546  10.1662  10.2016
    10.2693  10.2805  10.3121  10.3290  10.3321  10.3566  10.3757  10.4072
    10.4836  10.5470  10.7397  10.7634  10.7990  10.8580  10.8879  10.9186
    10.9367  10.9767  11.0050  11.0116

     occupation numbers 
     1.0000   1.0000   1.0000   1.0000   1.0000   1.0000   1.0000   1.0000
     1.0000   1.0000   1.0000   1.0000   1.0000   1.0000   1.0000   1.0000
     1.0000   1.0000   1.0000   1.0000   1.0000   1.0000   1.0000   1.0000
     1.0000   1.0000   1.0000   1.0000   1.0000   1.0000   1.0000   1.0000
     1.0000   1.0000   1.0000   1.0000   1.0000   1.0000   1.0000   1.0000
     1.0000   1.0000   1.0000   1.0000   1.0000   1.0000   1.0000   1.0000
     1.0000   1.0000   1.0000   1.0000   1.0000   1.0000   1.0000   1.0000
     1.0000   1.0000   1.0000   1.0000   1.0000   1.0000   1.0000   1.0000
     1.0000   1.0000   1.0000   1.0000   1.0000   1.0000   1.0000   1.0000
     1.0000   1.0000   1.0000   1.0000   1.0000   1.0000   1.0000   1.0000
     1.0000   1.0000   1.0000   1.0000   1.0000   1.0000   1.0000   1.0000
     1.0000   1.0000   1.0000   1.0000   1.0000   1.0000   1.0000   1.0000
     1.0000   1.0000   1.0000   1.0000   1.0000   1.0000   1.0000   1.0000
     1.0000   1.0000   1.0000   1.0000   1.0000   1.0000   1.0000   1.0000
     1.0000   1.0000   1.0000   1.0000   1.0000   1.0000   1.0000   1.0000
     1.0000   1.0000   1.0000   1.0000   1.0000   1.0000   1.0000   1.0000
     1.0000   1.0000   1.0000   1.0000   1.0000   1.0000   1.0000   1.0000
     1.0000   1.0000   1.0000   1.0000   1.0000   1.0000   1.0000   1.0000
     1.0000   1.0000   1.0000   1.0000   1.0000   1.0000   1.0000   1.0000
     1.0000   1.0000   1.0000   1.0000   1.0000   1.0000   1.0000   1.0000
     1.0000   1.0000   1.0000   1.0000   1.0000   1.0000   1.0000   1.0000
     1.0000   1.0000   1.0000   1.0000   1.0000   1.0000   1.0000   1.0000
     1.0000   1.0000   1.0000   1.0000   1.0000   1.0000   1.0000   1.0000
     1.0000   1.0000   1.0000   1.0000   1.0000   1.0000   1.0000   1.0000
     1.0000   1.0000   1.0000   1.0000   1.0000   1.0000   1.0000   1.0000
     1.0000   1.0000   1.0000   1.0000   1.0000   1.0000   1.0000   1.0000
     1.0000   1.0000   1.0000   1.0000   1.0000   1.0000   1.0000   1.0000
     1.0000   1.0000   1.0000   1.0000   1.0000   1.0000   1.0000   1.0000
     1.0000   1.0000   1.0000   1.0000   1.0000   1.0000   1.0000   1.0000
     1.0000   1.0000   1.0000   1.0000   1.0000   1.0000   1.0000   1.0000
     1.0000   1.0000   1.0000   1.0000   1.0000   1.0000   1.0000   1.0000
     1.0000   1.0000   1.0000   1.0000   1.0000   1.0000   1.0000   1.0000
     1.0000   1.0000   1.0000   1.0000   1.0000   1.0000   1.0000   1.0000
     1.0000   1.0000   1.0000   1.0000   1.0000   1.0000   1.0000   1.0000
     1.0000   1.0000   1.0000   1.0000   1.0000   1.0000   1.0000   1.0000
     1.0000   1.0000   1.0000   1.0000   1.0000   1.0000   1.0000   1.0000
     1.0000   1.0000   1.0000   1.0000   1.0000   1.0000   1.0000   1.0000
     1.0000   1.0000   1.0000   1.0000   1.0000   1.0000   1.0000   1.0000
     1.0000   1.0000   1.0000   1.0000   1.0000   1.0000   1.0000   1.0000
     1.0000   1.0000   1.0000   1.0000   1.0000   1.0000   1.0000   1.0000
     1.0000   1.0000   1.0000   1.0000   1.0000   1.0000   1.0000   1.0000
     1.0000   1.0000   1.0000   1.0000   1.0000   1.0000   1.0000   1.0000
     1.0000   1.0000   1.0000   1.0000   1.0000   1.0000   1.0000   1.0000
     1.0000   1.0000   1.0000   1.0000   1.0000   1.0000   1.0000   1.0000
     1.0000   1.0000   1.0000   1.0000   1.0000   1.0000   1.0000   1.0000
     1.0000   1.0000   1.0000   1.0000   1.0000   1.0000   1.0000   1.0000
     1.0000   1.0000   1.0000   1.0000   1.0000   1.0000   1.0000   1.0000
     1.0000   1.0000   1.0000   1.0000   1.0000   1.0000   1.0000   1.0000
     1.0000   1.0000   1.0000   1.0000   1.0000   1.0000   1.0000   1.0000
     1.0000   1.0000   1.0000   1.0000   1.0000   1.0000   1.0000   1.0000
     1.0000   1.0000   1.0000   1.0000   1.0000   1.0000   1.0000   1.0000
     1.0000   1.0000   1.0000   1.0000   1.0000   1.0000   1.0000   1.0000
     1.0000   1.0000   1.0000   1.0000   1.0000   1.0000   1.0000   1.0000
     1.0000   1.0000   1.0000   1.0000   1.0000   0.9985   0.0009   0.0004
     0.0000   0.0000   0.0000   0.0000   0.0000   0.0000   0.0000   0.0000
     0.0000   0.0000   0.0000   0.0000   0.0000   0.0000   0.0000   0.0000
     0.0000   0.0000   0.0000   0.0000   0.0000   0.0000   0.0000   0.0000
     0.0000   0.0000   0.0000   0.0000   0.0000   0.0000   0.0000   0.0000
     0.0000   0.0000   0.0000   0.0000   0.0000   0.0000   0.0000   0.0000
     0.0000   0.0000   0.0000   0.0000   0.0000   0.0000   0.0000   0.0000
     0.0000   0.0000   0.0000   0.0000   0.0000   0.0000   0.0000   0.0000
     0.0000   0.0000   0.0000   0.0000   0.0000   0.0000   0.0000   0.0000
     0.0000   0.0000   0.0000   0.0000   0.0000   0.0000   0.0000   0.0000
     0.0000   0.0000   0.0000   0.0000   0.0000   0.0000   0.0000   0.0000
     0.0000   0.0000   0.0000   0.0000

     the Fermi energy is     5.1721 ev

!    total energy              =  -36758.27100599 Ry
     total all-electron energy =  -1292590.646469 Ry
     estimated scf accuracy    <          5.4E-09 Ry
     smearing contrib. (-TS)   =      -0.00011441 Ry
     internal energy E=F+TS    =  -36758.27089158 Ry

     The total energy is F=E-TS. E is the sum of the following terms:
     one-electron contribution =   -6601.29731094 Ry
     hartree contribution      =    3698.54617088 Ry
     xc contribution           =   -2530.76934057 Ry
     ewald contribution        =   -5528.79137277 Ry
     one-center paw contrib.   =  -25795.95903818 Ry
      -> PAW hartree energy AE =      95.89063673 Ry
      -> PAW hartree energy PS =     -96.12736907 Ry
      -> PAW xc energy AE      =    -798.42712582 Ry
      -> PAW xc energy PS      =      33.30777266 Ry
      -> total E_H with PAW    =    3698.30943854 Ry
      -> total E_XC with PAW   =   -3295.88869373 Ry

     convergence has been achieved in   1 iterations


     -----------------------------------------------
     Non-local corr. energy    =      25.57942902 Ry
     -----------------------------------------------


     Forces acting on atoms (cartesian axes, Ry/au):

     atom    1 type  1   force =     0.00002791    0.00016296    0.00046444
     atom    2 type  1   force =    -0.00003228    0.00030774   -0.00062083
     atom    3 type  1   force =    -0.00031405   -0.00018120    0.00088451
     atom    4 type  1   force =     0.00052154    0.00029724   -0.00032040
     atom    5 type  1   force =     0.00015292   -0.00005511    0.00046873
     atom    6 type  1   force =     0.00024864   -0.00017685   -0.00062286
     atom    7 type  1   force =     0.00052241    0.00030376    0.00036616
     atom    8 type  1   force =    -0.00061546   -0.00035138   -0.00002293
     atom    9 type  1   force =     0.00019854   -0.00010630    0.00078665
     atom   10 type  1   force =    -0.00056326    0.00023116   -0.00027349
     atom   11 type  1   force =     0.00000556    0.00022162    0.00078718
     atom   12 type  1   force =    -0.00007922   -0.00060594   -0.00028419
     atom   13 type  1   force =    -0.00070353    0.00039065    0.00047899
     atom   14 type  1   force =     0.00067854   -0.00035113   -0.00005062
     atom   15 type  1   force =    -0.00001237   -0.00079477    0.00047612
     atom   16 type  1   force =     0.00003358    0.00076567   -0.00004782
     atom   17 type  1   force =    -0.00004238   -0.00002293    0.00061495
     atom   18 type  1   force =    -0.00032685   -0.00018512   -0.00043726
     atom   19 type  2   force =     0.00001485    0.00001006    0.00014709
     atom   20 type  2   force =    -0.00044417    0.00010948   -0.00020973
     atom   21 type  2   force =    -0.00012992   -0.00004067    0.00001644
     atom   22 type  2   force =    -0.00012819   -0.00043265   -0.00021366
     atom   23 type  2   force =    -0.00009754   -0.00009430    0.00001640
     atom   24 type  2   force =     0.00050067    0.00062339   -0.00022180
     atom   25 type  2   force =     0.00011947   -0.00001676   -0.00010795
     atom   26 type  2   force =     0.00079133    0.00012399   -0.00021988
     atom   27 type  2   force =     0.00004143    0.00011101   -0.00010606
     atom   28 type  2   force =    -0.00000539   -0.00000856    0.00048782
     atom   29 type  2   force =    -0.00009026   -0.00005364   -0.00059196
     atom   30 type  2   force =    -0.00034282    0.00048864   -0.00016098
     atom   31 type  2   force =     0.00000685   -0.00007014   -0.00005076
     atom   32 type  2   force =    -0.00000802   -0.00000662    0.00095940
     atom   33 type  2   force =    -0.00001801   -0.00001403    0.00012613
     atom   34 type  2   force =     0.00024928   -0.00054040   -0.00016296
     atom   35 type  2   force =    -0.00005585    0.00004645   -0.00005043
     atom   36 type  2   force =     0.00035700   -0.00009922   -0.00027535
     atom   37 type  2   force =     0.00002771   -0.00003247   -0.00013340
     atom   38 type  2   force =    -0.00003446   -0.00001949   -0.00062343
     atom   39 type  2   force =    -0.00027213   -0.00015766    0.00065435
     atom   40 type  2   force =     0.00009663    0.00035548   -0.00027647
     atom   41 type  2   force =    -0.00001049    0.00003064   -0.00013293
     atom   42 type  2   force =    -0.00038889   -0.00022578   -0.00019417
     atom   43 type  2   force =    -0.00003541   -0.00002120   -0.00020531
     atom   44 type  2   force =     0.00004445   -0.00007195    0.00003530
     atom   45 type  2   force =     0.00008449   -0.00011174   -0.00025284
     atom   46 type  2   force =    -0.00004023    0.00007451    0.00003388
     atom   47 type  2   force =    -0.00004779    0.00012444   -0.00025137
     atom   48 type  2   force =    -0.00009600   -0.00013744   -0.00062736
     atom   49 type  2   force =    -0.00011175   -0.00002797    0.00062364
     atom   50 type  2   force =    -0.00016447   -0.00001377   -0.00062872
     atom   51 type  2   force =    -0.00008222   -0.00008026    0.00062703
     atom   52 type  2   force =    -0.00001540   -0.00000698    0.00009511
     atom   53 type  2   force =     0.00062526    0.00035883   -0.00021738
     atom   54 type  1   force =    -0.00004024   -0.00002327   -0.00055506
     The non-local contrib.  to forces
     atom    1 type  1   force =    -0.00127538    0.04174147   -0.05947978
     atom    2 type  1   force =    -0.00029336    0.00920566    0.03221234
     atom    3 type  1   force =     0.01774873    0.01025348    0.01082200
     atom    4 type  1   force =     0.02486769    0.01429084    0.03877071
     atom    5 type  1   force =     0.03553401   -0.02200943   -0.05953554
     atom    6 type  1   force =     0.00791666   -0.00490960    0.03225612
     atom    7 type  1   force =     0.04773791    0.02754387   -0.01781882
     atom    8 type  1   force =     0.00077293    0.00041115   -0.01579982
     atom    9 type  1   force =    -0.01704494    0.00939400    0.00890731
     atom   10 type  1   force =    -0.02458881    0.01251191    0.03621259
     atom   11 type  1   force =    -0.00037547   -0.01932009    0.00908487
     atom   12 type  1   force =    -0.00140305   -0.02738992    0.03642439
     atom   13 type  1   force =    -0.04178719    0.02444846   -0.01472146
     atom   14 type  1   force =     0.00055517   -0.00035382   -0.01403002
     atom   15 type  1   force =     0.00023689   -0.04847704   -0.01458966
     atom   16 type  1   force =    -0.00008748    0.00058787   -0.01395189
     atom   17 type  1   force =    -0.03715269   -0.02147873   -0.05897159
     atom   18 type  1   force =    -0.01132296   -0.00652433    0.03415703
     atom   19 type  2   force =     0.00012462    0.00004223    0.24724223
     atom   20 type  2   force =    -0.00892960   -0.02845285    0.21115445
     atom   21 type  2   force =     0.02374016   -0.00564461    0.25887564
     atom   22 type  2   force =    -0.02910070    0.00652086    0.21113485
     atom   23 type  2   force =     0.00699996    0.02342791    0.25886638
     atom   24 type  2   force =    -0.01927311    0.02060398    0.21241525
     atom   25 type  2   force =    -0.01673396   -0.01805571    0.25813164
     atom   26 type  2   force =     0.00822288   -0.02700372    0.21241637
     atom   27 type  2   force =    -0.02397798   -0.00550315    0.25813491
     atom   28 type  2   force =    -0.00043095   -0.00024568    0.23920222
     atom   29 type  2   force =    -0.00076133   -0.00040577    0.26837360
     atom   30 type  2   force =     0.02009879    0.02212303    0.21173191
     atom   31 type  2   force =     0.01769861   -0.01774110    0.25869221
     atom   32 type  2   force =     0.00084887    0.00048885    0.24291727
     atom   33 type  2   force =    -0.00109324   -0.00064351    0.28158287
     atom   34 type  2   force =     0.02923346    0.00635037    0.21172703
     atom   35 type  2   force =    -0.00646646    0.02424592    0.25869600
     atom   36 type  2   force =     0.09556282   -0.05407573   -0.11210760
     atom   37 type  2   force =     0.01652421   -0.01147600   -0.23863928
     atom   38 type  2   force =    -0.01655218   -0.00955571   -0.25866715
     atom   39 type  2   force =    -0.00205550   -0.00120701   -0.22325276
     atom   40 type  2   force =     0.00092335    0.10974578   -0.11214972
     atom   41 type  2   force =    -0.00166331    0.02006411   -0.23863348
     atom   42 type  2   force =    -0.10067642   -0.05809464   -0.10694552
     atom   43 type  2   force =    -0.01633635   -0.00943294   -0.23867193
     atom   44 type  2   force =     0.00066619    0.00145720   -0.26226288
     atom   45 type  2   force =     0.00072314    0.05227470   -0.21588126
     atom   46 type  2   force =     0.00158554   -0.00019607   -0.26224448
     atom   47 type  2   force =     0.04557242   -0.02547888   -0.21589780
     atom   48 type  2   force =    -0.00070325    0.01838997   -0.25921086
     atom   49 type  2   force =    -0.00095224    0.00207465   -0.22370073
     atom   50 type  2   force =     0.01556131   -0.00978617   -0.25921991
     atom   51 type  2   force =     0.00131907   -0.00187197   -0.22368121
     atom   52 type  2   force =    -0.00157587   -0.00095014   -0.26221696
     atom   53 type  2   force =    -0.04103962   -0.02369364   -0.21669982
     atom   54 type  1   force =     0.00646858    0.00381384    0.04640806
     The ionic contribution  to forces
     atom    1 type  1   force =     0.08435972    0.02346987   -0.96985464
     atom    2 type  1   force =     0.00415659   -2.45222999   -1.81248911
     atom    3 type  1   force =    -0.60920348   -0.35016237   -1.19757464
     atom    4 type  1   force =    -0.71129913   -0.40822336   -0.46850120
     atom    5 type  1   force =     0.06181742    0.06127689   -0.96871184
     atom    6 type  1   force =    -2.12324680    1.22995579   -1.81398615
     atom    7 type  1   force =    -0.80594133   -0.46517540   -0.17154700
     atom    8 type  1   force =     0.15652135    0.09181019    0.94633720
     atom    9 type  1   force =     0.55802353   -0.35698335   -1.02784609
     atom   10 type  1   force =     0.66152630   -0.38635372   -0.33622010
     atom   11 type  1   force =    -0.03162198    0.65716532   -1.03983160
     atom   12 type  1   force =    -0.00548787    0.76071438   -0.34853819
     atom   13 type  1   force =     0.61129128   -0.31064815   -0.29719983
     atom   14 type  1   force =    -0.19223480    0.14815673    0.75295870
     atom   15 type  1   force =     0.03848128    0.68783753   -0.30304097
     atom   16 type  1   force =     0.03418169   -0.23805787    0.74842322
     atom   17 type  1   force =     0.02895771    0.01672740   -1.02373431
     atom   18 type  1   force =     2.17393861    1.25446802   -1.70468910
     atom   19 type  2   force =    -0.00179965   -0.00142679  -15.20829725
     atom   20 type  2   force =     0.21429445    1.45102767  -11.72635876
     atom   21 type  2   force =    -1.05036430    0.84278735  -15.60586228
     atom   22 type  2   force =     1.36631469   -0.53879052  -11.72830489
     atom   23 type  2   force =     0.20410077   -1.33123356  -15.60436826
     atom   24 type  2   force =     1.07194767   -0.97647151  -11.77030543
     atom   25 type  2   force =     1.11725623    0.50318736  -15.58312155
     atom   26 type  2   force =    -0.30779861    1.41238358  -11.76785102
     atom   27 type  2   force =     0.99508395    0.71337296  -15.58529904
     atom   28 type  2   force =    -0.02308383   -0.00550754  -13.36215541
     atom   29 type  2   force =    -0.03671687   -0.01560748  -16.26833831
     atom   30 type  2   force =    -1.09753054   -0.91683807  -11.72014534
     atom   31 type  2   force =    -1.20136555    0.51101485  -15.61520066
     atom   32 type  2   force =     0.08855691    0.04809556  -12.98095959
     atom   33 type  2   force =     0.10238312    0.05759875  -16.54285313
     atom   34 type  2   force =    -1.34177052   -0.48903113  -11.72018646
     atom   35 type  2   force =    -0.15617487   -1.29503797  -15.61552210
     atom   36 type  2   force =    -4.57664271    2.67624165    9.54837114
     atom   37 type  2   force =    -0.62607665    0.37956905   13.43144218
     atom   38 type  2   force =     0.62574036    0.35989337   14.54708183
     atom   39 type  2   force =    -0.06045492   -0.03731544   14.27669198
     atom   40 type  2   force =     0.03177348   -5.29878880    9.54976556
     atom   41 type  2   force =     0.01370698   -0.73062211   13.43209248
     atom   42 type  2   force =     4.72424462    2.72524362    9.38740825
     atom   43 type  2   force =     0.66586120    0.38779716   13.47100808
     atom   44 type  2   force =     0.02550862    0.58613117   14.71426195
     atom   45 type  2   force =     0.02191862   -1.19074323   13.90694998
     atom   46 type  2   force =     0.52061015   -0.27016448   14.71698904
     atom   47 type  2   force =    -1.01637269    0.61087740   13.90739671
     atom   48 type  2   force =    -0.01255422   -0.71708561   14.52496227
     atom   49 type  2   force =     0.01101200    0.05611157   14.24399855
     atom   50 type  2   force =    -0.63010765    0.34603415   14.52359888
     atom   51 type  2   force =     0.04792637   -0.02023069   14.24386458
     atom   52 type  2   force =    -0.52817153   -0.30375055   14.70512848
     atom   53 type  2   force =     0.93668593    0.54035873   13.89138129
     atom   54 type  1   force =    -0.05216109   -0.03282836    8.41878187
     The local contribution  to forces
     atom    1 type  1   force =    -0.08309876   -0.06432558    1.02878754
     atom    2 type  1   force =    -0.00396983    2.44513496    1.78096605
     atom    3 type  1   force =     0.59142804    0.33989216    1.18799286
     atom    4 type  1   force =     0.68744669    0.39451135    0.43012451
     atom    5 type  1   force =    -0.09659223   -0.03972371    1.02770383
     atom    6 type  1   force =     2.11710578   -1.22619199    1.78241797
     atom    7 type  1   force =     0.75978064    0.43854282    0.18936189
     atom    8 type  1   force =    -0.15791540   -0.09257807   -0.93084041
     atom    9 type  1   force =    -0.54102330    0.34768444    1.02001681
     atom   10 type  1   force =    -0.63792670    0.37440652    0.30041430
     atom   11 type  1   force =     0.03205718   -0.63793523    1.03182934
     atom   12 type  1   force =     0.00689032   -0.73446515    0.31251304
     atom   13 type  1   force =    -0.57111165    0.28709890    0.31210794
     atom   14 type  1   force =     0.19248207   -0.14824687   -0.73921854
     atom   15 type  1   force =    -0.03874176   -0.64119482    0.31781658
     atom   16 type  1   force =    -0.03407888    0.23838609   -0.73475611
     atom   17 type  1   force =     0.00750512    0.00435232    1.08232512
     atom   18 type  1   force =    -2.16463976   -1.24910994    1.67145003
     atom   19 type  2   force =     0.00146409    0.00126091   14.96661065
     atom   20 type  2   force =    -0.20630573   -1.42311451   11.51950869
     atom   21 type  2   force =     1.02704692   -0.83719223   15.35260752
     atom   22 type  2   force =    -1.33814785    0.53172740   11.52146820
     atom   23 type  2   force =    -0.21093381    1.30819709   15.35112136
     atom   24 type  2   force =    -1.05254014    0.95681399   11.56224133
     atom   25 type  2   force =    -1.10091507   -0.48555249   15.33052533
     atom   26 type  2   force =     0.30046748   -1.38574118   11.55978871
     atom   27 type  2   force =    -0.97166641   -0.70800316   15.33270321
     atom   28 type  2   force =     0.02355381    0.00578698   13.12881377
     atom   29 type  2   force =     0.03740652    0.01598529   16.00515884
     atom   30 type  2   force =     1.07750138    0.89564936   11.51286762
     atom   31 type  2   force =     1.18391640   -0.49376085   15.36206346
     atom   32 type  2   force =    -0.08923816   -0.04849506   12.74426445
     atom   33 type  2   force =    -0.10124107   -0.05693503   16.26738524
     atom   34 type  2   force =     1.31338091    0.48227660   11.51291132
     atom   35 type  2   force =     0.16234934    1.27125517   15.36238288
     atom   36 type  2   force =     4.48336601   -2.62333717   -9.43914212
     atom   37 type  2   force =     0.60997596   -0.36862860  -13.19805114
     atom   38 type  2   force =    -0.60965237   -0.35060859  -14.29460104
     atom   39 type  2   force =     0.06216507    0.03831753  -14.05759386
     atom   40 type  2   force =    -0.03256462    5.19160460   -9.44049598
     atom   41 type  2   force =    -0.01229428    0.71118655  -13.19870575
     atom   42 type  2   force =    -4.62602703   -2.66857063   -9.28310051
     atom   43 type  2   force =    -0.64997557   -0.37862069  -13.23761769
     atom   44 type  2   force =    -0.02601185   -0.58750259  -14.45762205
     atom   45 type  2   force =    -0.02241571    1.13931752  -13.69612320
     atom   46 type  2   force =    -0.52203567    0.27045235  -14.46036286
     atom   47 type  2   force =     0.97165453   -0.58563216  -13.69655353
     atom   48 type  2   force =     0.01330342    0.69915668  -14.27190924
     atom   49 type  2   force =    -0.01002041   -0.05804608  -14.02460105
     atom   50 type  2   force =     0.61496446   -0.33644304  -14.27053656
     atom   51 type  2   force =    -0.04911747    0.02206251  -14.02448408
     atom   52 type  2   force =     0.52988076    0.30477639  -14.44850615
     atom   53 type  2   force =    -0.89578229   -0.51674570  -13.67973680
     atom   54 type  1   force =     0.04574223    0.02904329   -8.46322862
     The core correction contribution to forces
     atom    1 type  1   force =     0.00002953   -0.00073486    0.00100546
     atom    2 type  1   force =     0.00001894   -0.00183452   -0.00126784
     atom    3 type  1   force =    -0.00026553   -0.00015320   -0.00031449
     atom    4 type  1   force =    -0.00051186   -0.00029354   -0.00071669
     atom    5 type  1   force =    -0.00062216    0.00039350    0.00100634
     atom    6 type  1   force =    -0.00158083    0.00093446   -0.00126836
     atom    7 type  1   force =    -0.00104209   -0.00060133    0.00041611
     atom    8 type  1   force =     0.00007507    0.00004383    0.00030186
     atom    9 type  1   force =     0.00027075   -0.00014624   -0.00025448
     atom   10 type  1   force =     0.00051115   -0.00025894   -0.00066739
     atom   11 type  1   force =     0.00000850    0.00030525   -0.00025869
     atom   12 type  1   force =     0.00002979    0.00056922   -0.00067066
     atom   13 type  1   force =     0.00094256   -0.00054340    0.00033948
     atom   14 type  1   force =    -0.00011040    0.00005265    0.00025252
     atom   15 type  1   force =     0.00000123    0.00108845    0.00033717
     atom   16 type  1   force =    -0.00000846   -0.00012067    0.00025044
     atom   17 type  1   force =     0.00064114    0.00037046    0.00098448
     atom   18 type  1   force =     0.00165286    0.00095388   -0.00130996
     atom   19 type  2   force =     0.00017625    0.00010316   -0.00540361
     atom   20 type  2   force =     0.00043184    0.00063325   -0.00449573
     atom   21 type  2   force =    -0.00053217   -0.00004725   -0.00557629
     atom   22 type  2   force =     0.00076056    0.00005926   -0.00449358
     atom   23 type  2   force =    -0.00030194   -0.00044183   -0.00557469
[...]
              0.123498290451972E+03
              0.561106650538027E+02
              0.913004532821485E+02
             -0.502243255909116E+01
              0.280506636636162E+03
              0.470216317864399E+02
             -0.432768112876690E+02
              0.506732320996502E+01
             -0.285104068934997E+02
              0.230418481434571E+03
             -0.133040851774064E+02
              0.496562099963535E+02
              0.166154682971567E+03
              0.364059179822455E+02
             -0.131064896802641E+03
             -0.191134565345912E+03
              0.195420984509656E+01
             -0.214962134685792E+03
              0.729892609571864E+02
             -0.434676373440006E+02
             -0.101100177894254E+03
              0.907915546834586E+02
              0.347478630956143E+02
              0.818724959583045E+02
              0.725272558017969E+01
              0.130476950695707E+03
             -0.213106795773041E+03
             -0.195861531269717E+02
             -0.185952453878367E+03
              0.334729476033722E+02
              0.100707928097875E+03
             -0.187261686750460E+02
             -0.700641932226310E+02
              0.149818075338543E+03
             -0.693067261214485E+02
              0.488171534522177E+02
             -0.434544970180982E+02
              0.106932274112121E+03
              0.129162085154286E+03
             -0.557250791307933E+02
              0.110933408206311E+03
              0.426181357732357E+02
             -0.114485093422944E+03
             -0.685379175669819E+02
              0.184732359253809E+03
              0.876060419469151E+02
             -0.848152159326867E+01
             -0.249759095338795E+02
              0.271489970046912E+03
              0.162860496600750E+03
              0.596519492857403E+02
             -0.174151961428262E+03
              0.272550577283686E+03
             -0.123265816543506E+03
             -0.152817330641530E+03
             -0.236774011926652E+03
              0.114072211448867E+03
             -0.216581277092926E+03
              0.938320874544174E+02
              0.154199732768389E+03
              0.114185007766633E+03
              0.242307195453867E+02
              0.682062595884919E+02
             -0.170632742199604E+03
             -0.606036872234988E+02
             -0.551969562352817E+02
              0.824947867095921E+02
              0.184171159465599E+03
              0.181480128984859E+03
              0.139005335043187E+03
             -0.343832486171541E+02
              0.493566086156370E+02
              0.693910546112397E+01
             -0.545820012651460E+02
              0.814114574448008E+02
              0.780607046779937E+02
             -0.111166336428090E+03
             -0.112527891084051E+03
             -0.516507291610421E+02
              0.119534776173461E+03
              0.607542422295589E+02
             -0.813166106048670E+02
             -0.141855489655096E+03
             -0.194891538172043E+03
              0.404169301493297E+01
              0.554860525343256E+02
             -0.753847691822884E+02
              0.276816352189719E+03
              0.266063538090862E+01
             -0.321626319655305E+03
              0.806373487017627E+02
              0.132725864839755E+03
             -0.481738261997967E+02
              0.502027144019866E+01
             -0.727325979945263E+02
              0.123529588073415E+03
              0.608419462454386E+02
             -0.162487215111489E+03
              0.192931648016133E+03
              0.132585239844740E+02
             -0.770876502007641E+02
             -0.949417594460132E+02
              0.386808321955003E+03
              0.172998928773513E+03
             -0.433537119833372E+02
              0.952902895841651E+02
             -0.188422878456547E+03
             -0.409561990418933E+02
             -0.167515250907151E+03
              0.646711522035287E+02
              0.120270234419360E+03
              0.132319407742072E+03
             -0.579717854177686E+02
              0.100869520971328E+02
              0.164812707202231E+03
              0.526913484445724E+02
              0.983203566395648E+02
              0.400313147705913E+02
             -0.221057473811074E+02
              0.405816967298449E+00
             -0.305945861543824E+02
              0.341197945845511E+02
              0.115239958427685E+02
             -0.149680744439645E+03
              0.229444255414401E+03
              0.883583257023911E+02
             -0.162526715815157E+03
             -0.119511351644419E+03
             -0.168626943517567E+03
             -0.729859789896573E+02
             -0.529544985514444E+02
             -0.133292687692478E+03
             -0.131647464929683E+03
              0.158502725383743E+03
              0.126142071137702E+03
             -0.174844672528977E+02
              0.189274881989100E+03
              0.272020607005738E+02
             -0.304351149651901E+03
              0.163449227941398E+03
              0.278918761058881E+02
              0.128332705312536E+03
              0.173274312427538E+02
              0.145849082723273E+02
              0.261740080559913E+02
              0.693752169759495E+02
             -0.126942440095904E+03
             -0.598970689603198E+02
             -0.120204354970035E+03
             -0.993072352387966E+02
              0.414506409036590E+02
             -0.110305359491929E+03
              0.530847234146907E+02
              0.728891561830729E+02
             -0.676284906471337E+02
             -0.431924499314011E+02
              0.291337857176222E+01
              0.189237400276024E+03
              0.285578328556134E+02
              0.181660604907227E+03
              0.651943899771641E+02
             -0.240011146109657E+03
             -0.795919653693449E+02
              0.818638798728905E+02
              0.188938029405735E+03
              0.311432063193475E+02
              0.776750291274829E+02
              0.173841470934665E+03
             -0.100641237609960E+03
             -0.154620566572276E+03
              0.214285048907661E+03
              0.125402873110404E+02
             -0.226465475609451E+03
              0.828126811252300E+02
              0.143305655536029E+03
             -0.366634393554791E+02
             -0.149298471680735E+03
              0.310618687128530E+02
              0.650403627504375E+01
             -0.725316486297329E+02
              0.277193810617127E+02
             -0.241042244658343E+02
              0.336923256730881E+03
              0.980953043204215E+02
             -0.142692654405172E+03
              0.420933401680893E+02
              0.205146938471421E+03
             -0.138737007692383E+03
             -0.362179778511093E+02
             -0.131224771169729E+03
              0.105215201661478E+03
              0.331841147058667E+02
              0.695780017679347E+02
              0.126020914760567E+02
              0.238241228777310E+03
             -0.135673628420950E+03
             -0.107001926795018E+03
             -0.103320180861845E+03
              0.908315511913605E+02
              0.236749820851095E+03
             -0.395979698968705E+02
              0.968283752248111E+02
             -0.137585053323236E+03
              0.264406495814593E+02
             -0.439892928848378E+02
              0.975363327862055E+01
             -0.534209636072991E+02
             -0.434688685822714E+02
             -0.427897939503470E+02
              0.351329535626994E+02
              0.686786714995442E+02
             -0.150150874106121E+03
              0.111164970767833E+03
             -0.178857179909464E+03
              0.134852512765020E+03
             -0.142560655392393E+03
              0.231253934552087E+03
              0.127075209160481E+03
              0.146276132118241E+03
              0.363630386917257E+02
              0.426772898606371E+02
             -0.319524867807348E+03
              0.516173253197023E+02
              0.116442928388733E+02
              0.304089780156719E+02
             -0.521387610996030E+02
              0.246994613833439E+03
             -0.573072913093840E+02
             -0.102062804136809E+03
             -0.238881806315318E+03
             -0.828969521544586E+02
             -0.114648335679761E+03
             -0.997716778012241E+02
             -0.224203848585203E+02
             -0.545409812030032E+02
             -0.695085448474928E+02
             -0.106375301510520E+03
              0.813490794991646E+02
              0.256700560670829E+03
              0.216843860303647E+03
             -0.384740523413857E+02
             -0.260625364928920E+03
             -0.111168937440916E+03
              0.532569609969855E+02
              0.534002407134323E+02
              0.851909497493992E+02
              0.598874023232061E+02
              0.105611863214770E+02
              0.254584399580633E+03
             -0.618512465427633E+02
              0.125115296861917E+03
              0.645107478936911E+02
             -0.867776949171073E+02
             -0.415905152119146E+02
              0.115337716795893E+03
             -0.617001308806050E+02
             -0.378965763264661E+02
             -0.280789823663381E+02
              0.148535698652322E+03
             -0.195455861421430E+03
             -0.157929838823097E+02
             -0.150839528064438E+03
             -0.320414463695519E+03
             -0.924011290325780E+00
             -0.473544720243312E+02
              0.124554442569045E+03
              0.138370842112964E+03
              0.189285818169933E+03
             -0.123083248878372E+03
              0.191489292288089E+03
              0.478741355365727E+02
             -0.711525153532299E+02
              0.255401124582528E+02
             -0.603333139651977E+02
             -0.356608670811706E+02
              0.110651936860587E+03
             -0.916205921117171E+02
              0.245710374902990E+03
             -0.654925833355101E+02
             -0.135904787953581E+03
              0.256980511863392E+03
             -0.139094575548415E+03
             -0.112029941150377E+02
              0.134479257949209E+02
              0.740292698237952E+02
             -0.108500080725450E+03
             -0.826825551213005E+02
              0.131935033428245E+03
             -0.198641786727237E+03
              0.163714427553786E+03
              0.242013521288838E+02
              0.117340221162836E+03
              0.169935663948305E+03
              0.436207950469862E+02
             -0.236293035290922E+03
             -0.102233103375462E+03
             -0.170615979757811E+03
             -0.101419337597602E+03
             -0.270166531244656E+02
              0.366392722254392E+02
             -0.794663101297325E+02
             -0.135600058924274E+01
             -0.237069484399958E+03
              0.131919090027939E+02
             -0.152946310757802E+03
              0.148181420976638E+03
             -0.867578636620709E+02
             -0.209975123412876E+02
              0.111937721641006E+03
              0.221743854683950E+02
              0.103975713400076E+03
             -0.198326507330289E+03
              0.328719845695869E+02
              0.135475430231312E+02
              0.854028101096941E+02
              0.136888864352065E+03
             -0.252753740598346E+02
             -0.155693811026486E+03
             -0.902419227032040E+02
             -0.634569685303920E+02
             -0.186245699171118E+02
              0.145224967471225E+03
              0.943387175458645E+02
             -0.954743566724078E+02
             -0.896198171935496E+02
              0.658304671591804E+02
              0.716819883502322E+02
             -0.193700211658187E+03
              0.451044353865857E+02
              0.138751351143512E+03
             -0.624348512071558E+01
              0.175085978011305E+03
              0.807235491360527E+02
              0.137592268645302E+03
              0.209301179654728E+03
              0.314204963257634E+02
             -0.285034669523301E+03
              0.393125110922296E+02
              0.308234282750531E+03
              0.224055557210170E+03
             -0.154481230452503E+03
              0.139458146647667E+02
              0.200555947307775E+03
              0.173660306864469E+03
              0.763870381482609E+02
             -0.462471465021758E+02
              0.767562018450392E+02
              0.158835505489130E+03
             -0.734454125928223E+02
             -0.473360625924238E+02
              0.107572729167242E+03
             -0.643434001478431E+01
              0.967276017962569E+02
             -0.297421173237867E+02
              0.201468155215584E+03
             -0.767254770386166E+02
              0.462494425657097E+02
             -0.852944042899123E+02
              0.996748060377422E+02
             -0.135003420364159E+02
              0.148586462181481E+03
              0.105716972211434E+02
              0.665765397662690E+02
             -0.945266391863785E+02
             -0.660272324813292E+02
             -0.337195915245038E+02
             -0.306955303817880E+02
              0.161851683204026E+03
              0.796988624071180E+02
              0.196273167762653E+03
              0.181123290304321E+03
              0.508015139169790E+02
              0.902069638351634E+01
              0.193022497642701E+03
              0.108506021032656E+03
              0.333189253541377E+00
              0.188091497337886E+03
             -0.154335637705240E+03
              0.541115276605401E+02
             -0.100631041410905E+03
             -0.272063885228208E+02
              0.259958830650037E+03
             -0.363673639615868E+02
             -0.109171959411563E+02
             -0.282513645149086E+02
              0.213601174349124E+03
             -0.458220669054999E+02
             -0.393431289813589E+01
              0.430831983409421E+03
             -0.127479993439480E+03
             -0.159230660130280E+03
             -0.159332158207887E+03
             -0.101705552616767E+03
              0.928915579142154E+02
             -0.416419561265759E+02
              0.236083799509499E+02
             -0.107518880310677E+02
              0.547283297835055E+02
              0.876559400422630E+02
              0.102153903524342E+03
              0.147158572029241E+03
              0.942062597702498E+02
              0.960456116268313E+02
             -0.177830880522157E+03
             -0.183637261605231E+03
             -0.414098905037858E+02
             -0.164139176110150E+03
              0.260604992568632E+03
              0.219446219496745E+03
              0.103549877829366E+03
              0.285367916265438E+03
             -0.142525379542745E+03
             -0.614584442497522E+02
             -0.886139189295494E+02
              0.246958114113240E+03
 
 BEEF-vdW xc energy contributions
            1 :    -2231.842758296786     
            2 :     2044.796198095337     
            3 :    -1726.028817594151     
            4 :     1360.788251418772     
            5 :    -1029.246762339147     
            6 :     780.5153544793793     
            7 :    -624.5995403421671     
            8 :     540.0592965016292     
            9 :    -490.2240620987704     
           10 :     440.8472939518656     
           11 :    -373.0819339315012     
           12 :     287.3769986605553     
           13 :    -197.8582839417727     
           14 :     121.5705325201416     
           15 :    -69.00217914807672     
           16 :     40.19404278432967     
           17 :    -26.75611605034146     
           18 :     17.32759904534123     
           19 :    -3.339490867568657     
           20 :    -17.44847702928155     
           21 :     40.97585352691431     
           22 :    -60.17331915821069     
           23 :     69.55863210567804     
           24 :    -68.50841601857701     
           25 :     61.49315825450367     
           26 :    -55.44022362429860     
           27 :     55.93037925386534     
           28 :    -64.31795255754014     
           29 :     77.17453762092646     
           30 :    -88.22685760820877     
           31 :    -192.6923691830348     
           32 :    -138.6854681007826     

     Writing all to output data dir ./PbI2.save/
 
     init_run     :      7.07s CPU     11.92s WALL (       1 calls)
     electrons    :    133.59s CPU    137.20s WALL (       1 calls)
     forces       :      7.48s CPU      7.73s WALL (       1 calls)
     stress       :    108.57s CPU    109.76s WALL (       1 calls)

     Called by init_run:
     wfcinit      :      2.18s CPU      6.58s WALL (       1 calls)
     potinit      :      1.54s CPU      1.72s WALL (       1 calls)
     hinit0       :      0.98s CPU      1.07s WALL (       1 calls)

     Called by electrons:
     c_bands      :    123.78s CPU    126.65s WALL (       2 calls)
     sum_band     :      7.55s CPU      7.82s WALL (       2 calls)
     v_of_rho     :      2.03s CPU      2.18s WALL (       2 calls)
     v_h          :      0.01s CPU      0.02s WALL (       2 calls)
     v_xc         :     31.45s CPU     33.53s WALL (      38 calls)
     newd         :      0.42s CPU      0.58s WALL (       2 calls)
     PAW_pot      :      0.57s CPU      0.58s WALL (       2 calls)
     mix_rho      :      0.00s CPU      0.00s WALL (       2 calls)
     vdW_kernel   :      0.36s CPU      0.37s WALL (       1 calls)

     Called by c_bands:
     init_us_2    :      0.59s CPU      0.62s WALL (      12 calls)
     init_us_2:cp :      0.59s CPU      0.62s WALL (      12 calls)
     cegterg      :    119.38s CPU    121.62s WALL (       4 calls)

     Called by sum_band:
     sum_band:wei :      0.00s CPU      0.00s WALL (       2 calls)
     sum_band:loo :      5.90s CPU      5.95s WALL (       2 calls)
     sum_band:buf :      0.16s CPU      0.16s WALL (       4 calls)
     sum_band:ini :      0.23s CPU      0.24s WALL (       4 calls)
     sum_band:cal :      2.21s CPU      2.22s WALL (       4 calls)
     sum_band:bec :      0.02s CPU      0.02s WALL (       4 calls)
     addusdens    :      0.50s CPU      0.70s WALL (       2 calls)
     addusd:skk   :      0.02s CPU      0.03s WALL (       4 calls)
     addusd:dgemm :      0.26s CPU      0.45s WALL (       4 calls)
     addusd:qvan2 :      0.18s CPU      0.18s WALL (       4 calls)

     Called by *egterg:
     cdiaghg      :     65.59s CPU     66.37s WALL (      42 calls)
     cegterg:over :      9.51s CPU      9.71s WALL (      42 calls)
     cegterg:upda :      5.56s CPU      5.75s WALL (      42 calls)
     cegterg:last :      2.50s CPU      2.52s WALL (       4 calls)
     h_psi        :     26.92s CPU     27.36s WALL (      46 calls)
     s_psi        :      5.69s CPU      5.74s WALL (      46 calls)
     g_psi        :      0.07s CPU      0.07s WALL (      42 calls)

     Called by h_psi:
     h_psi:calbec :      6.01s CPU      6.05s WALL (      46 calls)
     vloc_psi     :     15.06s CPU     15.20s WALL (      46 calls)
     add_vuspsi   :      5.62s CPU      5.68s WALL (      46 calls)

     General routines
     calbec       :     16.56s CPU     16.68s WALL (      60 calls)
     fft          :     13.04s CPU     13.20s WALL (    2232 calls)
     ffts         :      0.08s CPU      0.08s WALL (       4 calls)
     fftw         :     16.81s CPU     16.97s WALL (   11316 calls)
     interpolate  :      0.03s CPU      0.03s WALL (       2 calls)
 
     Parallel routines

     PAW routines
     PAW_pot      :      0.57s CPU      0.58s WALL (       2 calls)
 
     PWSCF        :   4m50.09s CPU   5m 6.62s WALL

 
   This run was terminated on:  19:25: 4  24Mar2024            

=------------------------------------------------------------------------------=
   JOB DONE.
=------------------------------------------------------------------------------=
