
     Program PWSCF v.7.1 starts on 29Sep2023 at 12:35:13 

     This program is part of the open-source Quantum ESPRESSO suite
     for quantum simulation of materials; please cite
         "P. Giannozzi et al., J. Phys.:Condens. Matter 21 395502 (2009);
         "P. Giannozzi et al., J. Phys.:Condens. Matter 29 465901 (2017);
         "P. Giannozzi et al., J. Chem. Phys. 152 154105 (2020);
          URL http://www.quantum-espresso.org", 
     in publications or presentations arising from this work. More details at
     http://www.quantum-espresso.org/quote

     Parallel version (MPI & OpenMP), running on     256 processor cores
     Number of MPI processes:               256
     Threads/MPI process:                     1

     MPI processes distributed on     2 nodes
     1842399 MiB available memory on the printing compute node when the environment starts
 
     Reading input from espresso.pwi
Warning: card &CELL ignored
Warning: card    CELL_DYNAMICS    = 'BFGS' ignored
Warning: card / ignored

     Current dimensions of program PWSCF are:
     Max number of different atomic species (ntypx) = 10
     Max number of k-points (npk) =  40000
     Max angular momentum in pseudopotentials (lmaxx) =  4
     file C.pbe-n-kjpaw_psl.1.0.0.UPF: wavefunction(s)  2S 2P renormalized

     **************************************************************************
     Initializing libbeef V0.1.2 with the BEEF-vdW functional.
     Citation: Wellendorff et al., PRB 85, 235149 (2012).
     **************************************************************************


     IMPORTANT: XC functional enforced from input :
     Exchange-correlation= BEEF-VDW
                           (   1   4  43  14   2   0   0)
     Any further DFT definition will be discarded
     Please, verify this is what you really want

 
     K-points division:     npool     =       4
     R & G space division:  proc/nbgrp/npool/nimage =      64
     Subspace diagonalization in iterative solution of the eigenvalue problem:
     a serial algorithm will be used

 
     Parallelization info
     --------------------
     sticks:   dense  smooth     PW     G-vecs:    dense   smooth      PW
     Min         178     142     38                14350    10258    1410
     Max         179     143     39                14357    10265    1416
     Sum       11433    9133   2433               918657   656775   90447
 
     Using Slab Decomposition
 


     bravais-lattice index     =            1
     lattice parameter (alat)  =      20.2520  a.u.
     unit-cell volume          =    8306.2556 (a.u.)^3
     number of atoms/cell      =          215
     number of atomic types    =            1
     number of electrons       =       858.00
     number of Kohn-Sham states=          515
     kinetic-energy cutoff     =      70.0000  Ry
     charge density cutoff     =     350.0000  Ry
     scf convergence threshold =      1.0E-08
     mixing beta               =       0.7000
     number of iterations used =            8  plain     mixing
     energy convergence thresh.=      1.0E-04
     force convergence thresh. =      1.0E-03
     Exchange-correlation= BEEF-VDW
                           (   1   4  43  14   2   0   0)
     nstep                     =           50


     celldm(1)=  20.252024  celldm(2)=   0.000000  celldm(3)=   0.000000
     celldm(4)=   0.000000  celldm(5)=   0.000000  celldm(6)=   0.000000

     crystal axes: (cart. coord. in units of alat)
               a(1) = (   1.000000   0.000000   0.000000 )  
               a(2) = (   0.000000   1.000000   0.000000 )  
               a(3) = (   0.000000   0.000000   1.000000 )  

     reciprocal axes: (cart. coord. in units 2 pi/alat)
               b(1) = (  1.000000  0.000000  0.000000 )  
               b(2) = (  0.000000  1.000000  0.000000 )  
               b(3) = (  0.000000  0.000000  1.000000 )  


     PseudoPot. # 1 for C  read from file:
     //group///packages/espresso/pseudo/psl_1.0.0/pslibrary.1.0.0/pbe/PSEUDOPOTENTIALS/C.pbe-n-kjpaw_psl.1.0.0.UPF
     MD5 check sum: 5459cf7f2c8c37df2f7cde8914797f4d
     Pseudo is Projector augmented-wave + core cor, Zval =  4.0
     Generated using 'atomic' code by A. Dal Corso  v.7.1
     Shape of augmentation charge: PSQ
     Using radial grid of 1073 points,  4 beta functions with: 
                l(1) =   0
                l(2) =   0
                l(3) =   1
                l(4) =   1
     Q(r) pseudized with 0 coefficients 


     atomic species   valence    mass     pseudopotential
        C              4.00    12.01100     C ( 1.00)

      6 Sym. Ops. (no inversion) found ( 4 have fractional translation)


                                    s                        frac. trans.

      isym =  1     identity                                     

 cryst.   s( 1) = (     1          0          0      )
                  (     0          1          0      )
                  (     0          0          1      )

 cart.    s( 1) = (  1.0000000  0.0000000  0.0000000 )
                  (  0.0000000  1.0000000  0.0000000 )
                  (  0.0000000  0.0000000  1.0000000 )


      isym =  2     120 deg rotation - cart. axis [1,-1,1]       

 cryst.   s( 2) = (     0          0          1      )    f =( -0.3333333 )
                  (    -1          0          0      )       ( -0.3333333 )
                  (     0         -1          0      )       (  0.0000000 )

 cart.    s( 2) = (  0.0000000 -1.0000000  0.0000000 )    f =( -0.3333333 )
                  (  0.0000000  0.0000000 -1.0000000 )       ( -0.3333333 )
                  (  1.0000000  0.0000000  0.0000000 )       (  0.0000000 )


      isym =  3     120 deg rotation - cart. axis [-1,1,-1]      

 cryst.   s( 3) = (     0         -1          0      )    f =(  0.0000000 )
                  (     0          0         -1      )       ( -0.3333333 )
                  (     1          0          0      )       ( -0.3333333 )

 cart.    s( 3) = (  0.0000000  0.0000000  1.0000000 )    f =(  0.0000000 )
                  ( -1.0000000  0.0000000  0.0000000 )       ( -0.3333333 )
                  (  0.0000000 -1.0000000  0.0000000 )       ( -0.3333333 )


      isym =  4     inv. 180 deg rotation - cart. axis [1,1,0]   

 cryst.   s( 4) = (     0         -1          0      )    f =( -0.3333333 )
                  (    -1          0          0      )       ( -0.3333333 )
                  (     0          0          1      )       (  0.0000000 )

 cart.    s( 4) = (  0.0000000 -1.0000000  0.0000000 )    f =( -0.3333333 )
                  ( -1.0000000  0.0000000  0.0000000 )       ( -0.3333333 )
                  (  0.0000000  0.0000000  1.0000000 )       (  0.0000000 )


      isym =  5     inv. 180 deg rotation - cart. axis [-1,0,1]  

 cryst.   s( 5) = (     0          0          1      )
                  (     0          1          0      )
                  (     1          0          0      )

 cart.    s( 5) = (  0.0000000  0.0000000  1.0000000 )
                  (  0.0000000  1.0000000  0.0000000 )
                  (  1.0000000  0.0000000  0.0000000 )


      isym =  6     inv. 180 deg rotation - cart. axis [0,1,1]   

 cryst.   s( 6) = (     1          0          0      )    f =(  0.0000000 )
                  (     0          0         -1      )       ( -0.3333333 )
                  (     0         -1          0      )       ( -0.3333333 )

 cart.    s( 6) = (  1.0000000  0.0000000  0.0000000 )    f =(  0.0000000 )
                  (  0.0000000  0.0000000 -1.0000000 )       ( -0.3333333 )
                  (  0.0000000 -1.0000000  0.0000000 )       ( -0.3333333 )


     point group C_3v (3m)  
     there are  3 classes
     the character table:

       E     2C3   3s_v 
A_1    1.00  1.00  1.00
A_2    1.00  1.00 -1.00
E      2.00 -1.00  0.00

     the symmetry operations in each class and the name of the first element:

     E        1
          identity                                               
     2C3      2    3
          120 deg rotation - cart. axis [1,-1,1]                 
     3s_v     4    5    6
          inv. 180 deg rotation - cart. axis [1,1,0]             

   Cartesian axes

     site n.     atom                  positions (alat units)
         1           C   tau(   1) = (   0.0833353   0.2499980   0.4166687  )
         2           C   tau(   2) = (   0.0833353   0.2499980   0.7500020  )
         3           C   tau(   3) = (   0.0833353   0.5833313   0.0833353  )
         4           C   tau(   4) = (   0.0833353   0.5833313   0.4166687  )
         5           C   tau(   5) = (   0.0833353   0.5833313   0.7500020  )
         6           C   tau(   6) = (   0.0833353   0.9166647   0.0833353  )
         7           C   tau(   7) = (   0.0833353   0.9166647   0.4166687  )
         8           C   tau(   8) = (   0.0833353   0.9166647   0.7500020  )
         9           C   tau(   9) = (   0.4166687   0.2499980   0.0833353  )
        10           C   tau(  10) = (   0.4166687   0.2499980   0.4166687  )
        11           C   tau(  11) = (   0.4166687   0.2499980   0.7500020  )
        12           C   tau(  12) = (   0.4166687   0.5833313   0.0833353  )
        13           C   tau(  13) = (   0.4166687   0.5833313   0.4166687  )
        14           C   tau(  14) = (   0.4166687   0.5833313   0.7500020  )
        15           C   tau(  15) = (   0.4166687   0.9166647   0.0833353  )
        16           C   tau(  16) = (   0.4166687   0.9166647   0.4166687  )
        17           C   tau(  17) = (   0.4166687   0.9166647   0.7500020  )
        18           C   tau(  18) = (   0.7500020   0.2499980   0.0833353  )
        19           C   tau(  19) = (   0.7500020   0.2499980   0.4166687  )
        20           C   tau(  20) = (   0.7500020   0.2499980   0.7500020  )
        21           C   tau(  21) = (   0.7500020   0.5833313   0.0833353  )
        22           C   tau(  22) = (   0.7500020   0.5833313   0.4166687  )
        23           C   tau(  23) = (   0.7500020   0.5833313   0.7500020  )
        24           C   tau(  24) = (   0.7500020   0.9166647   0.0833353  )
        25           C   tau(  25) = (   0.7500020   0.9166647   0.4166687  )
        26           C   tau(  26) = (   0.7500020   0.9166647   0.7500020  )
        27           C   tau(  27) = (   0.0000000   0.0000000   0.1666667  )
        28           C   tau(  28) = (   0.0000000   0.0000000   0.5000000  )
        29           C   tau(  29) = (   0.0000000   0.0000000   0.8333333  )
        30           C   tau(  30) = (   0.0000000   0.3333333   0.1666667  )
        31           C   tau(  31) = (   0.0000000   0.3333333   0.5000000  )
        32           C   tau(  32) = (   0.0000000   0.3333333   0.8333333  )
        33           C   tau(  33) = (   0.0000000   0.6666667   0.1666667  )
        34           C   tau(  34) = (   0.0000000   0.6666667   0.5000000  )
        35           C   tau(  35) = (   0.0000000   0.6666667   0.8333333  )
        36           C   tau(  36) = (   0.3333333   0.0000000   0.1666667  )
        37           C   tau(  37) = (   0.3333333   0.0000000   0.5000000  )
        38           C   tau(  38) = (   0.3333333   0.0000000   0.8333333  )
        39           C   tau(  39) = (   0.3333333   0.3333333   0.1666667  )
        40           C   tau(  40) = (   0.3333333   0.3333333   0.5000000  )
        41           C   tau(  41) = (   0.3333333   0.3333333   0.8333333  )
        42           C   tau(  42) = (   0.3333333   0.6666667   0.1666667  )
        43           C   tau(  43) = (   0.3333333   0.6666667   0.5000000  )
        44           C   tau(  44) = (   0.3333333   0.6666667   0.8333333  )
        45           C   tau(  45) = (   0.6666667   0.0000000   0.1666667  )
        46           C   tau(  46) = (   0.6666667   0.0000000   0.5000000  )
        47           C   tau(  47) = (   0.6666667   0.0000000   0.8333333  )
        48           C   tau(  48) = (   0.6666667   0.3333333   0.1666667  )
        49           C   tau(  49) = (   0.6666667   0.3333333   0.5000000  )
        50           C   tau(  50) = (   0.6666667   0.3333333   0.8333333  )
        51           C   tau(  51) = (   0.6666667   0.6666667   0.1666667  )
        52           C   tau(  52) = (   0.6666667   0.6666667   0.5000000  )
        53           C   tau(  53) = (   0.6666667   0.6666667   0.8333333  )
        54           C   tau(  54) = (   0.0833353   0.0833353   0.2499980  )
        55           C   tau(  55) = (   0.0833353   0.0833353   0.5833313  )
        56           C   tau(  56) = (   0.0833353   0.0833353   0.9166647  )
        57           C   tau(  57) = (   0.0833353   0.4166687   0.2499980  )
        58           C   tau(  58) = (   0.0833353   0.4166687   0.5833313  )
        59           C   tau(  59) = (   0.0833353   0.4166687   0.9166647  )
        60           C   tau(  60) = (   0.0833353   0.7500020   0.2499980  )
        61           C   tau(  61) = (   0.0833353   0.7500020   0.5833313  )
        62           C   tau(  62) = (   0.0833353   0.7500020   0.9166647  )
        63           C   tau(  63) = (   0.4166687   0.0833353   0.2499980  )
        64           C   tau(  64) = (   0.4166687   0.0833353   0.5833313  )
        65           C   tau(  65) = (   0.4166687   0.0833353   0.9166647  )
        66           C   tau(  66) = (   0.4166687   0.4166687   0.2499980  )
        67           C   tau(  67) = (   0.4166687   0.4166687   0.5833313  )
        68           C   tau(  68) = (   0.4166687   0.4166687   0.9166647  )
        69           C   tau(  69) = (   0.4166687   0.7500020   0.2499980  )
        70           C   tau(  70) = (   0.4166687   0.7500020   0.5833313  )
        71           C   tau(  71) = (   0.4166687   0.7500020   0.9166647  )
        72           C   tau(  72) = (   0.7500020   0.0833353   0.2499980  )
        73           C   tau(  73) = (   0.7500020   0.0833353   0.5833313  )
        74           C   tau(  74) = (   0.7500020   0.0833353   0.9166647  )
        75           C   tau(  75) = (   0.7500020   0.4166687   0.2499980  )
        76           C   tau(  76) = (   0.7500020   0.4166687   0.5833313  )
        77           C   tau(  77) = (   0.7500020   0.4166687   0.9166647  )
        78           C   tau(  78) = (   0.7500020   0.7500020   0.2499980  )
        79           C   tau(  79) = (   0.7500020   0.7500020   0.5833313  )
        80           C   tau(  80) = (   0.7500020   0.7500020   0.9166647  )
        81           C   tau(  81) = (   0.0000000   0.1666667   0.0000000  )
        82           C   tau(  82) = (   0.0000000   0.1666667   0.3333333  )
        83           C   tau(  83) = (   0.0000000   0.1666667   0.6666667  )
        84           C   tau(  84) = (   0.0000000   0.5000000   0.0000000  )
        85           C   tau(  85) = (   0.0000000   0.5000000   0.3333333  )
        86           C   tau(  86) = (   0.0000000   0.5000000   0.6666667  )
        87           C   tau(  87) = (   0.0000000   0.8333333   0.0000000  )
        88           C   tau(  88) = (   0.0000000   0.8333333   0.3333333  )
        89           C   tau(  89) = (   0.0000000   0.8333333   0.6666667  )
        90           C   tau(  90) = (   0.3333333   0.1666667   0.0000000  )
        91           C   tau(  91) = (   0.3333333   0.1666667   0.3333333  )
        92           C   tau(  92) = (   0.3333333   0.1666667   0.6666667  )
        93           C   tau(  93) = (   0.3333333   0.5000000   0.0000000  )
        94           C   tau(  94) = (   0.3333333   0.5000000   0.3333333  )
        95           C   tau(  95) = (   0.3333333   0.5000000   0.6666667  )
        96           C   tau(  96) = (   0.3333333   0.8333333   0.0000000  )
        97           C   tau(  97) = (   0.3333333   0.8333333   0.3333333  )
        98           C   tau(  98) = (   0.3333333   0.8333333   0.6666667  )
        99           C   tau(  99) = (   0.6666667   0.1666667   0.0000000  )
       100           C   tau( 100) = (   0.6666667   0.1666667   0.3333333  )
       101           C   tau( 101) = (   0.6666667   0.1666667   0.6666667  )
       102           C   tau( 102) = (   0.6666667   0.5000000   0.0000000  )
       103           C   tau( 103) = (   0.6666667   0.5000000   0.3333333  )
       104           C   tau( 104) = (   0.6666667   0.5000000   0.6666667  )
       105           C   tau( 105) = (   0.6666667   0.8333333   0.0000000  )
       106           C   tau( 106) = (   0.6666667   0.8333333   0.3333333  )
       107           C   tau( 107) = (   0.6666667   0.8333333   0.6666667  )
       108           C   tau( 108) = (   0.2499980   0.2499980   0.2499980  )
       109           C   tau( 109) = (   0.2499980   0.2499980   0.5833313  )
       110           C   tau( 110) = (   0.2499980   0.2499980   0.9166647  )
       111           C   tau( 111) = (   0.2499980   0.5833313   0.2499980  )
       112           C   tau( 112) = (   0.2499980   0.5833313   0.5833313  )
       113           C   tau( 113) = (   0.2499980   0.5833313   0.9166647  )
       114           C   tau( 114) = (   0.2499980   0.9166647   0.2499980  )
       115           C   tau( 115) = (   0.2499980   0.9166647   0.5833313  )
       116           C   tau( 116) = (   0.2499980   0.9166647   0.9166647  )
       117           C   tau( 117) = (   0.5833313   0.2499980   0.2499980  )
       118           C   tau( 118) = (   0.5833313   0.2499980   0.5833313  )
       119           C   tau( 119) = (   0.5833313   0.2499980   0.9166647  )
       120           C   tau( 120) = (   0.5833313   0.5833313   0.2499980  )
       121           C   tau( 121) = (   0.5833313   0.5833313   0.5833313  )
       122           C   tau( 122) = (   0.5833313   0.5833313   0.9166647  )
       123           C   tau( 123) = (   0.5833313   0.9166647   0.2499980  )
       124           C   tau( 124) = (   0.5833313   0.9166647   0.5833313  )
       125           C   tau( 125) = (   0.5833313   0.9166647   0.9166647  )
       126           C   tau( 126) = (   0.9166647   0.2499980   0.2499980  )
       127           C   tau( 127) = (   0.9166647   0.2499980   0.5833313  )
       128           C   tau( 128) = (   0.9166647   0.2499980   0.9166647  )
       129           C   tau( 129) = (   0.9166647   0.5833313   0.2499980  )
       130           C   tau( 130) = (   0.9166647   0.5833313   0.5833313  )
       131           C   tau( 131) = (   0.9166647   0.5833313   0.9166647  )
       132           C   tau( 132) = (   0.9166647   0.9166647   0.2499980  )
       133           C   tau( 133) = (   0.9166647   0.9166647   0.5833313  )
       134           C   tau( 134) = (   0.9166647   0.9166647   0.9166647  )
       135           C   tau( 135) = (   0.1666667   0.0000000   0.0000000  )
       136           C   tau( 136) = (   0.1666667   0.0000000   0.3333333  )
       137           C   tau( 137) = (   0.1666667   0.0000000   0.6666667  )
       138           C   tau( 138) = (   0.1666667   0.3333333   0.0000000  )
       139           C   tau( 139) = (   0.1666667   0.3333333   0.3333333  )
       140           C   tau( 140) = (   0.1666667   0.3333333   0.6666667  )
       141           C   tau( 141) = (   0.1666667   0.6666667   0.0000000  )
       142           C   tau( 142) = (   0.1666667   0.6666667   0.3333333  )
       143           C   tau( 143) = (   0.1666667   0.6666667   0.6666667  )
       144           C   tau( 144) = (   0.5000000   0.0000000   0.0000000  )
       145           C   tau( 145) = (   0.5000000   0.0000000   0.3333333  )
       146           C   tau( 146) = (   0.5000000   0.0000000   0.6666667  )
       147           C   tau( 147) = (   0.5000000   0.3333333   0.0000000  )
       148           C   tau( 148) = (   0.5000000   0.3333333   0.3333333  )
       149           C   tau( 149) = (   0.5000000   0.3333333   0.6666667  )
       150           C   tau( 150) = (   0.5000000   0.6666667   0.0000000  )
       151           C   tau( 151) = (   0.5000000   0.6666667   0.3333333  )
       152           C   tau( 152) = (   0.5000000   0.6666667   0.6666667  )
       153           C   tau( 153) = (   0.8333333   0.0000000   0.0000000  )
       154           C   tau( 154) = (   0.8333333   0.0000000   0.3333333  )
       155           C   tau( 155) = (   0.8333333   0.0000000   0.6666667  )
       156           C   tau( 156) = (   0.8333333   0.3333333   0.0000000  )
       157           C   tau( 157) = (   0.8333333   0.3333333   0.3333333  )
       158           C   tau( 158) = (   0.8333333   0.3333333   0.6666667  )
       159           C   tau( 159) = (   0.8333333   0.6666667   0.0000000  )
       160           C   tau( 160) = (   0.8333333   0.6666667   0.3333333  )
       161           C   tau( 161) = (   0.8333333   0.6666667   0.6666667  )
       162           C   tau( 162) = (   0.2499980   0.0833353   0.0833353  )
       163           C   tau( 163) = (   0.2499980   0.0833353   0.4166687  )
       164           C   tau( 164) = (   0.2499980   0.0833353   0.7500020  )
       165           C   tau( 165) = (   0.2499980   0.4166687   0.0833353  )
       166           C   tau( 166) = (   0.2499980   0.4166687   0.4166687  )
       167           C   tau( 167) = (   0.2499980   0.4166687   0.7500020  )
       168           C   tau( 168) = (   0.2499980   0.7500020   0.0833353  )
       169           C   tau( 169) = (   0.2499980   0.7500020   0.4166687  )
       170           C   tau( 170) = (   0.2499980   0.7500020   0.7500020  )
       171           C   tau( 171) = (   0.5833313   0.0833353   0.0833353  )
       172           C   tau( 172) = (   0.5833313   0.0833353   0.4166687  )
       173           C   tau( 173) = (   0.5833313   0.0833353   0.7500020  )
       174           C   tau( 174) = (   0.5833313   0.4166687   0.0833353  )
       175           C   tau( 175) = (   0.5833313   0.4166687   0.4166687  )
       176           C   tau( 176) = (   0.5833313   0.4166687   0.7500020  )
       177           C   tau( 177) = (   0.5833313   0.7500020   0.0833353  )
       178           C   tau( 178) = (   0.5833313   0.7500020   0.4166687  )
       179           C   tau( 179) = (   0.5833313   0.7500020   0.7500020  )
       180           C   tau( 180) = (   0.9166647   0.0833353   0.0833353  )
       181           C   tau( 181) = (   0.9166647   0.0833353   0.4166687  )
       182           C   tau( 182) = (   0.9166647   0.0833353   0.7500020  )
       183           C   tau( 183) = (   0.9166647   0.4166687   0.0833353  )
       184           C   tau( 184) = (   0.9166647   0.4166687   0.4166687  )
       185           C   tau( 185) = (   0.9166647   0.4166687   0.7500020  )
       186           C   tau( 186) = (   0.9166647   0.7500020   0.0833353  )
       187           C   tau( 187) = (   0.9166647   0.7500020   0.4166687  )
       188           C   tau( 188) = (   0.9166647   0.7500020   0.7500020  )
       189           C   tau( 189) = (   0.1666667   0.1666667   0.1666667  )
       190           C   tau( 190) = (   0.1666667   0.1666667   0.5000000  )
       191           C   tau( 191) = (   0.1666667   0.1666667   0.8333333  )
       192           C   tau( 192) = (   0.1666667   0.5000000   0.1666667  )
       193           C   tau( 193) = (   0.1666667   0.5000000   0.5000000  )
       194           C   tau( 194) = (   0.1666667   0.5000000   0.8333333  )
       195           C   tau( 195) = (   0.1666667   0.8333333   0.1666667  )
       196           C   tau( 196) = (   0.1666667   0.8333333   0.5000000  )
       197           C   tau( 197) = (   0.1666667   0.8333333   0.8333333  )
       198           C   tau( 198) = (   0.5000000   0.1666667   0.1666667  )
       199           C   tau( 199) = (   0.5000000   0.1666667   0.5000000  )
       200           C   tau( 200) = (   0.5000000   0.1666667   0.8333333  )
       201           C   tau( 201) = (   0.5000000   0.5000000   0.1666667  )
       202           C   tau( 202) = (   0.5000000   0.5000000   0.5000000  )
       203           C   tau( 203) = (   0.5000000   0.5000000   0.8333333  )
       204           C   tau( 204) = (   0.5000000   0.8333333   0.1666667  )
       205           C   tau( 205) = (   0.5000000   0.8333333   0.5000000  )
       206           C   tau( 206) = (   0.5000000   0.8333333   0.8333333  )
       207           C   tau( 207) = (   0.8333333   0.1666667   0.1666667  )
       208           C   tau( 208) = (   0.8333333   0.1666667   0.5000000  )
       209           C   tau( 209) = (   0.8333333   0.1666667   0.8333333  )
       210           C   tau( 210) = (   0.8333333   0.5000000   0.1666667  )
       211           C   tau( 211) = (   0.8333333   0.5000000   0.5000000  )
       212           C   tau( 212) = (   0.8333333   0.5000000   0.8333333  )
       213           C   tau( 213) = (   0.8333333   0.8333333   0.1666667  )
       214           C   tau( 214) = (   0.8333333   0.8333333   0.5000000  )
       215           C   tau( 215) = (   0.8333333   0.8333333   0.8333333  )

   Crystallographic axes

     site n.     atom                  positions (cryst. coord.)
         1           C   tau(   1) = (  0.0833353  0.2499980  0.4166687  )
         2           C   tau(   2) = (  0.0833353  0.2499980  0.7500020  )
         3           C   tau(   3) = (  0.0833353  0.5833313  0.0833353  )
         4           C   tau(   4) = (  0.0833353  0.5833313  0.4166687  )
         5           C   tau(   5) = (  0.0833353  0.5833313  0.7500020  )
         6           C   tau(   6) = (  0.0833353  0.9166647  0.0833353  )
         7           C   tau(   7) = (  0.0833353  0.9166647  0.4166687  )
         8           C   tau(   8) = (  0.0833353  0.9166647  0.7500020  )
         9           C   tau(   9) = (  0.4166687  0.2499980  0.0833353  )
        10           C   tau(  10) = (  0.4166687  0.2499980  0.4166687  )
        11           C   tau(  11) = (  0.4166687  0.2499980  0.7500020  )
        12           C   tau(  12) = (  0.4166687  0.5833313  0.0833353  )
        13           C   tau(  13) = (  0.4166687  0.5833313  0.4166687  )
        14           C   tau(  14) = (  0.4166687  0.5833313  0.7500020  )
        15           C   tau(  15) = (  0.4166687  0.9166647  0.0833353  )
        16           C   tau(  16) = (  0.4166687  0.9166647  0.4166687  )
        17           C   tau(  17) = (  0.4166687  0.9166647  0.7500020  )
        18           C   tau(  18) = (  0.7500020  0.2499980  0.0833353  )
        19           C   tau(  19) = (  0.7500020  0.2499980  0.4166687  )
        20           C   tau(  20) = (  0.7500020  0.2499980  0.7500020  )
        21           C   tau(  21) = (  0.7500020  0.5833313  0.0833353  )
        22           C   tau(  22) = (  0.7500020  0.5833313  0.4166687  )
        23           C   tau(  23) = (  0.7500020  0.5833313  0.7500020  )
        24           C   tau(  24) = (  0.7500020  0.9166647  0.0833353  )
        25           C   tau(  25) = (  0.7500020  0.9166647  0.4166687  )
        26           C   tau(  26) = (  0.7500020  0.9166647  0.7500020  )
        27           C   tau(  27) = (  0.0000000  0.0000000  0.1666667  )
        28           C   tau(  28) = (  0.0000000  0.0000000  0.5000000  )
        29           C   tau(  29) = (  0.0000000  0.0000000  0.8333333  )
        30           C   tau(  30) = (  0.0000000  0.3333333  0.1666667  )
        31           C   tau(  31) = (  0.0000000  0.3333333  0.5000000  )
        32           C   tau(  32) = (  0.0000000  0.3333333  0.8333333  )
        33           C   tau(  33) = (  0.0000000  0.6666667  0.1666667  )
        34           C   tau(  34) = (  0.0000000  0.6666667  0.5000000  )
        35           C   tau(  35) = (  0.0000000  0.6666667  0.8333333  )
        36           C   tau(  36) = (  0.3333333  0.0000000  0.1666667  )
        37           C   tau(  37) = (  0.3333333  0.0000000  0.5000000  )
        38           C   tau(  38) = (  0.3333333  0.0000000  0.8333333  )
        39           C   tau(  39) = (  0.3333333  0.3333333  0.1666667  )
        40           C   tau(  40) = (  0.3333333  0.3333333  0.5000000  )
        41           C   tau(  41) = (  0.3333333  0.3333333  0.8333333  )
        42           C   tau(  42) = (  0.3333333  0.6666667  0.1666667  )
        43           C   tau(  43) = (  0.3333333  0.6666667  0.5000000  )
        44           C   tau(  44) = (  0.3333333  0.6666667  0.8333333  )
        45           C   tau(  45) = (  0.6666667  0.0000000  0.1666667  )
        46           C   tau(  46) = (  0.6666667  0.0000000  0.5000000  )
        47           C   tau(  47) = (  0.6666667  0.0000000  0.8333333  )
        48           C   tau(  48) = (  0.6666667  0.3333333  0.1666667  )
        49           C   tau(  49) = (  0.6666667  0.3333333  0.5000000  )
        50           C   tau(  50) = (  0.6666667  0.3333333  0.8333333  )
        51           C   tau(  51) = (  0.6666667  0.6666667  0.1666667  )
        52           C   tau(  52) = (  0.6666667  0.6666667  0.5000000  )
        53           C   tau(  53) = (  0.6666667  0.6666667  0.8333333  )
        54           C   tau(  54) = (  0.0833353  0.0833353  0.2499980  )
        55           C   tau(  55) = (  0.0833353  0.0833353  0.5833313  )
        56           C   tau(  56) = (  0.0833353  0.0833353  0.9166647  )
        57           C   tau(  57) = (  0.0833353  0.4166687  0.2499980  )
        58           C   tau(  58) = (  0.0833353  0.4166687  0.5833313  )
        59           C   tau(  59) = (  0.0833353  0.4166687  0.9166647  )
        60           C   tau(  60) = (  0.0833353  0.7500020  0.2499980  )
        61           C   tau(  61) = (  0.0833353  0.7500020  0.5833313  )
        62           C   tau(  62) = (  0.0833353  0.7500020  0.9166647  )
        63           C   tau(  63) = (  0.4166687  0.0833353  0.2499980  )
        64           C   tau(  64) = (  0.4166687  0.0833353  0.5833313  )
        65           C   tau(  65) = (  0.4166687  0.0833353  0.9166647  )
        66           C   tau(  66) = (  0.4166687  0.4166687  0.2499980  )
        67           C   tau(  67) = (  0.4166687  0.4166687  0.5833313  )
        68           C   tau(  68) = (  0.4166687  0.4166687  0.9166647  )
        69           C   tau(  69) = (  0.4166687  0.7500020  0.2499980  )
        70           C   tau(  70) = (  0.4166687  0.7500020  0.5833313  )
        71           C   tau(  71) = (  0.4166687  0.7500020  0.9166647  )
        72           C   tau(  72) = (  0.7500020  0.0833353  0.2499980  )
        73           C   tau(  73) = (  0.7500020  0.0833353  0.5833313  )
        74           C   tau(  74) = (  0.7500020  0.0833353  0.9166647  )
        75           C   tau(  75) = (  0.7500020  0.4166687  0.2499980  )
        76           C   tau(  76) = (  0.7500020  0.4166687  0.5833313  )
        77           C   tau(  77) = (  0.7500020  0.4166687  0.9166647  )
        78           C   tau(  78) = (  0.7500020  0.7500020  0.2499980  )
        79           C   tau(  79) = (  0.7500020  0.7500020  0.5833313  )
        80           C   tau(  80) = (  0.7500020  0.7500020  0.9166647  )
        81           C   tau(  81) = (  0.0000000  0.1666667  0.0000000  )
        82           C   tau(  82) = (  0.0000000  0.1666667  0.3333333  )
        83           C   tau(  83) = (  0.0000000  0.1666667  0.6666667  )
        84           C   tau(  84) = (  0.0000000  0.5000000  0.0000000  )
        85           C   tau(  85) = (  0.0000000  0.5000000  0.3333333  )
        86           C   tau(  86) = (  0.0000000  0.5000000  0.6666667  )
        87           C   tau(  87) = (  0.0000000  0.8333333  0.0000000  )
        88           C   tau(  88) = (  0.0000000  0.8333333  0.3333333  )
        89           C   tau(  89) = (  0.0000000  0.8333333  0.6666667  )
        90           C   tau(  90) = (  0.3333333  0.1666667  0.0000000  )
        91           C   tau(  91) = (  0.3333333  0.1666667  0.3333333  )
        92           C   tau(  92) = (  0.3333333  0.1666667  0.6666667  )
        93           C   tau(  93) = (  0.3333333  0.5000000  0.0000000  )
        94           C   tau(  94) = (  0.3333333  0.5000000  0.3333333  )
        95           C   tau(  95) = (  0.3333333  0.5000000  0.6666667  )
        96           C   tau(  96) = (  0.3333333  0.8333333  0.0000000  )
        97           C   tau(  97) = (  0.3333333  0.8333333  0.3333333  )
        98           C   tau(  98) = (  0.3333333  0.8333333  0.6666667  )
        99           C   tau(  99) = (  0.6666667  0.1666667  0.0000000  )
       100           C   tau( 100) = (  0.6666667  0.1666667  0.3333333  )
       101           C   tau( 101) = (  0.6666667  0.1666667  0.6666667  )
       102           C   tau( 102) = (  0.6666667  0.5000000  0.0000000  )
       103           C   tau( 103) = (  0.6666667  0.5000000  0.3333333  )
       104           C   tau( 104) = (  0.6666667  0.5000000  0.6666667  )
       105           C   tau( 105) = (  0.6666667  0.8333333  0.0000000  )
       106           C   tau( 106) = (  0.6666667  0.8333333  0.3333333  )
       107           C   tau( 107) = (  0.6666667  0.8333333  0.6666667  )
       108           C   tau( 108) = (  0.2499980  0.2499980  0.2499980  )
       109           C   tau( 109) = (  0.2499980  0.2499980  0.5833313  )
       110           C   tau( 110) = (  0.2499980  0.2499980  0.9166647  )
       111           C   tau( 111) = (  0.2499980  0.5833313  0.2499980  )
       112           C   tau( 112) = (  0.2499980  0.5833313  0.5833313  )
       113           C   tau( 113) = (  0.2499980  0.5833313  0.9166647  )
       114           C   tau( 114) = (  0.2499980  0.9166647  0.2499980  )
       115           C   tau( 115) = (  0.2499980  0.9166647  0.5833313  )
       116           C   tau( 116) = (  0.2499980  0.9166647  0.9166647  )
       117           C   tau( 117) = (  0.5833313  0.2499980  0.2499980  )
       118           C   tau( 118) = (  0.5833313  0.2499980  0.5833313  )
       119           C   tau( 119) = (  0.5833313  0.2499980  0.9166647  )
       120           C   tau( 120) = (  0.5833313  0.5833313  0.2499980  )
       121           C   tau( 121) = (  0.5833313  0.5833313  0.5833313  )
       122           C   tau( 122) = (  0.5833313  0.5833313  0.9166647  )
       123           C   tau( 123) = (  0.5833313  0.9166647  0.2499980  )
       124           C   tau( 124) = (  0.5833313  0.9166647  0.5833313  )
       125           C   tau( 125) = (  0.5833313  0.9166647  0.9166647  )
       126           C   tau( 126) = (  0.9166647  0.2499980  0.2499980  )
       127           C   tau( 127) = (  0.9166647  0.2499980  0.5833313  )
       128           C   tau( 128) = (  0.9166647  0.2499980  0.9166647  )
       129           C   tau( 129) = (  0.9166647  0.5833313  0.2499980  )
       130           C   tau( 130) = (  0.9166647  0.5833313  0.5833313  )
       131           C   tau( 131) = (  0.9166647  0.5833313  0.9166647  )
       132           C   tau( 132) = (  0.9166647  0.9166647  0.2499980  )
       133           C   tau( 133) = (  0.9166647  0.9166647  0.5833313  )
       134           C   tau( 134) = (  0.9166647  0.9166647  0.9166647  )
       135           C   tau( 135) = (  0.1666667  0.0000000  0.0000000  )
       136           C   tau( 136) = (  0.1666667  0.0000000  0.3333333  )
       137           C   tau( 137) = (  0.1666667  0.0000000  0.6666667  )
       138           C   tau( 138) = (  0.1666667  0.3333333  0.0000000  )
       139           C   tau( 139) = (  0.1666667  0.3333333  0.3333333  )
       140           C   tau( 140) = (  0.1666667  0.3333333  0.6666667  )
       141           C   tau( 141) = (  0.1666667  0.6666667  0.0000000  )
       142           C   tau( 142) = (  0.1666667  0.6666667  0.3333333  )
       143           C   tau( 143) = (  0.1666667  0.6666667  0.6666667  )
       144           C   tau( 144) = (  0.5000000  0.0000000  0.0000000  )
       145           C   tau( 145) = (  0.5000000  0.0000000  0.3333333  )
       146           C   tau( 146) = (  0.5000000  0.0000000  0.6666667  )
       147           C   tau( 147) = (  0.5000000  0.3333333  0.0000000  )
       148           C   tau( 148) = (  0.5000000  0.3333333  0.3333333  )
       149           C   tau( 149) = (  0.5000000  0.3333333  0.6666667  )
       150           C   tau( 150) = (  0.5000000  0.6666667  0.0000000  )
       151           C   tau( 151) = (  0.5000000  0.6666667  0.3333333  )
       152           C   tau( 152) = (  0.5000000  0.6666667  0.6666667  )
       153           C   tau( 153) = (  0.8333333  0.0000000  0.0000000  )
       154           C   tau( 154) = (  0.8333333  0.0000000  0.3333333  )
       155           C   tau( 155) = (  0.8333333  0.0000000  0.6666667  )
       156           C   tau( 156) = (  0.8333333  0.3333333  0.0000000  )
       157           C   tau( 157) = (  0.8333333  0.3333333  0.3333333  )
       158           C   tau( 158) = (  0.8333333  0.3333333  0.6666667  )
       159           C   tau( 159) = (  0.8333333  0.6666667  0.0000000  )
       160           C   tau( 160) = (  0.8333333  0.6666667  0.3333333  )
       161           C   tau( 161) = (  0.8333333  0.6666667  0.6666667  )
       162           C   tau( 162) = (  0.2499980  0.0833353  0.0833353  )
       163           C   tau( 163) = (  0.2499980  0.0833353  0.4166687  )
       164           C   tau( 164) = (  0.2499980  0.0833353  0.7500020  )
       165           C   tau( 165) = (  0.2499980  0.4166687  0.0833353  )
       166           C   tau( 166) = (  0.2499980  0.4166687  0.4166687  )
       167           C   tau( 167) = (  0.2499980  0.4166687  0.7500020  )
       168           C   tau( 168) = (  0.2499980  0.7500020  0.0833353  )
       169           C   tau( 169) = (  0.2499980  0.7500020  0.4166687  )
       170           C   tau( 170) = (  0.2499980  0.7500020  0.7500020  )
       171           C   tau( 171) = (  0.5833313  0.0833353  0.0833353  )
       172           C   tau( 172) = (  0.5833313  0.0833353  0.4166687  )
       173           C   tau( 173) = (  0.5833313  0.0833353  0.7500020  )
       174           C   tau( 174) = (  0.5833313  0.4166687  0.0833353  )
       175           C   tau( 175) = (  0.5833313  0.4166687  0.4166687  )
       176           C   tau( 176) = (  0.5833313  0.4166687  0.7500020  )
       177           C   tau( 177) = (  0.5833313  0.7500020  0.0833353  )
       178           C   tau( 178) = (  0.5833313  0.7500020  0.4166687  )
       179           C   tau( 179) = (  0.5833313  0.7500020  0.7500020  )
       180           C   tau( 180) = (  0.9166647  0.0833353  0.0833353  )
       181           C   tau( 181) = (  0.9166647  0.0833353  0.4166687  )
       182           C   tau( 182) = (  0.9166647  0.0833353  0.7500020  )
       183           C   tau( 183) = (  0.9166647  0.4166687  0.0833353  )
       184           C   tau( 184) = (  0.9166647  0.4166687  0.4166687  )
       185           C   tau( 185) = (  0.9166647  0.4166687  0.7500020  )
       186           C   tau( 186) = (  0.9166647  0.7500020  0.0833353  )
       187           C   tau( 187) = (  0.9166647  0.7500020  0.4166687  )
       188           C   tau( 188) = (  0.9166647  0.7500020  0.7500020  )
       189           C   tau( 189) = (  0.1666667  0.1666667  0.1666667  )
       190           C   tau( 190) = (  0.1666667  0.1666667  0.5000000  )
       191           C   tau( 191) = (  0.1666667  0.1666667  0.8333333  )
       192           C   tau( 192) = (  0.1666667  0.5000000  0.1666667  )
       193           C   tau( 193) = (  0.1666667  0.5000000  0.5000000  )
       194           C   tau( 194) = (  0.1666667  0.5000000  0.8333333  )
       195           C   tau( 195) = (  0.1666667  0.8333333  0.1666667  )
       196           C   tau( 196) = (  0.1666667  0.8333333  0.5000000  )
       197           C   tau( 197) = (  0.1666667  0.8333333  0.8333333  )
       198           C   tau( 198) = (  0.5000000  0.1666667  0.1666667  )
       199           C   tau( 199) = (  0.5000000  0.1666667  0.5000000  )
       200           C   tau( 200) = (  0.5000000  0.1666667  0.8333333  )
       201           C   tau( 201) = (  0.5000000  0.5000000  0.1666667  )
       202           C   tau( 202) = (  0.5000000  0.5000000  0.5000000  )
       203           C   tau( 203) = (  0.5000000  0.5000000  0.8333333  )
       204           C   tau( 204) = (  0.5000000  0.8333333  0.1666667  )
       205           C   tau( 205) = (  0.5000000  0.8333333  0.5000000  )
       206           C   tau( 206) = (  0.5000000  0.8333333  0.8333333  )
       207           C   tau( 207) = (  0.8333333  0.1666667  0.1666667  )
       208           C   tau( 208) = (  0.8333333  0.1666667  0.5000000  )
       209           C   tau( 209) = (  0.8333333  0.1666667  0.8333333  )
       210           C   tau( 210) = (  0.8333333  0.5000000  0.1666667  )
       211           C   tau( 211) = (  0.8333333  0.5000000  0.5000000  )
       212           C   tau( 212) = (  0.8333333  0.5000000  0.8333333  )
       213           C   tau( 213) = (  0.8333333  0.8333333  0.1666667  )
       214           C   tau( 214) = (  0.8333333  0.8333333  0.5000000  )
       215           C   tau( 215) = (  0.8333333  0.8333333  0.8333333  )

     number of k points=     4  Gaussian smearing, width (Ry)=  0.0100
                       cart. coord. in units 2pi/alat
        k(    1) = (   0.0000000   0.0000000   0.0000000), wk =   0.2500000
        k(    2) = (   0.0000000   0.0000000  -0.5000000), wk =   0.7500000
        k(    3) = (   0.0000000  -0.5000000  -0.5000000), wk =   0.7500000
        k(    4) = (  -0.5000000  -0.5000000  -0.5000000), wk =   0.2500000

                       cryst. coord.
        k(    1) = (   0.0000000   0.0000000   0.0000000), wk =   0.2500000
        k(    2) = (   0.0000000   0.0000000  -0.5000000), wk =   0.7500000
        k(    3) = (   0.0000000  -0.5000000  -0.5000000), wk =   0.7500000
        k(    4) = (  -0.5000000  -0.5000000  -0.5000000), wk =   0.2500000

     Dense  grid:   918657 G-vectors     FFT dimensions: ( 135, 135, 135)

     Smooth grid:   656775 G-vectors     FFT dimensions: ( 108, 108, 108)

     Dynamical RAM for                 wfc:      10.08 MB

     Dynamical RAM for     wfc (w. buffer):      10.08 MB

     Dynamical RAM for           str. fact:       0.22 MB

     Dynamical RAM for           local pot:       0.00 MB

     Dynamical RAM for          nlocal pot:      33.67 MB

     Dynamical RAM for                qrad:       0.43 MB

     Dynamical RAM for          rho,v,vnew:       1.91 MB

     Dynamical RAM for               rhoin:       0.64 MB

     Dynamical RAM for            rho*nmix:       3.50 MB

     Dynamical RAM for           G-vectors:       0.90 MB

     Dynamical RAM for          h,s,v(r/c):     194.26 MB

     Dynamical RAM for          <psi|beta>:      13.52 MB

     Dynamical RAM for                 psi:      40.33 MB

     Dynamical RAM for                hpsi:      40.33 MB

     Dynamical RAM for                spsi:      40.33 MB

     Dynamical RAM for      wfcinit/wfcrot:      50.61 MB

     Dynamical RAM for           addusdens:      14.29 MB

     Dynamical RAM for          addusforce:      37.84 MB

     Dynamical RAM for         addusstress:       2.82 MB

     Estimated static dynamical RAM per process >      50.37 MB

     Estimated max dynamical RAM per process >     382.63 MB

     Estimated total dynamical RAM >      95.00 GB

     Check: negative core charge=   -0.000014

     Initial potential from superposition of free atoms

     starting charge     859.9911, renormalised to     858.0000


     %%%%%%%%%%%%%%%%%%%%%%%%%%%%%%%%%%%%%%%%%%%%%%%%%%%%%%%%%%%%%%%%%%%%%%%%
     %                                                                      %
     % You are using vdW-DF, which was implemented by the Thonhauser group. %
     % Please cite the following two papers that made this development      %
     % possible and the two reviews that describe the various versions:     %
     %                                                                      %
     %   T. Thonhauser et al., PRL 115, 136402 (2015).                      %
     %   T. Thonhauser et al., PRB 76, 125112 (2007).                       %
     %   K. Berland et al., Rep. Prog. Phys. 78, 066501 (2015).             %
     %   D.C. Langreth et al., J. Phys.: Condens. Matter 21, 084203 (2009). %
     %                                                                      %
     % If you are calculating stress with vdW-DF, please also cite:         %
     %                                                                      %
     %   R. Sabatini et al., J. Phys.: Condens. Matter 24, 424209 (2012).   %
     %                                                                      %
     %%%%%%%%%%%%%%%%%%%%%%%%%%%%%%%%%%%%%%%%%%%%%%%%%%%%%%%%%%%%%%%%%%%%%%%%

     %%%%%%%%%%%%%%%%%%%%%%%%%%%%%%%%%%%%%%%%%%%%%%%%%%%%%%%%%%%%%%%%%%%%%%%%
     %                                                                      %
     %  vdW-DF NEWS:                                                        %
     %                                                                      %
     %  * vdW-DF3 is now available. DOI: 10.1021/acs.jctc.0c00471           %
     %    use with input_dft = 'vdW-DF3-opt1' or 'vdW-DF3-opt2'             %
     %                                                                      %
     %  * Unscreened and range-separated vdW-DF hybrid functionals          %
     %    DOI: 10.1063/1.4986522 and 10.1088/1361-648X/ac2ad2               %
     %    use with input_dft = 'vdW-DF-cx0' (etc) and 'vdW-DF-ahcx'         %
     %                                                                      %
     %%%%%%%%%%%%%%%%%%%%%%%%%%%%%%%%%%%%%%%%%%%%%%%%%%%%%%%%%%%%%%%%%%%%%%%%


     Carrying out vdW-DF run using the following parameters:
     Nqs    =  20  Npoints =  1024  r_max =  100.000
     q_mesh =  0.00001000  0.04494208  0.09755937  0.15916263
               0.23128650  0.31572767  0.41458969  0.53033537
               0.66584808  0.82450364  1.01025438  1.22772762
               1.48234092  1.78043706  2.12944203  2.53805004
               3.01644009  3.57652955  4.23227104  5.00000000


     -----------------------------------------------
     Non-local corr. energy    =       5.42235145 Ry
     -----------------------------------------------

     Starting wfcs are  860 randomized atomic wfcs
     Checking if some PAW data can be deallocated... 

     total cpu time spent up to now is        6.2 secs

     Self-consistent Calculation

     iteration #  1     ecut=    70.00 Ry     beta= 0.70
     Davidson diagonalization with overlap

---- Real-time Memory Report at c_bands before calling an iterative solver
           337 MiB given to the printing process from OS
             0 MiB allocation reported by mallinfo(arena+hblkhd)
       1830593 MiB available memory on the node where the printing process lives
------------------
     ethr =  1.00E-02,  avg # of iterations =  3.0


     -----------------------------------------------
     Non-local corr. energy    =       6.94565415 Ry
     -----------------------------------------------


     total cpu time spent up to now is       21.6 secs

     total energy              =   -4083.61457210 Ry
     estimated scf accuracy    <      13.50312161 Ry

     iteration #  2     ecut=    70.00 Ry     beta= 0.70
     Davidson diagonalization with overlap

---- Real-time Memory Report at c_bands before calling an iterative solver
           478 MiB given to the printing process from OS
             0 MiB allocation reported by mallinfo(arena+hblkhd)
       1827366 MiB available memory on the node where the printing process lives
------------------
     ethr =  1.57E-03,  avg # of iterations =  8.5


     -----------------------------------------------
     Non-local corr. energy    =       7.07302475 Ry
     -----------------------------------------------


     total cpu time spent up to now is       50.3 secs

     total energy              =   -4079.02862654 Ry
     estimated scf accuracy    <      15.79372387 Ry

     iteration #  3     ecut=    70.00 Ry     beta= 0.70
     Davidson diagonalization with overlap

---- Real-time Memory Report at c_bands before calling an iterative solver
           491 MiB given to the printing process from OS
             0 MiB allocation reported by mallinfo(arena+hblkhd)
       1827297 MiB available memory on the node where the printing process lives
------------------
     ethr =  1.57E-03,  avg # of iterations = 10.5


     -----------------------------------------------
     Non-local corr. energy    =       7.27210401 Ry
     -----------------------------------------------


     total cpu time spent up to now is       87.5 secs

     total energy              =   -4082.00146861 Ry
     estimated scf accuracy    <      24.49424864 Ry

     iteration #  4     ecut=    70.00 Ry     beta= 0.70
     Davidson diagonalization with overlap

---- Real-time Memory Report at c_bands before calling an iterative solver
           513 MiB given to the printing process from OS
             0 MiB allocation reported by mallinfo(arena+hblkhd)
       1827246 MiB available memory on the node where the printing process lives
------------------
     ethr =  1.57E-03,  avg # of iterations =  8.0


     -----------------------------------------------
     Non-local corr. energy    =       7.30514253 Ry
     -----------------------------------------------


     total cpu time spent up to now is      118.9 secs

     total energy              =   -4084.78310337 Ry
     estimated scf accuracy    <       1.31879024 Ry

     iteration #  5     ecut=    70.00 Ry     beta= 0.70
     Davidson diagonalization with overlap

---- Real-time Memory Report at c_bands before calling an iterative solver
           513 MiB given to the printing process from OS
             0 MiB allocation reported by mallinfo(arena+hblkhd)
       1827182 MiB available memory on the node where the printing process lives
------------------
     ethr =  1.54E-04,  avg # of iterations = 14.0


     -----------------------------------------------
     Non-local corr. energy    =       7.32297718 Ry
     -----------------------------------------------


     total cpu time spent up to now is      166.4 secs

     total energy              =   -4084.90009372 Ry
     estimated scf accuracy    <       0.33769436 Ry

     iteration #  6     ecut=    70.00 Ry     beta= 0.70
     Davidson diagonalization with overlap

---- Real-time Memory Report at c_bands before calling an iterative solver
           513 MiB given to the printing process from OS
             0 MiB allocation reported by mallinfo(arena+hblkhd)
       1827130 MiB available memory on the node where the printing process lives
------------------
     ethr =  3.94E-05,  avg # of iterations = 13.8


     -----------------------------------------------
     Non-local corr. energy    =       7.34137848 Ry
     -----------------------------------------------


     total cpu time spent up to now is      208.0 secs

     total energy              =   -4084.88742266 Ry
     estimated scf accuracy    <       0.12445097 Ry

     iteration #  7     ecut=    70.00 Ry     beta= 0.70
     Davidson diagonalization with overlap

---- Real-time Memory Report at c_bands before calling an iterative solver
           513 MiB given to the printing process from OS
             0 MiB allocation reported by mallinfo(arena+hblkhd)
       1827066 MiB available memory on the node where the printing process lives
------------------
     ethr =  1.45E-05,  avg # of iterations = 16.3


     -----------------------------------------------
     Non-local corr. energy    =       7.34822156 Ry
     -----------------------------------------------


     total cpu time spent up to now is      253.9 secs

     total energy              =   -4084.89929221 Ry
     estimated scf accuracy    <       0.00331318 Ry

     iteration #  8     ecut=    70.00 Ry     beta= 0.70
     Davidson diagonalization with overlap

---- Real-time Memory Report at c_bands before calling an iterative solver
           513 MiB given to the printing process from OS
             0 MiB allocation reported by mallinfo(arena+hblkhd)
       1827030 MiB available memory on the node where the printing process lives
------------------
     c_bands:  1 eigenvalues not converged
     ethr =  3.86E-07,  avg # of iterations = 18.5


     -----------------------------------------------
     Non-local corr. energy    =       7.34907717 Ry
     -----------------------------------------------


     total cpu time spent up to now is      342.5 secs

     total energy              =   -4084.90023446 Ry
     estimated scf accuracy    <       0.00223924 Ry

     iteration #  9     ecut=    70.00 Ry     beta= 0.70
     Davidson diagonalization with overlap

---- Real-time Memory Report at c_bands before calling an iterative solver
           561 MiB given to the printing process from OS
             0 MiB allocation reported by mallinfo(arena+hblkhd)
       1826927 MiB available memory on the node where the printing process lives
------------------
     ethr =  2.61E-07,  avg # of iterations = 15.8


     -----------------------------------------------
     Non-local corr. energy    =       7.34962285 Ry
     -----------------------------------------------


     total cpu time spent up to now is      396.0 secs

     total energy              =   -4084.90052037 Ry
     estimated scf accuracy    <       0.00010392 Ry

     iteration # 10     ecut=    70.00 Ry     beta= 0.70
     Davidson diagonalization with overlap

---- Real-time Memory Report at c_bands before calling an iterative solver
           561 MiB given to the printing process from OS
             0 MiB allocation reported by mallinfo(arena+hblkhd)
       1826881 MiB available memory on the node where the printing process lives
------------------
     c_bands:  1 eigenvalues not converged
     ethr =  1.21E-08,  avg # of iterations = 16.5


     -----------------------------------------------
     Non-local corr. energy    =       7.34990545 Ry
     -----------------------------------------------


     total cpu time spent up to now is      471.8 secs

     total energy              =   -4084.90053965 Ry
     estimated scf accuracy    <       0.00003035 Ry

     iteration # 11     ecut=    70.00 Ry     beta= 0.70
     Davidson diagonalization with overlap

---- Real-time Memory Report at c_bands before calling an iterative solver
           561 MiB given to the printing process from OS
             0 MiB allocation reported by mallinfo(arena+hblkhd)
       1826832 MiB available memory on the node where the printing process lives
------------------
     ethr =  3.54E-09,  avg # of iterations = 17.0


     -----------------------------------------------
     Non-local corr. energy    =       7.34996509 Ry
     -----------------------------------------------


     total cpu time spent up to now is      532.8 secs

     total energy              =   -4084.90054377 Ry
     estimated scf accuracy    <       0.00000849 Ry

     iteration # 12     ecut=    70.00 Ry     beta= 0.70
     Davidson diagonalization with overlap

---- Real-time Memory Report at c_bands before calling an iterative solver
           561 MiB given to the printing process from OS
             0 MiB allocation reported by mallinfo(arena+hblkhd)
       1826824 MiB available memory on the node where the printing process lives
------------------
     ethr =  9.89E-10,  avg # of iterations = 17.0


     -----------------------------------------------
     Non-local corr. energy    =       7.34997614 Ry
     -----------------------------------------------


     total cpu time spent up to now is      593.2 secs

     total energy              =   -4084.90054554 Ry
     estimated scf accuracy    <       0.00000157 Ry

     iteration # 13     ecut=    70.00 Ry     beta= 0.70
     Davidson diagonalization with overlap

---- Real-time Memory Report at c_bands before calling an iterative solver
           561 MiB given to the printing process from OS
             0 MiB allocation reported by mallinfo(arena+hblkhd)
       1826813 MiB available memory on the node where the printing process lives
------------------
     ethr =  1.82E-10,  avg # of iterations = 17.8


     -----------------------------------------------
     Non-local corr. energy    =       7.34998943 Ry
     -----------------------------------------------


     total cpu time spent up to now is      649.7 secs

     total energy              =   -4084.90054581 Ry
     estimated scf accuracy    <       0.00000003 Ry

     iteration # 14     ecut=    70.00 Ry     beta= 0.70
     Davidson diagonalization with overlap

---- Real-time Memory Report at c_bands before calling an iterative solver
           561 MiB given to the printing process from OS
             0 MiB allocation reported by mallinfo(arena+hblkhd)
       1826792 MiB available memory on the node where the printing process lives
------------------
     ethr =  3.91E-12,  avg # of iterations = 17.5


     -----------------------------------------------
     Non-local corr. energy    =       7.34999781 Ry
     -----------------------------------------------


     total cpu time spent up to now is      734.3 secs

     total energy              =   -4084.90054583 Ry
     estimated scf accuracy    <       0.00000001 Ry

     iteration # 15     ecut=    70.00 Ry     beta= 0.70
     Davidson diagonalization with overlap

---- Real-time Memory Report at c_bands before calling an iterative solver
           571 MiB given to the printing process from OS
             0 MiB allocation reported by mallinfo(arena+hblkhd)
       1826781 MiB available memory on the node where the printing process lives
------------------
     ethr =  1.28E-12,  avg # of iterations = 17.0


     -----------------------------------------------
     Non-local corr. energy    =       7.34999991 Ry
     -----------------------------------------------


     total cpu time spent up to now is      805.5 secs

     End of self-consistent calculation

          k = 0.0000 0.0000 0.0000 ( 82057 PWs)   bands (ev):

    -8.5088  -7.5316  -7.5316  -7.5316  -7.4866  -7.4866  -7.4216  -6.5441
    -6.5441  -6.5441  -6.5252  -6.5252  -6.5252  -6.4946  -6.4946  -6.4946
    -6.4781  -6.4781  -6.3000  -5.5637  -5.5637  -5.5637  -5.5439  -5.5090
    -5.5090  -5.5090  -5.3678  -4.5616  -4.5616  -4.5310  -4.5310  -4.5310
    -4.4152  -3.6829  -3.6829  -3.6829  -3.6583  -3.6583  -3.6583  -3.6342
    -3.6342  -3.6054  -3.6054  -3.6053  -3.6026  -3.6026  -3.5967  -3.5966
    -3.5966  -3.5857  -3.5857  -3.5856  -3.5787  -3.5786  -3.5786  -3.5552
    -3.2992  -2.9454  -2.9453  -2.9453  -2.8678  -2.8678  -2.8677  -2.8669
    -2.8669  -2.8588  -2.8587  -2.8587  -2.8325  -2.8203  -2.8201  -2.8201
    -2.8084  -2.8083  -2.8079  -2.8079  -2.8078  -2.7742  -2.7740  -2.7740
    -2.0959  -1.2260  -1.2260  -1.2152  -1.2152  -1.2152  -1.2046  -1.2046
    -1.2046  -1.1806  -1.1806  -1.1806  -0.8141   0.0883   0.0883   0.1226
     0.1229   0.1229   0.2281   0.5568   0.5568   0.5569   0.5854   0.5854
     0.5911   0.5911   0.5913   0.6104   0.6106   0.6106   0.6516   0.6517
     0.6517   0.6642   0.6642   0.6647   0.6648   0.6648   0.6804   0.6804
     0.6806   0.6980   0.7992   0.9452   0.9486   0.9486   0.9487   0.9495
     0.9496   0.9496   0.9530   0.9530   0.9913   0.9913   0.9914   0.9986
     0.9986   0.9987   1.0011   1.0012   1.0012   1.0013   1.0013   1.0884
     1.0884   1.0884   1.6612   1.9299   1.9299   1.9299   1.9421   1.9421
     1.9593   1.9593   1.9593   1.9819   1.9819   1.9820   2.7728   3.5603
     3.5603   3.5603   3.5616   3.5951   3.5951   3.5951   3.6577   3.6577
     3.6577   3.6621   3.6621   3.6707   3.6966   3.6966   3.6966   3.7256
     3.7426   3.7426   3.7426   4.1298   4.1299   4.1299   4.1349   4.1349
     4.1351   4.1454   4.1454   4.1694   4.1694   4.1766   4.1766   4.1766
     4.1774   4.1776   4.1776   4.1804   4.1804   4.1805   4.2137   4.2960
     4.2960   4.2960   5.0740   5.1306   5.1308   5.1308   5.1363   5.1615
     5.1615   5.1616   5.1642   5.1642   5.2138   5.2139   5.2139   5.2304
     5.2304   5.2306   5.2338   5.2338   5.2598   5.2599   5.2599   5.2920
     5.3439   5.3439   5.3440   5.6411   5.6411   5.6473   5.6473   5.6475
     5.6514   5.6556   5.6556   5.6557   5.6572   5.6572   5.6603   5.6606
     5.6606   5.6737   5.6737   5.6739   5.6749   5.6810   5.6810   5.6810
     5.6892   5.6895   5.6895   5.6940   5.6940   5.9811   5.9811   5.9812
     6.5069   6.6397   6.6399   6.6399   6.6953   6.6953   6.6954   7.1739
     7.1739   7.1739   7.1922   7.1922   7.1922   7.1957   7.1957   7.2473
     7.2473   7.2473   7.4810   7.6083   7.6084   7.6084   7.6136   7.6136
     7.6136   7.6224   7.6224   7.6224   7.6821   7.6821   7.6821   7.8421
     7.8421   7.8421   7.8535   7.8535   7.8746   7.8746   7.8746   7.9024
     7.9024   7.9078   7.9078   7.9079   7.9200   7.9201   7.9201   7.9498
     7.9499   7.9499   7.9584   8.0331   8.0332   8.0332   8.0647   8.0703
     8.0856   8.0858   8.0858   8.1167   8.1167   8.1257   8.1257   8.1257
     8.1338   8.1338   8.1339   8.1378   8.1378   8.1435   8.1435   8.1435
     8.1546   8.1546   8.1547   8.1574   8.1574   8.1575   8.1681   8.1681
     8.1682   8.1693   8.1694   8.1694   8.1713   8.1751   8.1751   8.2493
     8.2494   8.2494   8.2571   8.2571   8.2593   8.2593   8.2594   8.2643
     8.2643   8.2643   8.2707   8.6993   8.6993   8.6994   8.8954   8.8954
     8.9039   8.9040   8.9040   8.9430   8.9432   8.9432   8.9495   8.9743
     8.9743   8.9744   8.9802   8.9804   8.9804   8.9850   8.9850   8.9935
     8.9937   8.9937   8.9947   9.1954   9.6727   9.6727   9.6728  10.3332
    10.3332  10.3332  10.3430  10.3430  10.3430  10.3654  10.3655  10.3655
    10.4530  10.4530  10.4530  10.5515  10.5515  10.5524  10.5525  10.5525
    10.5621  10.5621  10.5907  10.5908  10.5908  10.5908  10.5908  10.5908
    10.6149  10.6149  10.6149  10.6244  10.6244  10.7731  11.2987  11.2987
    11.2987  11.5039  11.5039  11.5060  11.5060  11.5060  11.5293  11.5293
    11.5293  11.5398  12.6399  12.6400  12.6400  13.4696  13.4696  13.4696
    17.2082  17.2082  17.2544  17.2544  17.2544  17.2940  17.8779  17.8779
    17.8788  17.8862  17.8862  17.8890  17.9260  17.9260  18.0198  18.0198
    18.0200  18.0250  18.5852  18.5852  18.5852  19.4240  19.4240  19.4240
    19.4388  19.4388  19.4388  19.4777  19.4777  19.4952  19.4952  19.4952
    19.5677  20.0896  20.0899  20.0899  20.1264  20.1264  20.1267  20.1329
    20.1524  20.1524  20.1564  20.1564  20.1569  20.1627  20.1627  20.1630
    20.1647  20.1649  20.1649  20.1818  20.1818  20.2421  20.2421  20.2425
    20.3066  20.5383  20.5383  20.5383  20.5426  20.5426  20.5725  20.5725
    20.5725  20.5856  20.6288  20.6288  20.6288  20.7123  20.7123  20.7125
    20.7129  20.7129  20.7129  20.7154  20.7155  20.7155  20.7251  20.7251
    20.7277  20.7277  20.7293

     occupation numbers 
     1.0000   1.0000   1.0000   1.0000   1.0000   1.0000   1.0000   1.0000
     1.0000   1.0000   1.0000   1.0000   1.0000   1.0000   1.0000   1.0000
     1.0000   1.0000   1.0000   1.0000   1.0000   1.0000   1.0000   1.0000
     1.0000   1.0000   1.0000   1.0000   1.0000   1.0000   1.0000   1.0000
     1.0000   1.0000   1.0000   1.0000   1.0000   1.0000   1.0000   1.0000
     1.0000   1.0000   1.0000   1.0000   1.0000   1.0000   1.0000   1.0000
     1.0000   1.0000   1.0000   1.0000   1.0000   1.0000   1.0000   1.0000
     1.0000   1.0000   1.0000   1.0000   1.0000   1.0000   1.0000   1.0000
     1.0000   1.0000   1.0000   1.0000   1.0000   1.0000   1.0000   1.0000
     1.0000   1.0000   1.0000   1.0000   1.0000   1.0000   1.0000   1.0000
     1.0000   1.0000   1.0000   1.0000   1.0000   1.0000   1.0000   1.0000
     1.0000   1.0000   1.0000   1.0000   1.0000   1.0000   1.0000   1.0000
     1.0000   1.0000   1.0000   1.0000   1.0000   1.0000   1.0000   1.0000
     1.0000   1.0000   1.0000   1.0000   1.0000   1.0000   1.0000   1.0000
     1.0000   1.0000   1.0000   1.0000   1.0000   1.0000   1.0000   1.0000
     1.0000   1.0000   1.0000   1.0000   1.0000   1.0000   1.0000   1.0000
     1.0000   1.0000   1.0000   1.0000   1.0000   1.0000   1.0000   1.0000
     1.0000   1.0000   1.0000   1.0000   1.0000   1.0000   1.0000   1.0000
     1.0000   1.0000   1.0000   1.0000   1.0000   1.0000   1.0000   1.0000
     1.0000   1.0000   1.0000   1.0000   1.0000   1.0000   1.0000   1.0000
     1.0000   1.0000   1.0000   1.0000   1.0000   1.0000   1.0000   1.0000
     1.0000   1.0000   1.0000   1.0000   1.0000   1.0000   1.0000   1.0000
     1.0000   1.0000   1.0000   1.0000   1.0000   1.0000   1.0000   1.0000
     1.0000   1.0000   1.0000   1.0000   1.0000   1.0000   1.0000   1.0000
     1.0000   1.0000   1.0000   1.0000   1.0000   1.0000   1.0000   1.0000
     1.0000   1.0000   1.0000   1.0000   1.0000   1.0000   1.0000   1.0000
     1.0000   1.0000   1.0000   1.0000   1.0000   1.0000   1.0000   1.0000
     1.0000   1.0000   1.0000   1.0000   1.0000   1.0000   1.0000   1.0000
     1.0000   1.0000   1.0000   1.0000   1.0000   1.0000   1.0000   1.0000
     1.0000   1.0000   1.0000   1.0000   1.0000   1.0000   1.0000   1.0000
     1.0000   1.0000   1.0000   1.0000   1.0000   1.0000   1.0000   1.0000
     1.0000   1.0000   1.0000   1.0000   1.0000   1.0000   1.0000   1.0000
     1.0000   1.0000   1.0000   1.0000   1.0000   1.0000   1.0000   1.0000
     1.0000   1.0000   1.0000   1.0000   1.0000   1.0000   1.0000   1.0000
     1.0000   1.0000   1.0000   1.0000   1.0000   1.0000   1.0000   1.0000
     1.0000   1.0000   1.0000   1.0000   1.0000   1.0000   1.0000   1.0000
     1.0000   1.0000   1.0000   1.0000   1.0000   1.0000   1.0000   1.0000
     1.0000   1.0000   1.0000   1.0000   1.0000   1.0000   1.0000   1.0000
     1.0000   1.0000   1.0000   1.0000   1.0000   1.0000   1.0000   1.0000
     1.0000   1.0000   1.0000   1.0000   1.0000   1.0000   1.0000   1.0000
     1.0000   1.0000   1.0000   1.0000   1.0000   1.0000   1.0000   1.0000
     1.0000   1.0000   1.0000   1.0000   1.0000   1.0000   1.0000   1.0000
     1.0000   1.0000   1.0000   1.0000   1.0000   1.0000   1.0000   1.0000
     1.0000   1.0000   1.0000   1.0000   1.0000   1.0000   1.0000   1.0000
     1.0000   1.0000   1.0000   1.0000   1.0000   1.0000   1.0000   1.0000
     1.0000   1.0000   1.0000   1.0000   1.0000   1.0000   1.0000   1.0000
     1.0000   1.0000   1.0000   1.0000   1.0000   1.0000   1.0000   1.0000
     1.0000   1.0000   1.0000   1.0000   1.0000   1.0000   1.0000   1.0000
     1.0000   1.0000   1.0000   1.0000   1.0000   1.0000   1.0000   1.0000
     1.0000   1.0000   1.0000   1.0000   1.0000   1.0000   1.0000   1.0000
     1.0000   1.0000   1.0000   1.0000   1.0000   1.0000   1.0000   1.0000
     1.0000   1.0000   1.0000   1.0000   1.0000   1.0000   1.0000   1.0000
     1.0000   1.0000   1.0000   1.0000   1.0000   1.0000   1.0000   1.0000
     1.0000   1.0000   0.9987   0.9987   0.9987   0.0000   0.0000   0.0000
     0.0000   0.0000   0.0000   0.0000   0.0000   0.0000   0.0000   0.0000
     0.0000   0.0000   0.0000   0.0000   0.0000   0.0000   0.0000   0.0000
     0.0000   0.0000   0.0000   0.0000   0.0000   0.0000   0.0000   0.0000
     0.0000   0.0000   0.0000   0.0000   0.0000   0.0000   0.0000   0.0000
     0.0000   0.0000   0.0000   0.0000   0.0000   0.0000   0.0000   0.0000
     0.0000   0.0000   0.0000   0.0000   0.0000   0.0000   0.0000   0.0000
     0.0000   0.0000   0.0000   0.0000   0.0000   0.0000   0.0000   0.0000
     0.0000   0.0000   0.0000   0.0000   0.0000   0.0000   0.0000   0.0000
     0.0000   0.0000   0.0000   0.0000   0.0000   0.0000   0.0000   0.0000
     0.0000   0.0000   0.0000   0.0000   0.0000   0.0000   0.0000   0.0000
     0.0000   0.0000   0.0000

          k = 0.0000 0.0000-0.5000 ( 81982 PWs)   bands (ev):

    -8.2730  -8.2370  -7.3319  -7.3318  -7.2553  -7.2254  -7.2205  -7.2205
    -7.2145  -7.1690  -6.3588  -6.3001  -6.3001  -6.2645  -6.2572  -6.2333
    -6.2333  -6.2197  -6.2101  -6.0965  -5.3042  -5.3041  -5.2943  -5.2942
    -5.2852  -5.2607  -5.2575  -5.1461  -4.3912  -4.3876  -4.3876  -4.3830
    -4.3687  -4.3480  -4.3480  -4.3258  -4.3212  -4.3203  -4.3203  -4.2812
    -4.2590  -4.2590  -4.2509  -4.0615  -3.5024  -3.4685  -3.4684  -3.4345
    -3.4299  -3.4013  -3.4012  -3.3763  -3.3738  -3.3737  -3.3660  -3.3632
    -3.3594  -3.3593  -3.3587  -3.1234  -2.5976  -2.5564  -2.5562  -2.5337
    -2.5230  -2.5229  -2.5070  -2.4770  -2.4205  -2.4149  -2.4148  -2.4019
    -2.3929  -2.3773  -2.3771  -2.3697  -2.3689  -2.0836  -1.6456  -1.6455
    -1.6172  -1.6172  -1.5630  -1.5583  -1.5558  -1.5409  -1.5360  -1.5038
    -1.5038  -1.4801  -1.4789  -1.4774  -1.4774  -1.0421  -0.0832  -0.0553
    -0.0553  -0.0515  -0.0416  -0.0347  -0.0347   0.0274   0.1166   0.1181
     0.1182   0.1247   0.1564   0.1565   0.1639   0.1829   0.2268   0.2673
     0.2675   0.2993   0.3080   0.3083   0.3091   0.5561   0.8467   0.8565
     0.8568   0.8713   0.8988   0.8988   0.8999   0.9115   0.9758   0.9758
     0.9820   1.0672   1.1629   1.1688   1.1688   1.1769   1.1835   1.2285
     1.2285   1.5929   1.9941   2.0026   2.0026   2.0105   2.0350   2.0602
     2.0602   2.1657   2.5997   2.6072   2.6072   2.6163   2.6163   2.6192
     2.6397   2.6447   2.6673   2.6834   2.6834   2.6858   2.6957   2.7018
     2.7023   2.7023   2.7164   2.7164   2.7179   2.7197   2.7729   2.7729
     2.8351   2.8670   2.8973   2.9060   2.9611   2.9787   2.9788   2.9806
     3.0188   3.0189   3.0336   3.8372   3.8453   3.8495   3.8495   3.8530
     3.9354   3.9354   3.9424   4.0821   4.3960   4.4212   4.4213   4.4267
     4.4659   4.4754   4.4755   4.5458   4.7212   4.7302   4.7305   4.7492
     5.0865   5.0909   5.1163   5.1177   5.1177   5.1234   5.1276   5.1276
     5.1819   5.2121   5.2121   5.2323   5.2477   5.2835   5.2835   5.3238
     5.4328   5.4338   5.4449   5.4449   5.4698   5.4699   5.4805   5.4815
     5.4897   5.4897   5.4966   5.5024   5.5401   5.5401   5.5592   5.5731
     5.5981   5.5983   5.6116   5.6143   5.6807   5.6904   5.6905   6.0890
     6.1194   6.1196   6.1640   6.1677   6.1838   6.1840   6.1888   6.1892
     6.1925   6.2149   6.2149   6.2247   6.3217   6.3218   6.3414   6.4316
     6.7219   6.7225   6.7226   6.7256   6.7291   6.7593   6.7813   6.7814
     6.8522   6.8522   6.8984   6.9073   6.9074   6.9097   6.9104   6.9145
     6.9146   6.9192   6.9299   6.9301   6.9348   6.9349   6.9388   6.9398
     6.9412   6.9412   6.9480   6.9501   6.9886   6.9950   6.9951   7.0037
     7.0044   7.0108   7.0201   7.0202   7.0281   7.0284   7.0285   7.0296
     7.3104   7.3104   7.3686   7.6443   7.7490   7.7545   7.7545   7.7862
     7.8153   7.8153   7.8404   7.9069   8.1279   8.1314   8.1878   8.1879
     8.2104   8.2466   8.2468   8.2476   8.2598   8.2654   8.3172   8.3198
     8.3199   8.3381   8.3725   8.3733   8.3734   8.3890   8.3946   8.3952
     8.3983   8.3984   8.4133   8.4134   8.4256   8.4259   8.4277   8.4388
     8.4390   8.4666   8.4719   8.4779   8.4805   8.4822   8.4823   8.4869
     8.4870   8.4975   8.6228   8.6635   8.6635   8.6713   8.7999   8.7999
     8.8586   8.8586   8.8781   8.8781   8.8872   8.8947   8.9943   9.0881
     9.0882   9.1874   9.2508   9.2510   9.2563   9.2596   9.2630   9.3479
     9.3481   9.3846   9.5723   9.5765   9.5916   9.6122   9.6122   9.6329
     9.6384   9.6384   9.6438   9.6470   9.6470   9.6627   9.6680   9.6681
     9.7053   9.7094   9.7317   9.7375   9.7392   9.7397   9.7399   9.8065
     9.8725   9.8726   9.8925   9.8925   9.8927   9.9068  10.0917  10.1469
    10.1613  10.1615  10.2058  10.2059  10.2221  10.2224  10.2389  10.7776
    10.7777  11.1791  11.2000  11.2033  11.2866  11.2885  11.2924  11.2924
    11.4508  11.4508  11.5407  11.5451  11.5451  11.5592  11.5743  11.8795
    11.8795  12.0150  12.0150  12.0627  12.3093  13.3194  13.3269  13.3269
    17.3326  17.3405  17.4798  17.5276  18.2137  18.2684  18.2684  18.2712
    18.2873  18.2905  18.2937  18.2937  18.4083  18.4138  18.8248  18.8254
    18.8332  18.8385  18.8900  18.8954  18.8992  18.8999  18.9063  18.9347
    18.9349  18.9349  18.9588  18.9714  19.0237  19.0238  19.0643  19.0872
    19.5831  19.5831  19.6088  19.6098  19.6188  19.6188  19.6282  19.6283
    19.6591  19.6616  19.6616  19.6624  19.6677  19.6735  19.6972  19.6972
    19.7143  19.7613  19.7613  19.7796  20.0855  20.1128  20.1144  20.1147
    20.1268  20.1391  20.1535  20.1538  20.1601  20.1624  20.1625  20.1627
    20.1949  20.2697  20.2699  20.2719  20.6749  20.6908  20.6908  20.6913
    20.7134  20.7134  20.7227  20.7469  20.7538  20.7538  20.7589  20.7766
    20.7923  20.7924  20.7927

     occupation numbers 
     1.0000   1.0000   1.0000   1.0000   1.0000   1.0000   1.0000   1.0000
     1.0000   1.0000   1.0000   1.0000   1.0000   1.0000   1.0000   1.0000
     1.0000   1.0000   1.0000   1.0000   1.0000   1.0000   1.0000   1.0000
     1.0000   1.0000   1.0000   1.0000   1.0000   1.0000   1.0000   1.0000
     1.0000   1.0000   1.0000   1.0000   1.0000   1.0000   1.0000   1.0000
     1.0000   1.0000   1.0000   1.0000   1.0000   1.0000   1.0000   1.0000
     1.0000   1.0000   1.0000   1.0000   1.0000   1.0000   1.0000   1.0000
     1.0000   1.0000   1.0000   1.0000   1.0000   1.0000   1.0000   1.0000
     1.0000   1.0000   1.0000   1.0000   1.0000   1.0000   1.0000   1.0000
     1.0000   1.0000   1.0000   1.0000   1.0000   1.0000   1.0000   1.0000
     1.0000   1.0000   1.0000   1.0000   1.0000   1.0000   1.0000   1.0000
     1.0000   1.0000   1.0000   1.0000   1.0000   1.0000   1.0000   1.0000
     1.0000   1.0000   1.0000   1.0000   1.0000   1.0000   1.0000   1.0000
     1.0000   1.0000   1.0000   1.0000   1.0000   1.0000   1.0000   1.0000
     1.0000   1.0000   1.0000   1.0000   1.0000   1.0000   1.0000   1.0000
     1.0000   1.0000   1.0000   1.0000   1.0000   1.0000   1.0000   1.0000
     1.0000   1.0000   1.0000   1.0000   1.0000   1.0000   1.0000   1.0000
     1.0000   1.0000   1.0000   1.0000   1.0000   1.0000   1.0000   1.0000
     1.0000   1.0000   1.0000   1.0000   1.0000   1.0000   1.0000   1.0000
     1.0000   1.0000   1.0000   1.0000   1.0000   1.0000   1.0000   1.0000
     1.0000   1.0000   1.0000   1.0000   1.0000   1.0000   1.0000   1.0000
     1.0000   1.0000   1.0000   1.0000   1.0000   1.0000   1.0000   1.0000
     1.0000   1.0000   1.0000   1.0000   1.0000   1.0000   1.0000   1.0000
     1.0000   1.0000   1.0000   1.0000   1.0000   1.0000   1.0000   1.0000
     1.0000   1.0000   1.0000   1.0000   1.0000   1.0000   1.0000   1.0000
     1.0000   1.0000   1.0000   1.0000   1.0000   1.0000   1.0000   1.0000
     1.0000   1.0000   1.0000   1.0000   1.0000   1.0000   1.0000   1.0000
     1.0000   1.0000   1.0000   1.0000   1.0000   1.0000   1.0000   1.0000
     1.0000   1.0000   1.0000   1.0000   1.0000   1.0000   1.0000   1.0000
     1.0000   1.0000   1.0000   1.0000   1.0000   1.0000   1.0000   1.0000
     1.0000   1.0000   1.0000   1.0000   1.0000   1.0000   1.0000   1.0000
     1.0000   1.0000   1.0000   1.0000   1.0000   1.0000   1.0000   1.0000
     1.0000   1.0000   1.0000   1.0000   1.0000   1.0000   1.0000   1.0000
     1.0000   1.0000   1.0000   1.0000   1.0000   1.0000   1.0000   1.0000
     1.0000   1.0000   1.0000   1.0000   1.0000   1.0000   1.0000   1.0000
     1.0000   1.0000   1.0000   1.0000   1.0000   1.0000   1.0000   1.0000
     1.0000   1.0000   1.0000   1.0000   1.0000   1.0000   1.0000   1.0000
     1.0000   1.0000   1.0000   1.0000   1.0000   1.0000   1.0000   1.0000
     1.0000   1.0000   1.0000   1.0000   1.0000   1.0000   1.0000   1.0000
     1.0000   1.0000   1.0000   1.0000   1.0000   1.0000   1.0000   1.0000
     1.0000   1.0000   1.0000   1.0000   1.0000   1.0000   1.0000   1.0000
     1.0000   1.0000   1.0000   1.0000   1.0000   1.0000   1.0000   1.0000
     1.0000   1.0000   1.0000   1.0000   1.0000   1.0000   1.0000   1.0000
     1.0000   1.0000   1.0000   1.0000   1.0000   1.0000   1.0000   1.0000
     1.0000   1.0000   1.0000   1.0000   1.0000   1.0000   1.0000   1.0000
     1.0000   1.0000   1.0000   1.0000   1.0000   1.0000   1.0000   1.0000
     1.0000   1.0000   1.0000   1.0000   1.0000   1.0000   1.0000   1.0000
     1.0000   1.0000   1.0000   1.0000   1.0000   1.0000   1.0000   1.0000
     1.0000   1.0000   1.0000   1.0000   1.0000   1.0000   1.0000   1.0000
     1.0000   1.0000   1.0000   1.0000   1.0000   1.0000   1.0000   1.0000
     1.0000   1.0000   1.0000   1.0000   1.0000   1.0000   1.0000   1.0000
     1.0000   1.0000   1.0000   1.0000   1.0000   1.0000   1.0000   1.0000
     1.0000   1.0000   1.0000   1.0000   1.0000   1.0000   1.0000   1.0000
     1.0000   1.0000   1.0000   1.0000   1.0000   0.0000   0.0000   0.0000
     0.0000   0.0000   0.0000   0.0000   0.0000   0.0000   0.0000   0.0000
     0.0000   0.0000   0.0000   0.0000   0.0000   0.0000   0.0000   0.0000
     0.0000   0.0000   0.0000   0.0000   0.0000   0.0000   0.0000   0.0000
     0.0000   0.0000   0.0000   0.0000   0.0000   0.0000   0.0000   0.0000
     0.0000   0.0000   0.0000   0.0000   0.0000   0.0000   0.0000   0.0000
     0.0000   0.0000   0.0000   0.0000   0.0000   0.0000   0.0000   0.0000
     0.0000   0.0000   0.0000   0.0000   0.0000   0.0000   0.0000   0.0000
     0.0000   0.0000   0.0000   0.0000   0.0000   0.0000   0.0000   0.0000
     0.0000   0.0000   0.0000   0.0000   0.0000   0.0000   0.0000   0.0000
     0.0000   0.0000   0.0000   0.0000   0.0000   0.0000   0.0000   0.0000
     0.0000   0.0000   0.0000

          k = 0.0000-0.5000-0.5000 ( 82212 PWs)   bands (ev):

    -8.0294  -8.0142  -8.0142  -7.9497  -7.1283  -7.0146  -7.0146  -6.9940
    -6.9940  -6.9444  -6.9432  -6.9310  -6.0650  -6.0592  -6.0592  -6.0007
    -5.9743  -5.9743  -5.9525  -5.8910  -5.1292  -5.1272  -5.1272  -5.0661
    -5.0643  -5.0643  -5.0612  -5.0406  -5.0227  -5.0080  -5.0080  -5.0010
    -5.0010  -4.9942  -4.9790  -4.8108  -4.1376  -4.1151  -4.1141  -4.1140
    -4.1094  -4.0655  -4.0655  -4.0500  -4.0500  -4.0037  -4.0003  -3.8938
    -3.3577  -3.3575  -3.3518  -3.2996  -3.2964  -3.2736  -3.2735  -3.1626
    -2.4691  -2.4614  -2.4614  -2.4542  -2.4529  -2.4529  -2.3930  -2.3826
    -2.3809  -2.3773  -2.3773  -2.3569  -2.3569  -2.3479  -2.3453  -2.3076
    -2.2443  -2.1910  -2.1909  -2.1416  -2.1391  -2.1358  -2.1357  -1.8899
    -1.6054  -1.5365  -1.5364  -1.4732  -1.4702  -1.4603  -1.4602  -1.4499
    -1.4488  -1.4439  -1.4438  -1.4166  -1.4165  -1.4136  -1.4086  -1.1174
    -0.7520  -0.7520  -0.7490  -0.7357  -0.7330  -0.7236  -0.7236  -0.3482
     0.1788   0.1892   0.1892   0.2731   0.5504   0.5505   0.5513   0.5601
     0.5757   0.5811   0.5917   0.5918   0.5973   0.5974   0.6458   0.8164
     1.3615   1.3615   1.3637   1.3666   1.3683   1.3683   1.3749   1.3816
     1.4097   1.4137   1.4148   1.4148   1.4386   1.4801   1.4801   1.5257
     1.7655   1.7889   1.8018   1.8018   1.8305   1.8305   1.8538   1.8653
     1.8653   1.8665   1.8665   1.8724   1.8726   1.9037   1.9037   1.9160
     1.9706   1.9706   1.9781   1.9815   1.9937   1.9937   2.0444   2.5424
     2.8026   2.8466   2.8467   2.8849   2.8855   2.8856   2.8856   3.3018
     3.8812   3.8812   3.8848   3.8905   3.9024   3.9123   3.9127   3.9127
     3.9253   3.9253   3.9268   3.9395   3.9467   3.9604   3.9604   4.0565
     4.0822   4.0868   4.0884   4.0884   4.0905   4.1236   4.1237   4.1240
     4.1863   4.1865   4.1916   4.1975   4.2525   4.2525   4.2870   4.2870
     4.3368   4.3368   4.3477   4.7457   4.7679   4.7679   4.7778   4.8204
     4.9689   4.9689   4.9719   4.9918   5.0400   5.0405   5.0510   5.0510
     5.0521   5.0555   5.0642   5.0642   5.0926   5.1588   5.1588   5.3343
     5.4028   5.4032   5.4483   5.6969   6.1731   6.1769   6.1896   6.1948
[...]

     hubbard stress (kbar)      0.00      0.00      0.00
                                0.00      0.00      0.00
                                0.00      0.00      0.00

     DFT-D   stress (kbar)      0.00      0.00      0.00
                                0.00      0.00      0.00
                                0.00      0.00      0.00

     XDM     stress (kbar)      0.00      0.00      0.00
                                0.00      0.00      0.00
                                0.00      0.00      0.00

     dft-nl  stress (kbar)     24.72      0.00     -0.00
                                0.00     24.72      0.00
                               -0.00      0.00     24.72

     TS-vdW  stress (kbar)      0.00      0.00      0.00
                                0.00      0.00      0.00
                                0.00      0.00      0.00

     MDB     stress (kbar)      0.00      0.00      0.00
                                0.00      0.00      0.00
                                0.00      0.00      0.00

     3D-RISM stress (kbar)      0.00      0.00      0.00
                                0.00      0.00      0.00
                                0.00      0.00      0.00

     Energy error            =      8.2E-05 Ry
     Gradient error          =      4.2E-04 Ry/Bohr

     bfgs converged in   7 scf cycles and   6 bfgs steps
     (criteria: energy <  1.0E-04 Ry, force <  1.0E-03 Ry/Bohr)

     End of BFGS Geometry Optimization

     Final energy             =   -4085.0002937152 Ry

     File ./diamond.bfgs deleted, as requested
Begin final coordinates

ATOMIC_POSITIONS (angstrom)
C             0.8931248011        2.6791783519        4.4655306835
C             0.8930977084        2.6792054446        8.0376347068
C             0.8930977084        6.2515778997        0.8930977084
C             0.8960965536        6.2518650452        4.4657539147
C             0.8901252572        6.2518944141        8.0373181924
C             0.8931248011        9.8236819230        0.8931248011
C             0.8900586720        9.8233783499        4.4658342566
C             0.8960965536        9.8234586918        8.0373475613
C             4.4655306835        2.6791783519        0.8931248011
C             4.4658342566        2.6822444810        4.4658342566
C             4.4657539147        2.6762065994        8.0373475613
C             4.4657539147        6.2518650452        0.8960965536
C             4.4649519159        6.2510589589        4.4649519159
C             4.4654483234        6.2515457827        8.0376668238
C             4.4658342566        9.8233783499        0.8900586720
C             4.4654123289        9.8238002776        4.4654123289
C             4.4649519159        9.8242606906        8.0381536476
C             8.0376347068        2.6792054446        0.8930977084
C             8.0373475613        2.6762065994        4.4657539147
C             8.0373181924        2.6821778958        8.0373181924
C             8.0373181924        6.2518944141        0.8901252572
C             8.0376668238        6.2515457827        4.4654483234
C             8.0381777642        6.2510348423        8.0381777642
C             8.0373475613        9.8234586918        0.8960965536
C             8.0381536476        9.8242606906        4.4649519159
C             8.0376668238        9.8237642831        8.0376668238
C             0.0049358518       -0.0014238998        1.7812924449
C             0.0003699411        0.0011735219        5.3576720728
C            -0.0133037578       -0.0114074720        8.9195367719
C            -0.0882107991        3.6605139503        1.8743119883
C            -0.0000372112        3.5723403624        5.3602571344
C             0.0049664403        3.5673367109        8.9293913845
C            -0.0000462775        7.1463827816        1.7861967746
C            -0.0021021908        7.1455649551        5.3594002562
C             0.0003918637        7.1437689223        8.9319259003
C             3.5836832394       -0.0113800882        1.7992237732
C             3.5748163227       -0.0025131715        5.3622848213
C             3.5704484600        0.0018546912        8.9325606097
C             3.5737270510        3.5673672994        1.7812924449
C             3.5711296293        3.5719332101        5.3576720728
C             3.5837106232        3.5856069090        8.9195367719
C             3.5710943633        7.1437825141        1.7857532126
C             3.5729059871        7.1441816548        5.3580019852
C             3.5748796021        7.1485495780        8.9282344089
C             7.1454300905        0.0012087879        1.7857532126
C             7.1450309498       -0.0006028359        5.3580019852
C             7.1406630266       -0.0025764509        8.9282344089
C             7.1428298230        3.5723494287        1.7861967746
C             7.1436476495        3.5744053420        5.3594002562
C             7.1454436823        3.5719112875        8.9319259003
C             7.1436281010        7.1455845036        1.7882048525
C             7.1438738085        7.1453387961        5.3591513391
C             7.1450431411        7.1441694635        8.9301456723
C             0.8880650965        0.9074234274        2.6648797256
C             0.8930979438        0.8930719802        6.2515108602
C             0.8980188426        0.9074882726        9.8383308216
C             0.8980188426        4.4508817849        2.6648148804
C             0.8931068043        4.4654631607        6.2514987521
C             0.8883790075        4.4510679270        9.8381446795
C             0.8930979438        8.0377017463        2.6792311728
C             0.8931109100        8.0377287490        6.2514838575
C             0.8931068043        8.0377138544        9.8237494458
C             4.4672394332        0.8925665955        2.6797365575
C             4.4654741690        0.8930872318        6.2523896833
C             4.4629203860        0.8942564603        9.8249110603
C             4.4629203860        4.4643015462        2.6780466927
C             4.4655014996        4.4654579321        6.2505771899
C             4.4673572853        4.4660067333        9.8232058732
C             4.4654741690        8.0368229232        2.6792159212
C             4.4652821431        8.0377285827        6.2514840238
C             4.4655014996        8.0386354166        9.8237546744
C             8.0402182139        0.8942548890        2.6780482640
C             8.0376291536        0.8930847980        6.2505667206
C             8.0358351079        0.8924483865        9.8231819603
C             8.0358351079        4.4660306462        2.6798547665
C             8.0376189637        4.4654633145        6.2524337114
C             8.0402780484        4.4642359023        9.8249767042
C             8.0376291536        8.0386458859        2.6792183550
C             8.0378159689        8.0377259506        6.2514866559
C             8.0376189637        8.0367788951        9.8237492920
C            -0.0882107991        1.6979911647       -0.0882107991
C             0.0049358518        1.7910107081        3.5737270510
C            -0.0000462775        1.7861063784        7.1428298230
C             0.0049664403        5.3598212220        0.0049664403
C            -0.0133037578        5.3696758346        3.5837106232
C             0.0003918637        5.3572867062        7.1454436823
C            -0.0000372112        8.9289554721       -0.0000372112
C             0.0003699411        8.9315405337        3.5711296293
C            -0.0021021908        8.9298123503        7.1436476495
C             3.5737270510        1.7910107081        0.0049358518
C             3.5836832394        1.7730793798        3.5836832394
C             3.5710943633        1.7865499404        7.1454300905
C             3.5837106232        5.3696758346       -0.0133037578
C             3.5704484600        5.3566519968        3.5704484600
C             3.5748796021        5.3609781976        7.1406630266
C             3.5711296293        8.9315405337        0.0003699411
C             3.5748163227        8.9269277852        3.5748163227
C             3.5729059871        8.9312106213        7.1450309498
C             7.1428298230        1.7861063784       -0.0000462775
C             7.1454300905        1.7865499404        3.5710943633
C             7.1436281010        1.7840983005        7.1436281010
C             7.1454436823        5.3572867062        0.0003918637
C             7.1406630266        5.3609781976        3.5748796021
C             7.1450431411        5.3590669342        7.1450431411
C             7.1436476495        8.9298123503       -0.0021021908
C             7.1450309498        8.9312106213        3.5729059871
C             7.1438738085        8.9300612674        7.1438738085
C             2.6648797256        2.6842380565        2.6648797256
C             2.6792311728        2.6792052092        6.2515108602
C             2.6648148804        2.6742843104        9.8383308216
C             2.6780482640        6.2489943926        2.6780482640
C             2.6792183550        6.2515834529        6.2505667206
C             2.6798547665        6.2533774986        9.8231819603
C             2.6797365575        9.8219731733        2.6797365575
C             2.6792159212        9.8237384375        6.2523896833
C             2.6780466927        9.8262922205        9.8249110603
C             6.2515108602        2.6792052092        2.6792311728
C             6.2514838575        2.6791922430        6.2514838575
C             6.2514987521        2.6791963487        9.8237494458
C             6.2505667206        6.2515834529        2.6792183550
C             6.2514866559        6.2513966376        6.2514866559
C             6.2524337114        6.2515936428        9.8237492920
C             6.2523896833        9.8237384375        2.6792159212
C             6.2514840238        9.8239304634        6.2514840238
C             6.2505771899        9.8237111069        9.8237546744
C             9.8383308216        2.6742843104        2.6648148804
C             9.8237494458        2.6791963487        6.2514987521
C             9.8381446795        2.6839241455        9.8381446795
C             9.8231819603        6.2533774986        2.6798547665
C             9.8237492920        6.2515936428        6.2524337114
C             9.8249767042        6.2489345581        9.8249767042
C             9.8249110603        9.8262922205        2.6780466927
C             9.8237546744        9.8237111069        6.2505771899
C             9.8232058732        9.8218553212        9.8232058732
C             1.7812924449       -0.0014238998        0.0049358518
C             1.7992237732       -0.0113800882        3.5836832394
C             1.7857532126        0.0012087879        7.1454300905
C             1.8743119883        3.6605139503       -0.0882107991
C             1.7812924449        3.5673672994        3.5737270510
C             1.7861967746        3.5723494287        7.1428298230
C             1.7861967746        7.1463827816       -0.0000462775
C             1.7857532126        7.1437825141        3.5710943633
C             1.7882048525        7.1455845036        7.1436281010
C             5.3576720728        0.0011735219        0.0003699411
C             5.3622848213       -0.0025131715        3.5748163227
C             5.3580019852       -0.0006028359        7.1450309498
C             5.3602571344        3.5723403624       -0.0000372112
C             5.3576720728        3.5719332101        3.5711296293
C             5.3594002562        3.5744053420        7.1436476495
C             5.3594002562        7.1455649551       -0.0021021908
C             5.3580019852        7.1441816548        3.5729059871
C             5.3591513391        7.1453387961        7.1438738085
C             8.9195367719       -0.0114074720       -0.0133037578
C             8.9325606097        0.0018546912        3.5704484600
C             8.9282344089       -0.0025764509        7.1406630266
C             8.9293913845        3.5673367109        0.0049664403
C             8.9195367719        3.5856069090        3.5837106232
C             8.9319259003        3.5719112875        7.1454436823
C             8.9319259003        7.1437689223        0.0003918637
C             8.9282344089        7.1485495780        3.5748796021
C             8.9301456723        7.1441694635        7.1450431411
C             2.6648797256        0.9074234274        0.8880650965
C             2.6797365575        0.8925665955        4.4672394332
C             2.6780482640        0.8942548890        8.0402182139
C             2.6648148804        4.4508817849        0.8980188426
C             2.6780466927        4.4643015462        4.4629203860
C             2.6798547665        4.4660306462        8.0358351079
C             2.6792311728        8.0377017463        0.8930979438
C             2.6792159212        8.0368229232        4.4654741690
C             2.6792183550        8.0386458859        8.0376291536
C             6.2515108602        0.8930719802        0.8930979438
C             6.2523896833        0.8930872318        4.4654741690
C             6.2505667206        0.8930847980        8.0376291536
C             6.2514987521        4.4654631607        0.8931068043
C             6.2505771899        4.4654579321        4.4655014996
C             6.2524337114        4.4654633145        8.0376189637
C             6.2514838575        8.0377287490        0.8931109100
C             6.2514840238        8.0377285827        4.4652821431
C             6.2514866559        8.0377259506        8.0378159689
C             9.8383308216        0.9074882726        0.8980188426
C             9.8249110603        0.8942564603        4.4629203860
C             9.8231819603        0.8924483865        8.0358351079
C             9.8381446795        4.4510679270        0.8883790075
C             9.8232058732        4.4660067333        4.4673572853
C             9.8249767042        4.4642359023        8.0402780484
C             9.8237494458        8.0377138544        0.8931068043
C             9.8237546744        8.0386354166        4.4655014996
C             9.8237492920        8.0367788951        8.0376189637
C             1.8746059523        1.6976972007        1.8746059523
C             1.7861717226        1.7861314304        5.3602768257
C             1.7811549794        1.7911481736        8.9294233907
C             1.7811549794        5.3597892158        1.7811549794
C             1.7857419935        5.3572597735        5.3576110993
C             1.7996170085        5.3700008396        8.9192117669
C             1.7861717226        8.9289357808        1.7861717226
C             1.7882705288        8.9297931163        5.3594194902
C             1.7857419935        8.9316015072        8.9319528330
C             5.3602768257        1.7861314304        1.7861717226
C             5.3594194902        1.7840326242        5.3594194902
C             5.3576110993        1.7865611595        8.9319528330
C             5.3576110993        5.3572597735        1.7857419935
C             5.3580049364        5.3590888876        5.3580049364
C             5.3624591836        5.3610645989        8.9281480076
C             5.3594194902        8.9297931163        1.7882705288
C             5.3591613541        8.9300512524        5.3591613541
C             5.3580049364        8.9312076701        8.9301237189
C             8.9294233907        1.7911481736        1.7811549794
C             8.9319528330        1.7865611595        5.3576110993
C             8.9192117669        1.7726861445        8.9192117669
C             8.9192117669        5.3700008396        1.7996170085
C             8.9281480076        5.3610645989        5.3624591836
C             8.9326678064        5.3565448001        8.9326678064
C             8.9319528330        8.9316015072        1.7857419935
C             8.9301237189        8.9312076701        5.3580049364
C             8.9281480076        8.9267534229        8.9281480076
End final coordinates



     Writing all to output data dir ./diamond.save/
 
     init_run     :      5.50s CPU      5.77s WALL (       1 calls)
     electrons    :   4253.75s CPU   4296.18s WALL (       7 calls)
     update_pot   :      6.19s CPU      6.25s WALL (       6 calls)
     forces       :     16.55s CPU     17.21s WALL (       7 calls)
     stress       :    205.10s CPU    207.17s WALL (       7 calls)

     Called by init_run:
     wfcinit      :      4.31s CPU      4.47s WALL (       1 calls)
     wfcinit:atom :      0.02s CPU      0.04s WALL (       1 calls)
     wfcinit:wfcr :      4.21s CPU      4.31s WALL (       1 calls)
     potinit      :      0.53s CPU      0.58s WALL (       1 calls)
     hinit0       :      0.06s CPU      0.06s WALL (       1 calls)

     Called by electrons:
     c_bands      :   4151.62s CPU   4191.50s WALL (      80 calls)
     sum_band     :     66.22s CPU     67.13s WALL (      80 calls)
     v_of_rho     :     24.01s CPU     24.58s WALL (      84 calls)
     v_h          :      0.26s CPU      0.27s WALL (      84 calls)
     v_xc         :     27.72s CPU     28.34s WALL (      98 calls)
     newd         :      3.32s CPU      3.40s WALL (      84 calls)
     PAW_pot      :     11.11s CPU     11.25s WALL (      90 calls)
     mix_rho      :      0.97s CPU      1.01s WALL (      80 calls)
     vdW_kernel   :      0.16s CPU      0.17s WALL (       1 calls)

     Called by c_bands:
     init_us_2    :      6.43s CPU      6.58s WALL (     167 calls)
     init_us_2:cp :      6.43s CPU      6.58s WALL (     167 calls)
     cegterg      :   3499.16s CPU   3534.81s WALL (      81 calls)

     Called by sum_band:
     sum_band:wei :      0.22s CPU      0.22s WALL (      80 calls)
     sum_band:loo :     55.60s CPU     56.35s WALL (      80 calls)
     sum_band:buf :      0.00s CPU      0.00s WALL (      80 calls)
     sum_band:ini :      3.11s CPU      3.18s WALL (      80 calls)
     sum_band:cal :     32.66s CPU     32.95s WALL (      86 calls)
     sum_band:bec :      0.74s CPU      0.75s WALL (      86 calls)
     addusdens    :      3.11s CPU      3.15s WALL (      80 calls)
     addusd:skk   :      0.86s CPU      0.87s WALL (      80 calls)
     addusd:dgemm :      1.05s CPU      1.07s WALL (      80 calls)
     addusd:qvan2 :      0.08s CPU      0.08s WALL (      80 calls)

     Called by *egterg:
     cdiaghg      :   2725.22s CPU   2742.00s WALL (    1140 calls)
     cegterg:over :    148.14s CPU    153.21s WALL (    1069 calls)
     cegterg:upda :     86.62s CPU     88.65s WALL (    1069 calls)
     cegterg:last :     29.46s CPU     29.69s WALL (      84 calls)
     h_psi        :    358.22s CPU    364.09s WALL (    1151 calls)
     s_psi        :    102.58s CPU    103.57s WALL (    1151 calls)
     g_psi        :      0.33s CPU      0.33s WALL (    1069 calls)

     Called by h_psi:
     h_psi:calbec :    116.28s CPU    117.32s WALL (    1151 calls)
     vloc_psi     :    136.94s CPU    138.88s WALL (    1151 calls)
     add_vuspsi   :    102.70s CPU    103.63s WALL (    1151 calls)

     General routines
     calbec       :    162.33s CPU    163.78s WALL (    1272 calls)
     fft          :     14.50s CPU     14.74s WALL (    6470 calls)
     ffts         :      0.40s CPU      0.41s WALL (     164 calls)
     fftw         :    150.14s CPU    152.27s WALL (  318656 calls)
     interpolate  :      0.33s CPU      0.34s WALL (      84 calls)
 
     Parallel routines

     PAW routines
     PAW_pot      :     11.11s CPU     11.25s WALL (      90 calls)
     PAW_symme    :      0.36s CPU      0.37s WALL (     170 calls)
 
     PWSCF        :      1h14m CPU      1h15m WALL

 
   This run was terminated on:  13:50:55  29Sep2023            

=------------------------------------------------------------------------------=
   JOB DONE.
=------------------------------------------------------------------------------=
