
     Program PWSCF v.7.1 starts on 26Feb2024 at  8:22: 3 

     This program is part of the open-source Quantum ESPRESSO suite
     for quantum simulation of materials; please cite
         "P. Giannozzi et al., J. Phys.:Condens. Matter 21 395502 (2009);
         "P. Giannozzi et al., J. Phys.:Condens. Matter 29 465901 (2017);
         "P. Giannozzi et al., J. Chem. Phys. 152 154105 (2020);
          URL http://www.quantum-espresso.org", 
     in publications or presentations arising from this work. More details at
     http://www.quantum-espresso.org/quote

     Parallel version (MPI & OpenMP), running on     256 processor cores
     Number of MPI processes:               256
     Threads/MPI process:                     1

     MPI processes distributed on     2 nodes
     1700916 MiB available memory on the printing compute node when the environment starts
 
     Reading input from espresso.pwi
Warning: card &CELL ignored
Warning: card    CELL_DYNAMICS    = 'BFGS' ignored
Warning: card / ignored

     Current dimensions of program PWSCF are:
     Max number of different atomic species (ntypx) = 10
     Max number of k-points (npk) =  40000
     Max angular momentum in pseudopotentials (lmaxx) =  4
     file Pb.pbe-dn-kjpaw_psl.1.0.0.UPF: wavefunction(s)  6S 6P 5D renormalized
     file I.pbe-dn-kjpaw_psl.1.0.0.UPF: wavefunction(s)  5S 5P renormalized

     **************************************************************************
     Initializing libbeef V0.1.2 with the BEEF-vdW functional.
     Citation: Wellendorff et al., PRB 85, 235149 (2012).
     **************************************************************************


     IMPORTANT: XC functional enforced from input :
     Exchange-correlation= BEEF-VDW
                           (   1   4  43  14   2   0   0)
     Any further DFT definition will be discarded
     Please, verify this is what you really want

 
     R & G space division:  proc/nbgrp/npool/nimage =     256
     WARNING: too many processors for an effective parallelization!
     wavefunctions fft division:  task group distribution
                                  #TG    x Z-proc =       8     32
     Subspace diagonalization in iterative solution of the eigenvalue problem:
     a serial algorithm will be used

 
     Parallelization info
     --------------------
     sticks:   dense  smooth     PW     G-vecs:    dense   smooth      PW
     Min         119      95     23                19837    14191    1763
     Max         120      96     24                19846    14206    1780
     Sum       30589   24439   6121              5079105  3634441  454335
 
     Using Pencil Decomposition
 


     bravais-lattice index     =            4
     lattice parameter (alat)  =      35.6120  a.u.
     unit-cell volume          =   45937.3577 (a.u.)^3
     number of atoms/cell      =          144
     number of atomic types    =            2
     number of electrons       =      2305.00
     number of Kohn-Sham states=         1384
     kinetic-energy cutoff     =      70.0000  Ry
     charge density cutoff     =     350.0000  Ry
     scf convergence threshold =      1.0E-07
     mixing beta               =       0.7000
     number of iterations used =            8  plain     mixing
     energy convergence thresh.=      1.0E-04
     force convergence thresh. =      1.0E-03
     Exchange-correlation= BEEF-VDW
                           (   1   4  43  14   2   0   0)
     nstep                     =           50


     celldm(1)=  35.612033  celldm(2)=   0.000000  celldm(3)=   1.174479
     celldm(4)=   0.000000  celldm(5)=   0.000000  celldm(6)=   0.000000

     crystal axes: (cart. coord. in units of alat)
               a(1) = (   1.000000   0.000000   0.000000 )  
               a(2) = (  -0.500000   0.866025   0.000000 )  
               a(3) = (   0.000000   0.000000   1.174479 )  

     reciprocal axes: (cart. coord. in units 2 pi/alat)
               b(1) = (  1.000000  0.577350 -0.000000 )  
               b(2) = (  0.000000  1.154701  0.000000 )  
               b(3) = (  0.000000 -0.000000  0.851442 )  


     PseudoPot. # 1 for Pb read from file:
     /trace/group/acmegroup/atimmins/packages/espresso/pseudo/psl_1.0.0/pslibrary.1.0.0/pbe/PSEUDOPOTENTIALS/Pb.pbe-dn-kjpaw_psl.1.0.0.UPF
     MD5 check sum: 39ab5b8a6bbd56b7735ad9f188aac93a
     Pseudo is Projector augmented-wave + core cor, Zval = 14.0
     Generated using 'atomic' code by A. Dal Corso  v.7.1
     Shape of augmentation charge: PSQ
     Using radial grid of 1281 points,  6 beta functions with: 
                l(1) =   0
                l(2) =   0
                l(3) =   1
                l(4) =   1
                l(5) =   2
                l(6) =   2
     Q(r) pseudized with 0 coefficients 


     PseudoPot. # 2 for I  read from file:
     /trace/group/acmegroup/atimmins/packages/espresso/pseudo/psl_1.0.0/pslibrary.1.0.0/pbe/PSEUDOPOTENTIALS/I.pbe-dn-kjpaw_psl.1.0.0.UPF
     MD5 check sum: bfa8781bc1224d19af3f3980e3fab11e
     Pseudo is Projector augmented-wave + core cor, Zval = 17.0
     Generated using 'atomic' code by A. Dal Corso  v.7.1
     Shape of augmentation charge: PSQ
     Using radial grid of 1247 points,  6 beta functions with: 
                l(1) =   0
                l(2) =   0
                l(3) =   1
                l(4) =   1
                l(5) =   2
                l(6) =   2
     Q(r) pseudized with 0 coefficients 


     atomic species   valence    mass     pseudopotential
        Pb            14.00   207.20000     Pb( 1.00)
        I             17.00   126.90447     I ( 1.00)

     No symmetry found


                                    s                        frac. trans.

      isym =  1     identity                                     

 cryst.   s( 1) = (     1          0          0      )
                  (     0          1          0      )
                  (     0          0          1      )

 cart.    s( 1) = (  1.0000000  0.0000000  0.0000000 )
                  (  0.0000000  1.0000000  0.0000000 )
                  (  0.0000000  0.0000000  1.0000000 )


     point group C_1 (1)    
     there are  1 classes
     the character table:

       E    
A      1.00

     the symmetry operations in each class and the name of the first element:

     E        1
          identity                                               

   Cartesian axes

     site n.     atom                  positions (alat units)
         1           Pb  tau(   1) = (   0.1250034   0.2164918   0.3914896  )
         2           Pb  tau(   2) = (   0.1250085   0.2164873   0.7829825  )
         3           Pb  tau(   3) = (   0.0000128   0.4329881   1.1744712  )
         4           Pb  tau(   4) = (   0.0000026   0.4329971   0.3914855  )
         5           Pb  tau(   5) = (   0.0000077   0.4329926   0.7829784  )
         6           Pb  tau(   6) = (  -0.1249881   0.6494934   1.1744671  )
         7           Pb  tau(   7) = (  -0.1249983   0.6495025   0.3914814  )
         8           Pb  tau(   8) = (  -0.1249932   0.6494980   0.7829742  )
         9           Pb  tau(   9) = (  -0.2499889   0.8659988   1.1744630  )
        10           Pb  tau(  10) = (  -0.2499991   0.8660078   0.3914773  )
        11           Pb  tau(  11) = (  -0.2499940   0.8660033   0.7829701  )
        12           Pb  tau(  12) = (   0.3750136   0.2164818   1.1744786  )
        13           Pb  tau(  13) = (   0.3750034   0.2164908   0.3914929  )
        14           Pb  tau(  14) = (   0.3750085   0.2164863   0.7829857  )
        15           Pb  tau(  15) = (   0.2500128   0.4329871   1.1744745  )
        16           Pb  tau(  16) = (   0.2500026   0.4329962   0.3914888  )
        17           Pb  tau(  17) = (   0.2500077   0.4329916   0.7829816  )
        18           Pb  tau(  18) = (   0.1250119   0.6494925   1.1744703  )
        19           Pb  tau(  19) = (   0.1250017   0.6495015   0.3914847  )
        20           Pb  tau(  20) = (   0.1250068   0.6494970   0.7829775  )
        21           Pb  tau(  21) = (   0.0000111   0.8659978   1.1744662  )
        22           Pb  tau(  22) = (   0.0000009   0.8660069   0.3914805  )
        23           Pb  tau(  23) = (   0.0000060   0.8660024   0.7829734  )
        24           Pb  tau(  24) = (   0.6250136   0.2164808   1.1744818  )
        25           Pb  tau(  25) = (   0.6250034   0.2164898   0.3914962  )
        26           Pb  tau(  26) = (   0.6250085   0.2164853   0.7829890  )
        27           Pb  tau(  27) = (   0.5000128   0.4329862   1.1744777  )
        28           Pb  tau(  28) = (   0.5000026   0.4329952   0.3914920  )
        29           Pb  tau(  29) = (   0.5000077   0.4329907   0.7829849  )
        30           Pb  tau(  30) = (   0.3750119   0.6494915   1.1744736  )
        31           Pb  tau(  31) = (   0.3750017   0.6495006   0.3914879  )
        32           Pb  tau(  32) = (   0.3750068   0.6494960   0.7829808  )
        33           Pb  tau(  33) = (   0.2500111   0.8659969   1.1744695  )
        34           Pb  tau(  34) = (   0.2500009   0.8660059   0.3914838  )
        35           Pb  tau(  35) = (   0.2500060   0.8660014   0.7829766  )
        36           Pb  tau(  36) = (   0.8750136   0.2164798   1.1744851  )
        37           Pb  tau(  37) = (   0.8750034   0.2164889   0.3914994  )
        38           Pb  tau(  38) = (   0.8750085   0.2164844   0.7829923  )
        39           Pb  tau(  39) = (   0.7500128   0.4329852   1.1744810  )
        40           Pb  tau(  40) = (   0.7500026   0.4329942   0.3914953  )
        41           Pb  tau(  41) = (   0.7500077   0.4329897   0.7829881  )
        42           Pb  tau(  42) = (   0.6250119   0.6494906   1.1744769  )
        43           Pb  tau(  43) = (   0.6250017   0.6494996   0.3914912  )
        44           Pb  tau(  44) = (   0.6250068   0.6494951   0.7829840  )
        45           Pb  tau(  45) = (   0.5000111   0.8659959   1.1744727  )
        46           Pb  tau(  46) = (   0.5000009   0.8660050   0.3914870  )
        47           Pb  tau(  47) = (   0.5000060   0.8660004   0.7829799  )
        48           I   tau(  48) = (   0.1250054   0.0721550   0.2909325  )
        49           I   tau(  49) = (   0.1250105   0.0721505   0.6824253  )
        50           I   tau(  50) = (   0.1250156   0.0721459   1.0739182  )
        51           I   tau(  51) = (   0.0000045   0.2886603   0.2909283  )
        52           I   tau(  52) = (   0.0000096   0.2886558   0.6824212  )
        53           I   tau(  53) = (   0.0000147   0.2886513   1.0739140  )
        54           I   tau(  54) = (  -0.1249963   0.5051657   0.2909242  )
        55           I   tau(  55) = (  -0.1249912   0.5051612   0.6824171  )
        56           I   tau(  56) = (  -0.1249861   0.5051566   1.0739099  )
        57           I   tau(  57) = (  -0.2499971   0.7216710   0.2909201  )
        58           I   tau(  58) = (  -0.2499920   0.7216665   0.6824129  )
        59           I   tau(  59) = (  -0.2499869   0.7216620   1.0739058  )
        60           I   tau(  60) = (   0.3750054   0.0721540   0.2909357  )
        61           I   tau(  61) = (   0.3750105   0.0721495   0.6824286  )
        62           I   tau(  62) = (   0.3750156   0.0721450   1.0739214  )
        63           I   tau(  63) = (   0.2500045   0.2886594   0.2909316  )
        64           I   tau(  64) = (   0.2500096   0.2886548   0.6824244  )
        65           I   tau(  65) = (   0.2500147   0.2886503   1.0739173  )
        66           I   tau(  66) = (   0.1250037   0.5051647   0.2909275  )
        67           I   tau(  67) = (   0.1250088   0.5051602   0.6824203  )
        68           I   tau(  68) = (   0.1250139   0.5051557   1.0739132  )
        69           I   tau(  69) = (   0.0000029   0.7216701   0.2909233  )
        70           I   tau(  70) = (   0.0000080   0.7216656   0.6824162  )
        71           I   tau(  71) = (   0.0000131   0.7216610   1.0739090  )
        72           I   tau(  72) = (   0.6250054   0.0721530   0.2909390  )
        73           I   tau(  73) = (   0.6250105   0.0721485   0.6824318  )
        74           I   tau(  74) = (   0.6250156   0.0721440   1.0739247  )
        75           I   tau(  75) = (   0.5000045   0.2886584   0.2909348  )
        76           I   tau(  76) = (   0.5000096   0.2886539   0.6824277  )
        77           I   tau(  77) = (   0.5000147   0.2886494   1.0739205  )
        78           I   tau(  78) = (   0.3750037   0.5051638   0.2909307  )
        79           I   tau(  79) = (   0.3750088   0.5051592   0.6824236  )
        80           I   tau(  80) = (   0.3750139   0.5051547   1.0739164  )
        81           I   tau(  81) = (   0.2500029   0.7216691   0.2909266  )
        82           I   tau(  82) = (   0.2500080   0.7216646   0.6824194  )
        83           I   tau(  83) = (   0.2500131   0.7216601   1.0739123  )
        84           I   tau(  84) = (   0.8750054   0.0721521   0.2909422  )
        85           I   tau(  85) = (   0.8750105   0.0721476   0.6824351  )
        86           I   tau(  86) = (   0.8750156   0.0721430   1.0739279  )
        87           I   tau(  87) = (   0.7500045   0.2886574   0.2909381  )
        88           I   tau(  88) = (   0.7500096   0.2886529   0.6824310  )
        89           I   tau(  89) = (   0.7500147   0.2886484   1.0739238  )
        90           I   tau(  90) = (   0.6250037   0.5051628   0.2909340  )
        91           I   tau(  91) = (   0.6250088   0.5051583   0.6824268  )
        92           I   tau(  92) = (   0.6250139   0.5051538   1.0739197  )
        93           I   tau(  93) = (   0.5000029   0.7216681   0.2909299  )
        94           I   tau(  94) = (   0.5000080   0.7216636   0.6824227  )
        95           I   tau(  95) = (   0.5000131   0.7216591   1.0739156  )
        96           I   tau(  96) = (  -0.0000017   0.1443297   0.1005555  )
        97           I   tau(  97) = (   0.0000034   0.1443252   0.4920483  )
        98           I   tau(  98) = (   0.0000085   0.1443207   0.8835412  )
        99           I   tau(  99) = (  -0.1250025   0.3608351   0.1005514  )
       100           I   tau( 100) = (  -0.1249974   0.3608306   0.4920442  )
       101           I   tau( 101) = (  -0.1249923   0.3608260   0.8835371  )
       102           I   tau( 102) = (  -0.2500034   0.5773404   0.1005472  )
       103           I   tau( 103) = (  -0.2499983   0.5773359   0.4920401  )
       104           I   tau( 104) = (  -0.2499932   0.5773314   0.8835329  )
       105           I   tau( 105) = (  -0.3750042   0.7938458   0.1005431  )
       106           I   tau( 106) = (  -0.3749991   0.7938413   0.4920360  )
       107           I   tau( 107) = (  -0.3749940   0.7938368   0.8835288  )
       108           I   tau( 108) = (   0.2499983   0.1443288   0.1005587  )
       109           I   tau( 109) = (   0.2500034   0.1443242   0.4920516  )
       110           I   tau( 110) = (   0.2500085   0.1443197   0.8835444  )
       111           I   tau( 111) = (   0.1249975   0.3608341   0.1005546  )
       112           I   tau( 112) = (   0.1250026   0.3608296   0.4920475  )
       113           I   tau( 113) = (   0.1250077   0.3608251   0.8835403  )
       114           I   tau( 114) = (  -0.0000034   0.5773395   0.1005505  )
       115           I   tau( 115) = (   0.0000017   0.5773350   0.4920433  )
       116           I   tau( 116) = (   0.0000068   0.5773304   0.8835362  )
       117           I   tau( 117) = (  -0.1250042   0.7938448   0.1005464  )
       118           I   tau( 118) = (  -0.1249991   0.7938403   0.4920392  )
       119           I   tau( 119) = (  -0.1249940   0.7938358   0.8835321  )
       120           I   tau( 120) = (   0.4999983   0.1443278   0.1005620  )
       121           I   tau( 121) = (   0.5000034   0.1443233   0.4920548  )
       122           I   tau( 122) = (   0.5000085   0.1443188   0.8835477  )
       123           I   tau( 123) = (   0.3749975   0.3608332   0.1005579  )
       124           I   tau( 124) = (   0.3750026   0.3608286   0.4920507  )
       125           I   tau( 125) = (   0.3750077   0.3608241   0.8835436  )
       126           I   tau( 126) = (   0.2499966   0.5773385   0.1005537  )
       127           I   tau( 127) = (   0.2500017   0.5773340   0.4920466  )
       128           I   tau( 128) = (   0.2500068   0.5773295   0.8835394  )
       129           I   tau( 129) = (   0.1249958   0.7938439   0.1005496  )
       130           I   tau( 130) = (   0.1250009   0.7938394   0.4920425  )
       131           I   tau( 131) = (   0.1250060   0.7938348   0.8835353  )
       132           I   tau( 132) = (   0.7499983   0.1443268   0.1005653  )
       133           I   tau( 133) = (   0.7500034   0.1443223   0.4920581  )
       134           I   tau( 134) = (   0.7500085   0.1443178   0.8835509  )
       135           I   tau( 135) = (   0.6249975   0.3608322   0.1005611  )
       136           I   tau( 136) = (   0.6250026   0.3608277   0.4920540  )
       137           I   tau( 137) = (   0.6250077   0.3608232   0.8835468  )
       138           I   tau( 138) = (   0.4999966   0.5773376   0.1005570  )
       139           I   tau( 139) = (   0.5000017   0.5773330   0.4920499  )
       140           I   tau( 140) = (   0.5000068   0.5773285   0.8835427  )
       141           I   tau( 141) = (   0.3749958   0.7938429   0.1005529  )
       142           I   tau( 142) = (   0.3750009   0.7938384   0.4920457  )
       143           I   tau( 143) = (   0.3750060   0.7938339   0.8835386  )
       144           I   tau( 144) = (   0.1250136   0.2164827   1.1744753  )

   Crystallographic axes

     site n.     atom                  positions (cryst. coord.)
         1           Pb  tau(   1) = (  0.2499950  0.2499832  0.3333306  )
         2           Pb  tau(   2) = (  0.2499975  0.2499780  0.6666639  )
         3           Pb  tau(   3) = (  0.2499986  0.4999716  0.9999938  )
         4           Pb  tau(   4) = (  0.2499936  0.4999820  0.3333271  )
         5           Pb  tau(   5) = (  0.2499961  0.4999768  0.6666604  )
         6           Pb  tau(   6) = (  0.2499972  0.7499704  0.9999902  )
         7           Pb  tau(   7) = (  0.2499922  0.7499809  0.3333236  )
         8           Pb  tau(   8) = (  0.2499947  0.7499757  0.6666569  )
         9           Pb  tau(   9) = (  0.2499957  0.9999693  0.9999867  )
        10           Pb  tau(  10) = (  0.2499908  0.9999797  0.3333201  )
        11           Pb  tau(  11) = (  0.2499932  0.9999745  0.6666534  )
        12           Pb  tau(  12) = (  0.4999994  0.2499716  1.0000000  )
        13           Pb  tau(  13) = (  0.4999944  0.2499821  0.3333334  )
        14           Pb  tau(  14) = (  0.4999969  0.2499768  0.6666667  )
        15           Pb  tau(  15) = (  0.4999980  0.4999705  0.9999965  )
        16           Pb  tau(  16) = (  0.4999930  0.4999809  0.3333299  )
        17           Pb  tau(  17) = (  0.4999955  0.4999757  0.6666632  )
        18           Pb  tau(  18) = (  0.4999966  0.7499693  0.9999930  )
        19           Pb  tau(  19) = (  0.4999916  0.7499798  0.3333264  )
        20           Pb  tau(  20) = (  0.4999941  0.7499745  0.6666597  )
        21           Pb  tau(  21) = (  0.4999952  0.9999682  0.9999895  )
        22           Pb  tau(  22) = (  0.4999902  0.9999786  0.3333228  )
        23           Pb  tau(  23) = (  0.4999927  0.9999734  0.6666562  )
        24           Pb  tau(  24) = (  0.7499989  0.2499705  1.0000028  )
        25           Pb  tau(  25) = (  0.7499939  0.2499809  0.3333362  )
        26           Pb  tau(  26) = (  0.7499964  0.2499757  0.6666695  )
        27           Pb  tau(  27) = (  0.7499975  0.4999694  0.9999993  )
        28           Pb  tau(  28) = (  0.7499925  0.4999798  0.3333326  )
        29           Pb  tau(  29) = (  0.7499950  0.4999746  0.6666660  )
        30           Pb  tau(  30) = (  0.7499960  0.7499682  0.9999958  )
        31           Pb  tau(  31) = (  0.7499910  0.7499786  0.3333291  )
        32           Pb  tau(  32) = (  0.7499935  0.7499734  0.6666625  )
        33           Pb  tau(  33) = (  0.7499946  0.9999671  0.9999923  )
        34           Pb  tau(  34) = (  0.7499896  0.9999775  0.3333256  )
        35           Pb  tau(  35) = (  0.7499921  0.9999723  0.6666590  )
        36           Pb  tau(  36) = (  0.9999983  0.2499694  1.0000056  )
        37           Pb  tau(  37) = (  0.9999933  0.2499798  0.3333389  )
        38           Pb  tau(  38) = (  0.9999958  0.2499746  0.6666723  )
        39           Pb  tau(  39) = (  0.9999969  0.4999682  1.0000021  )
        40           Pb  tau(  40) = (  0.9999919  0.4999787  0.3333354  )
        41           Pb  tau(  41) = (  0.9999944  0.4999735  0.6666687  )
        42           Pb  tau(  42) = (  0.9999955  0.7499671  0.9999986  )
        43           Pb  tau(  43) = (  0.9999905  0.7499775  0.3333319  )
        44           Pb  tau(  44) = (  0.9999930  0.7499723  0.6666652  )
        45           Pb  tau(  45) = (  0.9999941  0.9999659  0.9999951  )
        46           Pb  tau(  46) = (  0.9999891  0.9999764  0.3333284  )
        47           Pb  tau(  47) = (  0.9999916  0.9999712  0.6666617  )
        48           I   tau(  48) = (  0.1666641  0.0833174  0.2477120  )
        49           I   tau(  49) = (  0.1666666  0.0833122  0.5810454  )
        50           I   tau(  50) = (  0.1666691  0.0833070  0.9143787  )
        51           I   tau(  51) = (  0.1666626  0.3333162  0.2477085  )
        52           I   tau(  52) = (  0.1666651  0.3333110  0.5810418  )
        53           I   tau(  53) = (  0.1666676  0.3333058  0.9143752  )
        54           I   tau(  54) = (  0.1666612  0.5833151  0.2477050  )
        55           I   tau(  55) = (  0.1666637  0.5833099  0.5810383  )
        56           I   tau(  56) = (  0.1666662  0.5833047  0.9143717  )
        57           I   tau(  57) = (  0.1666598  0.8333139  0.2477015  )
        58           I   tau(  58) = (  0.1666623  0.8333087  0.5810348  )
        59           I   tau(  59) = (  0.1666648  0.8333035  0.9143682  )
        60           I   tau(  60) = (  0.4166635  0.0833163  0.2477148  )
        61           I   tau(  61) = (  0.4166660  0.0833111  0.5810481  )
        62           I   tau(  62) = (  0.4166685  0.0833058  0.9143815  )
        63           I   tau(  63) = (  0.4166621  0.3333151  0.2477113  )
        64           I   tau(  64) = (  0.4166646  0.3333099  0.5810446  )
        65           I   tau(  65) = (  0.4166671  0.3333047  0.9143780  )
        66           I   tau(  66) = (  0.4166607  0.5833140  0.2477078  )
        67           I   tau(  67) = (  0.4166632  0.5833088  0.5810411  )
        68           I   tau(  68) = (  0.4166657  0.5833035  0.9143744  )
        69           I   tau(  69) = (  0.4166593  0.8333128  0.2477043  )
        70           I   tau(  70) = (  0.4166618  0.8333076  0.5810376  )
        71           I   tau(  71) = (  0.4166643  0.8333024  0.9143709  )
        72           I   tau(  72) = (  0.6666629  0.0833152  0.2477176  )
        73           I   tau(  73) = (  0.6666654  0.0833099  0.5810509  )
        74           I   tau(  74) = (  0.6666679  0.0833047  0.9143842  )
        75           I   tau(  75) = (  0.6666615  0.3333140  0.2477141  )
        76           I   tau(  76) = (  0.6666640  0.3333088  0.5810474  )
        77           I   tau(  77) = (  0.6666665  0.3333036  0.9143807  )
        78           I   tau(  78) = (  0.6666601  0.5833129  0.2477106  )
        79           I   tau(  79) = (  0.6666626  0.5833076  0.5810439  )
        80           I   tau(  80) = (  0.6666651  0.5833024  0.9143772  )
        81           I   tau(  81) = (  0.6666587  0.8333117  0.2477070  )
        82           I   tau(  82) = (  0.6666612  0.8333065  0.5810404  )
        83           I   tau(  83) = (  0.6666637  0.8333013  0.9143737  )
        84           I   tau(  84) = (  0.9166624  0.0833141  0.2477203  )
        85           I   tau(  85) = (  0.9166649  0.0833088  0.5810537  )
        86           I   tau(  86) = (  0.9166674  0.0833036  0.9143870  )
        87           I   tau(  87) = (  0.9166610  0.3333129  0.2477168  )
        88           I   tau(  88) = (  0.9166635  0.3333077  0.5810502  )
        89           I   tau(  89) = (  0.9166660  0.3333025  0.9143835  )
        90           I   tau(  90) = (  0.9166596  0.5833118  0.2477133  )
        91           I   tau(  91) = (  0.9166621  0.5833065  0.5810467  )
        92           I   tau(  92) = (  0.9166646  0.5833013  0.9143800  )
        93           I   tau(  93) = (  0.9166582  0.8333106  0.2477098  )
        94           I   tau(  94) = (  0.9166607  0.8333054  0.5810431  )
        95           I   tau(  95) = (  0.9166632  0.8333002  0.9143765  )
        96           I   tau(  96) = (  0.0833271  0.1666576  0.0856171  )
        97           I   tau(  97) = (  0.0833296  0.1666524  0.4189505  )
        98           I   tau(  98) = (  0.0833321  0.1666472  0.7522838  )
        99           I   tau(  99) = (  0.0833257  0.4166565  0.0856136  )
       100           I   tau( 100) = (  0.0833282  0.4166513  0.4189470  )
       101           I   tau( 101) = (  0.0833307  0.4166460  0.7522803  )
       102           I   tau( 102) = (  0.0833243  0.6666553  0.0856101  )
       103           I   tau( 103) = (  0.0833268  0.6666501  0.4189434  )
       104           I   tau( 104) = (  0.0833293  0.6666449  0.7522768  )
       105           I   tau( 105) = (  0.0833229  0.9166542  0.0856066  )
       106           I   tau( 106) = (  0.0833254  0.9166489  0.4189399  )
       107           I   tau( 107) = (  0.0833279  0.9166437  0.7522733  )
       108           I   tau( 108) = (  0.3333265  0.1666565  0.0856199  )
       109           I   tau( 109) = (  0.3333290  0.1666513  0.4189532  )
       110           I   tau( 110) = (  0.3333315  0.1666461  0.7522866  )
       111           I   tau( 111) = (  0.3333251  0.4166554  0.0856164  )
       112           I   tau( 112) = (  0.3333276  0.4166501  0.4189497  )
       113           I   tau( 113) = (  0.3333301  0.4166449  0.7522831  )
       114           I   tau( 114) = (  0.3333237  0.6666542  0.0856129  )
       115           I   tau( 115) = (  0.3333262  0.6666490  0.4189462  )
       116           I   tau( 116) = (  0.3333287  0.6666438  0.7522795  )
       117           I   tau( 117) = (  0.3333223  0.9166531  0.0856094  )
       118           I   tau( 118) = (  0.3333248  0.9166478  0.4189427  )
       119           I   tau( 119) = (  0.3333273  0.9166426  0.7522760  )
       120           I   tau( 120) = (  0.5833260  0.1666554  0.0856227  )
       121           I   tau( 121) = (  0.5833285  0.1666502  0.4189560  )
       122           I   tau( 122) = (  0.5833310  0.1666450  0.7522893  )
       123           I   tau( 123) = (  0.5833246  0.4166542  0.0856192  )
       124           I   tau( 124) = (  0.5833271  0.4166490  0.4189525  )
       125           I   tau( 125) = (  0.5833296  0.4166438  0.7522858  )
       126           I   tau( 126) = (  0.5833232  0.6666531  0.0856157  )
       127           I   tau( 127) = (  0.5833257  0.6666479  0.4189490  )
       128           I   tau( 128) = (  0.5833282  0.6666427  0.7522823  )
       129           I   tau( 129) = (  0.5833218  0.9166519  0.0856121  )
       130           I   tau( 130) = (  0.5833243  0.9166467  0.4189455  )
       131           I   tau( 131) = (  0.5833268  0.9166415  0.7522788  )
       132           I   tau( 132) = (  0.8333254  0.1666543  0.0856254  )
       133           I   tau( 133) = (  0.8333279  0.1666491  0.4189588  )
       134           I   tau( 134) = (  0.8333304  0.1666438  0.7522921  )
       135           I   tau( 135) = (  0.8333240  0.4166531  0.0856219  )
       136           I   tau( 136) = (  0.8333265  0.4166479  0.4189553  )
       137           I   tau( 137) = (  0.8333290  0.4166427  0.7522886  )
       138           I   tau( 138) = (  0.8333226  0.6666520  0.0856184  )
       139           I   tau( 139) = (  0.8333251  0.6666468  0.4189518  )
       140           I   tau( 140) = (  0.8333276  0.6666415  0.7522851  )
       141           I   tau( 141) = (  0.8333212  0.9166508  0.0856149  )
       142           I   tau( 142) = (  0.8333237  0.9166456  0.4189482  )
       143           I   tau( 143) = (  0.8333262  0.9166404  0.7522816  )
       144           I   tau( 144) = (  0.2500000  0.2499727  0.9999973  )

     number of k points=     1  Gaussian smearing, width (Ry)=  0.0100
                       cart. coord. in units 2pi/alat
        k(    1) = (   0.0000000   0.0000000   0.0000000), wk =   2.0000000

                       cryst. coord.
        k(    1) = (   0.0000000   0.0000000   0.0000000), wk =   2.0000000

     Dense  grid:  5079105 G-vectors     FFT dimensions: ( 216, 216, 250)

     Smooth grid:  3634441 G-vectors     FFT dimensions: ( 192, 192, 225)

     Dynamical RAM for                 wfc:      37.46 MB

     Dynamical RAM for     wfc (w. buffer):      37.46 MB

     Dynamical RAM for           str. fact:       0.61 MB

     Dynamical RAM for           local pot:       0.00 MB

     Dynamical RAM for          nlocal pot:      70.16 MB

     Dynamical RAM for                qrad:       3.00 MB

     Dynamical RAM for          rho,v,vnew:       1.98 MB

     Dynamical RAM for               rhoin:       0.66 MB

     Dynamical RAM for            rho*nmix:       4.84 MB

     Dynamical RAM for           G-vectors:       1.24 MB

     Dynamical RAM for          h,s,v(r/c):    1402.92 MB

     Dynamical RAM for          <psi|beta>:      54.74 MB

     Dynamical RAM for                 psi:     149.85 MB

     Dynamical RAM for                hpsi:     149.85 MB

     Dynamical RAM for                spsi:     149.85 MB

     Dynamical RAM for      wfcinit/wfcrot:     118.78 MB

     Dynamical RAM for           addusdens:      85.68 MB

     Dynamical RAM for          addusforce:     144.34 MB

     Dynamical RAM for         addusstress:      60.85 MB

     Estimated static dynamical RAM per process >     117.80 MB

     Estimated max dynamical RAM per process >       1.98 GB

     Estimated total dynamical RAM >     507.47 GB

     Atomic positions and unit cell read from directory:
     ./PbI2.save/
     Atomic positions from file used, from input discarded
 

     Check: negative core charge=   -0.000001

     The initial density is read from file :
     ./PbI2.save/charge-density


     starting charge    2306.0000, renormalised to    2305.0000


     %%%%%%%%%%%%%%%%%%%%%%%%%%%%%%%%%%%%%%%%%%%%%%%%%%%%%%%%%%%%%%%%%%%%%%%%
     %                                                                      %
     % You are using vdW-DF, which was implemented by the Thonhauser group. %
     % Please cite the following two papers that made this development      %
     % possible and the two reviews that describe the various versions:     %
     %                                                                      %
     %   T. Thonhauser et al., PRL 115, 136402 (2015).                      %
     %   T. Thonhauser et al., PRB 76, 125112 (2007).                       %
     %   K. Berland et al., Rep. Prog. Phys. 78, 066501 (2015).             %
     %   D.C. Langreth et al., J. Phys.: Condens. Matter 21, 084203 (2009). %
     %                                                                      %
     % If you are calculating stress with vdW-DF, please also cite:         %
     %                                                                      %
     %   R. Sabatini et al., J. Phys.: Condens. Matter 24, 424209 (2012).   %
     %                                                                      %
     %%%%%%%%%%%%%%%%%%%%%%%%%%%%%%%%%%%%%%%%%%%%%%%%%%%%%%%%%%%%%%%%%%%%%%%%

     %%%%%%%%%%%%%%%%%%%%%%%%%%%%%%%%%%%%%%%%%%%%%%%%%%%%%%%%%%%%%%%%%%%%%%%%
     %                                                                      %
     %  vdW-DF NEWS:                                                        %
     %                                                                      %
     %  * vdW-DF3 is now available. DOI: 10.1021/acs.jctc.0c00471           %
     %    use with input_dft = 'vdW-DF3-opt1' or 'vdW-DF3-opt2'             %
     %                                                                      %
     %  * Unscreened and range-separated vdW-DF hybrid functionals          %
     %    DOI: 10.1063/1.4986522 and 10.1088/1361-648X/ac2ad2               %
     %    use with input_dft = 'vdW-DF-cx0' (etc) and 'vdW-DF-ahcx'         %
     %                                                                      %
     %%%%%%%%%%%%%%%%%%%%%%%%%%%%%%%%%%%%%%%%%%%%%%%%%%%%%%%%%%%%%%%%%%%%%%%%


     Carrying out vdW-DF run using the following parameters:
     Nqs    =  20  Npoints =  1024  r_max =  100.000
     q_mesh =  0.00001000  0.04494208  0.09755937  0.15916263
               0.23128650  0.31572767  0.41458969  0.53033537
               0.66584808  0.82450364  1.01025438  1.22772762
               1.48234092  1.78043706  2.12944203  2.53805004
               3.01644009  3.57652955  4.23227104  5.00000000


     -----------------------------------------------
     Non-local corr. energy    =      69.32483297 Ry
     -----------------------------------------------

     Wavefunctions not found or not readable, recomputing them from scratch
     Starting wfcs are 1296 randomized atomic wfcs +   88 random wfcs
     Checking if some PAW data can be deallocated... 
       PAW data deallocated on  162 nodes for type:  1
       PAW data deallocated on   94 nodes for type:  2

     total cpu time spent up to now is       36.3 secs

     Self-consistent Calculation

     iteration #  1     ecut=    70.00 Ry     beta= 0.70
     Davidson diagonalization with overlap

---- Real-time Memory Report at c_bands before calling an iterative solver
           600 MiB given to the printing process from OS
             0 MiB allocation reported by mallinfo(arena+hblkhd)
       1681235 MiB available memory on the node where the printing process lives
------------------
     ethr =  1.00E-05,  avg # of iterations = 22.0


     -----------------------------------------------
     Non-local corr. energy    =      69.38336376 Ry
     -----------------------------------------------


     total cpu time spent up to now is     1097.0 secs

     total energy              =  -96801.86364582 Ry
     estimated scf accuracy    <       0.09044147 Ry

     iteration #  2     ecut=    70.00 Ry     beta= 0.70
     Davidson diagonalization with overlap

---- Real-time Memory Report at c_bands before calling an iterative solver
          1923 MiB given to the printing process from OS
             0 MiB allocation reported by mallinfo(arena+hblkhd)
       1659733 MiB available memory on the node where the printing process lives
------------------
     ethr =  3.92E-06,  avg # of iterations = 11.0


     -----------------------------------------------
     Non-local corr. energy    =      69.38077681 Ry
     -----------------------------------------------


     total cpu time spent up to now is     1666.4 secs

     total energy              =  -96801.79433450 Ry
     estimated scf accuracy    <       4.76847023 Ry

     iteration #  3     ecut=    70.00 Ry     beta= 0.70
     Davidson diagonalization with overlap

---- Real-time Memory Report at c_bands before calling an iterative solver
          1923 MiB given to the printing process from OS
             0 MiB allocation reported by mallinfo(arena+hblkhd)
       1659594 MiB available memory on the node where the printing process lives
------------------
     ethr =  3.92E-06,  avg # of iterations = 16.0


     -----------------------------------------------
     Non-local corr. energy    =      69.37505582 Ry
     -----------------------------------------------


     total cpu time spent up to now is     2467.5 secs

     total energy              =  -96801.91747633 Ry
     estimated scf accuracy    <       0.17516671 Ry

     iteration #  4     ecut=    70.00 Ry     beta= 0.70
     Davidson diagonalization with overlap

---- Real-time Memory Report at c_bands before calling an iterative solver
          1923 MiB given to the printing process from OS
             0 MiB allocation reported by mallinfo(arena+hblkhd)
       1659467 MiB available memory on the node where the printing process lives
------------------
     c_bands:  4 eigenvalues not converged
     ethr =  3.92E-06,  avg # of iterations = 20.0


     -----------------------------------------------
     Non-local corr. energy    =      69.36072095 Ry
     -----------------------------------------------


     total cpu time spent up to now is     3089.9 secs

     total energy              =  -96801.93220863 Ry
     estimated scf accuracy    <       0.00596753 Ry

     iteration #  5     ecut=    70.00 Ry     beta= 0.70
     Davidson diagonalization with overlap

---- Real-time Memory Report at c_bands before calling an iterative solver
          1923 MiB given to the printing process from OS
             0 MiB allocation reported by mallinfo(arena+hblkhd)
       1659355 MiB available memory on the node where the printing process lives
------------------
     ethr =  2.59E-07,  avg # of iterations = 12.0


     -----------------------------------------------
     Non-local corr. energy    =      69.35745969 Ry
     -----------------------------------------------


     total cpu time spent up to now is     3557.3 secs

     total energy              =  -96801.93296634 Ry
     estimated scf accuracy    <       0.00265922 Ry

     iteration #  6     ecut=    70.00 Ry     beta= 0.70
     Davidson diagonalization with overlap

---- Real-time Memory Report at c_bands before calling an iterative solver
          1923 MiB given to the printing process from OS
             0 MiB allocation reported by mallinfo(arena+hblkhd)
       1659230 MiB available memory on the node where the printing process lives
------------------
     ethr =  1.15E-07,  avg # of iterations = 16.0


     -----------------------------------------------
     Non-local corr. energy    =      69.35560227 Ry
     -----------------------------------------------


     total cpu time spent up to now is     4055.6 secs

     total energy              =  -96801.93324898 Ry
     estimated scf accuracy    <       0.00093409 Ry

     iteration #  7     ecut=    70.00 Ry     beta= 0.70
     Davidson diagonalization with overlap

---- Real-time Memory Report at c_bands before calling an iterative solver
          1923 MiB given to the printing process from OS
             0 MiB allocation reported by mallinfo(arena+hblkhd)
       1659103 MiB available memory on the node where the printing process lives
------------------
     ethr =  4.05E-08,  avg # of iterations = 10.0


     -----------------------------------------------
     Non-local corr. energy    =      69.35260658 Ry
     -----------------------------------------------


     total cpu time spent up to now is     4378.0 secs

     total energy              =  -96801.93332049 Ry
     estimated scf accuracy    <       0.00044591 Ry

     iteration #  8     ecut=    70.00 Ry     beta= 0.70
     Davidson diagonalization with overlap

---- Real-time Memory Report at c_bands before calling an iterative solver
          1923 MiB given to the printing process from OS
             0 MiB allocation reported by mallinfo(arena+hblkhd)
       1658966 MiB available memory on the node where the printing process lives
------------------
     ethr =  1.93E-08,  avg # of iterations = 14.0


     -----------------------------------------------
     Non-local corr. energy    =      69.34651930 Ry
     -----------------------------------------------


     total cpu time spent up to now is     4797.8 secs

     total energy              =  -96801.93332999 Ry
     estimated scf accuracy    <       0.00020080 Ry

     iteration #  9     ecut=    70.00 Ry     beta= 0.70
     Davidson diagonalization with overlap

---- Real-time Memory Report at c_bands before calling an iterative solver
          1923 MiB given to the printing process from OS
             0 MiB allocation reported by mallinfo(arena+hblkhd)
       1658857 MiB available memory on the node where the printing process lives
------------------
     ethr =  8.71E-09,  avg # of iterations = 20.0


     -----------------------------------------------
     Non-local corr. energy    =      69.34352551 Ry
     -----------------------------------------------


     total cpu time spent up to now is     5499.1 secs

     total energy              =  -96801.93332320 Ry
     estimated scf accuracy    <       0.00032404 Ry

     iteration # 10     ecut=    70.00 Ry     beta= 0.70
     Davidson diagonalization with overlap

---- Real-time Memory Report at c_bands before calling an iterative solver
          1923 MiB given to the printing process from OS
             0 MiB allocation reported by mallinfo(arena+hblkhd)
       1658722 MiB available memory on the node where the printing process lives
------------------
     c_bands:  1 eigenvalues not converged
     ethr =  8.71E-09,  avg # of iterations = 20.0


     -----------------------------------------------
     Non-local corr. energy    =      69.34328223 Ry
     -----------------------------------------------


     total cpu time spent up to now is     6131.7 secs

     total energy              =  -96801.93335547 Ry
     estimated scf accuracy    <       0.00009146 Ry

     iteration # 11     ecut=    70.00 Ry     beta= 0.70
     Davidson diagonalization with overlap

---- Real-time Memory Report at c_bands before calling an iterative solver
          1923 MiB given to the printing process from OS
             0 MiB allocation reported by mallinfo(arena+hblkhd)
       1658721 MiB available memory on the node where the printing process lives
------------------
     ethr =  3.97E-09,  avg # of iterations = 13.0


     -----------------------------------------------
     Non-local corr. energy    =      69.34339769 Ry
     -----------------------------------------------


     total cpu time spent up to now is     6543.7 secs

     total energy              =  -96801.93336750 Ry
     estimated scf accuracy    <       0.00000593 Ry

     iteration # 12     ecut=    70.00 Ry     beta= 0.70
     Davidson diagonalization with overlap

---- Real-time Memory Report at c_bands before calling an iterative solver
          1923 MiB given to the printing process from OS
             0 MiB allocation reported by mallinfo(arena+hblkhd)
       1658715 MiB available memory on the node where the printing process lives
------------------
     ethr =  2.57E-10,  avg # of iterations = 29.0


     -----------------------------------------------
     Non-local corr. energy    =      69.34356135 Ry
     -----------------------------------------------


     total cpu time spent up to now is     7256.6 secs

     total energy              =  -96801.93337207 Ry
     estimated scf accuracy    <       0.00000918 Ry

     iteration # 13     ecut=    70.00 Ry     beta= 0.70
     Davidson diagonalization with overlap

---- Real-time Memory Report at c_bands before calling an iterative solver
          1940 MiB given to the printing process from OS
             0 MiB allocation reported by mallinfo(arena+hblkhd)
       1658716 MiB available memory on the node where the printing process lives
------------------
     c_bands:  1 eigenvalues not converged
     ethr =  2.57E-10,  avg # of iterations = 20.0


     -----------------------------------------------
     Non-local corr. energy    =      69.34373618 Ry
     -----------------------------------------------


     total cpu time spent up to now is     7887.3 secs

     total energy              =  -96801.93337267 Ry
     estimated scf accuracy    <       0.00001111 Ry

     iteration # 14     ecut=    70.00 Ry     beta= 0.70
     Davidson diagonalization with overlap

---- Real-time Memory Report at c_bands before calling an iterative solver
          1940 MiB given to the printing process from OS
             0 MiB allocation reported by mallinfo(arena+hblkhd)
       1658703 MiB available memory on the node where the printing process lives
------------------
     ethr =  2.57E-10,  avg # of iterations = 11.0


     -----------------------------------------------
     Non-local corr. energy    =      69.34369218 Ry
     -----------------------------------------------


     total cpu time spent up to now is     8203.8 secs

     total energy              =  -96801.93337294 Ry
     estimated scf accuracy    <       0.00000286 Ry

     iteration # 15     ecut=    70.00 Ry     beta= 0.70
     Davidson diagonalization with overlap

---- Real-time Memory Report at c_bands before calling an iterative solver
          1940 MiB given to the printing process from OS
             0 MiB allocation reported by mallinfo(arena+hblkhd)
       1658697 MiB available memory on the node where the printing process lives
------------------
     ethr =  1.24E-10,  avg # of iterations = 13.0


     -----------------------------------------------
     Non-local corr. energy    =      69.34374366 Ry
     -----------------------------------------------


     total cpu time spent up to now is     8620.3 secs

     End of self-consistent calculation

          k = 0.0000 0.0000 0.0000 (454335 PWs)   bands (ev):

   -43.0534 -43.0533 -43.0298 -43.0292 -43.0262 -41.3939 -41.3939 -41.3918
   -41.3917 -41.3912 -41.3911 -41.3597 -41.3597 -41.3594 -41.3594 -41.3577
   -41.3576 -41.3574 -41.3573 -41.3571 -41.3571 -41.3568 -41.3567 -41.2547
   -41.2547 -41.2542 -41.2541 -41.2530 -41.2530 -41.2526 -41.2525 -41.2525
   -41.2524 -41.2520 -41.2519 -40.9294 -40.9294 -40.9293 -40.9293 -40.9291
   -40.9290 -40.9290 -40.9290 -40.9290 -40.9290 -40.9290 -40.9289 -40.9256
   -40.9256 -40.9256 -40.9255 -40.9253 -40.9253 -40.9252 -40.9252 -40.9252
   -40.9252 -40.9252 -40.9251 -40.9222 -40.9221 -40.9221 -40.9221 -40.9219
   -40.9218 -40.9218 -40.9218 -40.9218 -40.9218 -40.9218 -40.9217 -40.9101
   -40.9101 -40.9101 -40.9100 -40.9099 -40.9098 -40.9098 -40.9098 -40.9098
   -40.9098 -40.9098 -40.9097 -40.9097 -40.9097 -40.9097 -40.9097 -40.9095
   -40.9095 -40.9094 -40.9094 -40.9094 -40.9094 -40.9094 -40.9093 -40.8658
   -40.8658 -40.8658 -40.8657 -40.8657 -40.8656 -40.8653 -40.8653 -40.8653
   -40.8652 -40.8652 -40.8651 -40.8642 -40.8642 -40.8642 -40.8641 -40.8641
   -40.8641 -40.8613 -40.8613 -40.8613 -40.8612 -40.8612 -40.8612 -40.8607
   -40.8607 -40.8607 -40.8606 -40.8606 -40.8606 -40.8574 -40.8574 -40.8573
   -40.8573 -40.8572 -40.8571 -40.8568 -40.8568 -40.8567 -40.8567 -40.8566
   -40.8565 -40.8547 -40.8547 -40.8546 -40.8546 -40.8546 -40.8546 -40.8546
   -40.8545 -40.8545 -40.8545 -40.8544 -40.8544 -40.8540 -40.8539 -40.8539
   -40.8538 -40.8538 -40.8537 -40.8332 -40.8332 -40.8331 -40.8331 -40.8324
   -40.8324 -40.8324 -40.8324 -40.8320 -40.8320 -40.7753 -40.7752 -40.7752
   -40.7751 -40.7751 -40.7750 -40.7736 -40.7736 -40.7730 -40.7730 -40.7729
   -40.7729 -40.7711 -40.7711 -40.7711 -40.7710 -40.7710 -40.7710 -40.7710
   -40.7709 -40.7709 -40.7709 -40.7707 -40.7707 -40.7707 -40.7706 -40.7706
   -40.7705 -40.7593 -40.7593 -40.7592 -40.7592 -40.7592 -40.7591 -40.7587
   -40.7587 -40.7586 -40.7586 -40.7586 -40.7585 -40.7276 -40.7276 -40.7276
   -40.7275 -40.7275 -40.7275 -40.7268 -40.7268 -40.7268 -40.7267 -40.7267
   -40.7267 -40.7266 -40.7265 -40.7265 -40.7264 -40.7264 -40.7264 -40.7261
   -40.7261 -40.7260 -40.7260 -40.7260 -40.7259 -40.7259 -40.7259 -40.7258
   -40.7258 -40.7258 -40.7257 -40.7237 -40.7237 -40.7237 -40.7236 -40.7236
   -40.7236 -40.7231 -40.7231 -40.7231 -40.7231 -40.7231 -40.7231 -40.7217
   -40.7217 -40.7217 -40.7217 -40.7217 -40.7216 -40.7215 -40.7215 -40.7215
   -40.7215 -40.7215 -40.7215 -40.7215 -40.7214 -40.7214 -40.7214 -40.7214
   -40.7214 -40.7214 -40.7213 -40.7213 -40.7213 -40.7213 -40.7213 -40.7213
   -40.7212 -40.7212 -40.7212 -40.7212 -40.7212 -40.7201 -40.7200 -40.7200
   -40.7200 -40.7199 -40.7199 -40.7191 -40.7191 -40.7191 -40.7191 -40.7190
   -40.7190 -40.7190 -40.7190 -40.7190 -40.7190 -40.7190 -40.7190 -40.7188
   -40.7188 -40.7188 -40.7187 -40.7187 -40.7187 -40.7186 -40.7186 -40.7186
   -40.7186 -40.7186 -40.7186 -40.7186 -40.7186 -40.7186 -40.7186 -40.7186
   -40.7186 -40.7183 -40.7183 -40.7183 -40.7182 -40.7182 -40.7182 -40.7178
   -40.7178 -40.7178 -40.7178 -40.7178 -40.7178 -40.7178 -40.7178 -40.7178
   -40.7178 -40.7178 -40.7178 -40.7174 -40.7174 -40.7174 -40.7174 -40.7174
   -40.7174 -40.7174 -40.7174 -40.7174 -40.7174 -40.7174 -40.7174 -40.7172
   -40.7172 -40.7172 -40.7172 -40.7171 -40.7171 -40.7171 -40.7171 -40.7171
   -40.7171 -40.7171 -40.7171 -40.7158 -40.7157 -40.7157 -40.7157 -40.7157
   -40.7157 -40.7155 -40.7155 -40.7155 -40.7155 -40.7155 -40.7155 -40.7151
   -40.7151 -40.7151 -40.7151 -40.7150 -40.7150 -40.7150 -40.7150 -40.7150
   -40.7150 -40.7150 -40.7150 -40.7149 -40.7148 -40.7148 -40.7148 -40.7148
   -40.7148 -40.7124 -40.7124 -40.7124 -40.7123 -40.7123 -40.7123 -40.7119
   -40.7118 -40.7118 -40.7118 -40.7117 -40.7117 -40.7115 -40.7115 -40.7115
   -40.7114 -40.7114 -40.7114 -40.7112 -40.7112 -40.7112 -40.7111 -40.7111
   -40.7111 -40.7107 -40.7107 -40.7107 -40.7106 -40.7106 -40.7105 -40.7078
   -40.7078 -40.7078 -40.7078 -40.7078 -40.7078 -40.7077 -40.7076 -40.7076
   -40.7076 -40.7076 -40.7076 -40.7076 -40.7076 -40.7074 -40.7074 -40.7074
   -40.7074 -40.7074 -40.7074 -40.7073 -40.7073 -40.7072 -40.7072 -40.7072
   -40.7072 -40.7072 -40.7071 -40.7069 -40.7069 -40.7069 -40.7069 -40.7069
   -40.7069 -40.7068 -40.7068 -40.7068 -40.7068 -40.7068 -40.7068 -40.7068
   -40.7068 -40.7068 -40.7067 -40.7067 -40.7067 -40.7067 -40.7067 -40.7067
   -40.7067 -40.7066 -40.7066 -40.7066 -40.7066 -40.7066 -40.7066 -40.7066
   -40.7065 -40.7065 -40.7065 -40.7065 -40.7065 -40.7065 -40.7065 -40.7063
   -40.7063 -40.7063 -40.7063 -40.7063 -40.7063 -13.0915 -13.0904 -13.0902
   -13.0858 -13.0857 -13.0841 -13.0838 -13.0796 -13.0795 -13.0738 -13.0737
   -13.0725 -13.0720 -13.0719 -13.0716 -13.0707 -13.0705 -13.0682 -13.0660
   -13.0652 -13.0651 -13.0642 -13.0641 -13.0640 -13.0613 -13.0612 -13.0612
   -13.0601 -13.0599 -13.0591 -13.0170 -13.0169 -13.0155 -13.0135 -13.0135
   -13.0110 -13.0010 -13.0003 -13.0002 -12.9999 -12.9998 -12.9976 -12.9976
   -12.9976 -12.9975 -12.9959 -12.9959 -12.9951 -12.9950 -12.9922 -12.9922
   -12.9893 -12.9880 -12.9875 -12.9874 -12.9868 -12.9868 -12.9814 -12.9811
   -12.9802 -12.9802 -12.9799 -12.9793 -12.9793 -12.9786 -12.9780 -12.9780
   -12.9774 -12.9774 -12.9751 -12.9751 -12.9747 -12.9747 -12.9735 -12.9732
   -12.8984 -12.8983 -12.8907 -12.8907 -12.8907 -12.8907 -12.8863 -12.8863
   -12.8863 -12.8863 -12.8813 -12.8813 -12.8771 -12.8771 -12.8755 -12.8755
   -12.8755 -12.8755 -12.8743 -12.8742 -12.8741 -12.8741 -12.8740 -12.8740
   -12.8719 -12.8719 -12.8719 -12.8719 -12.8705 -12.8705 -12.8702 -12.8702
   -12.8698 -12.8698 -12.8697 -12.8697 -12.8692 -12.8692 -12.8692 -12.8692
   -12.8689 -12.8689 -12.8640 -12.8640 -12.8640 -12.8639 -12.8630 -12.8629
   -12.8623 -12.8623 -12.8623 -12.8623 -12.8598 -12.8597 -12.8595 -12.8594
   -12.8594 -12.8594 -12.8581 -12.8581 -12.8569 -12.8569 -12.8569 -12.8569
   -12.8543 -12.8543 -12.8536 -12.8535 -12.8529 -12.8529 -12.8529 -12.8528
   -12.8525 -12.8525 -12.8525 -12.8524 -12.8519 -12.8519 -12.8517 -12.8517
   -12.8517 -12.8517 -12.8515 -12.8515 -12.8512 -12.8512 -12.8501 -12.8501
   -12.8500 -12.8500 -12.8490 -12.8489 -12.8489 -12.8489 -12.8489 -12.8489
   -12.8486 -12.8486 -12.8486 -12.8486 -12.8476 -12.8476 -12.8475 -12.8475
   -12.8468 -12.8468 -12.8464 -12.8464 -12.8463 -12.8463 -12.8463 -12.8463
   -12.8462 -12.8462 -12.8461 -12.8461 -12.8460 -12.8460 -12.8441 -12.8440
   -12.8439 -12.8439 -12.8438 -12.8438 -12.8426 -12.8425 -12.8417 -12.8417
   -12.8416 -12.8416 -12.8403 -12.8403 -12.8403 -12.8403 -12.8397 -12.8396
   -12.8395 -12.8395 -12.8388 -12.8388 -12.8387 -12.8387 -12.8386 -12.8386
   -12.8373 -12.8373 -12.8372 -12.8372 -12.8351 -12.8350 -12.8349 -12.8349
   -12.8348 -12.8348 -12.8328 -12.8328 -12.8327 -12.8327 -12.8323 -12.8322
    -9.5570  -8.1651  -8.1156  -8.1147  -8.0229  -8.0226  -8.0214  -8.0191
    -7.9740  -7.9501  -7.9409  -7.9401  -7.8913  -7.8784  -7.8780  -7.8289
    -7.8286  -7.8286  -7.8235  -7.8219  -7.8219  -7.7994  -7.7994  -7.7978
    -7.7964  -7.7954  -7.7954  -7.7706  -7.7225  -7.7224  -7.7196  -7.7079
    -7.7051  -7.7050  -7.6898  -7.6572  -7.6571  -7.6529  -7.6529  -7.6310
    -7.6266  -7.6083  -7.6064  -7.6063  -7.6007  -7.6007  -7.5877  -7.5847
    -7.5815  -7.5792  -7.5791  -7.5723  -7.5700  -7.5700  -7.5648  -7.5611
    -7.5611  -7.5509  -7.5509  -7.5495  -7.5495  -7.5459  -7.5434  -7.5408
    -7.5400  -7.5309  -7.5309  -7.5153  -7.5153  -7.5134  -7.5097  -7.5087
    -7.5087  -7.4748  -7.4708  -7.4708  -7.4663  -7.4635  -7.4625  -7.4625
    -7.4563  -7.4511  -7.4511  -7.4450  -7.4450  -7.4348  -7.4348  -7.4317
    -7.4317  -7.4311  -7.4295  -7.4226  -7.4226  -7.4205  -7.4150  -7.4150
    -7.4115  -3.7730  -3.7729  -3.7669  -3.7296  -3.7295  -3.7127  -3.7046
    -3.7046  -3.6176  -3.5777  -3.5777  -3.5735  -3.5735  -3.5684  -3.5629
    -3.5591  -3.5591  -3.5582  -3.5579  -3.5579  -3.5574  -3.5566  -3.5561
    -3.5492  -3.5492  -3.5488  -3.5488  -3.4924  -3.4923  -3.4573  -3.4572
    -3.4292  -3.3110  -3.3110  -3.3098  -3.3075  -3.3013  -3.3013  -3.2958
    -3.2958  -3.2913  -3.2897  -3.2864  -3.2864  -3.2613  -3.0994  -3.0647
     0.0813   0.0828   0.1564   0.8962   0.8962   0.9260   0.9788   0.9788
     0.9789   1.1202   1.1285   1.1287   1.1455   1.1455   1.1538   1.1608
     1.1609   1.2167   1.2178   1.2219   1.2220   1.2639   1.2771   1.2772
     1.3515   1.3725   1.3726   1.3824   1.3979   1.3980   1.3997   1.3998
     1.4000   1.4080   1.4080   1.4170   1.4198   1.4224   1.4224   1.4989
     1.5017   1.5022   1.5022   1.5042   1.5042   1.5101   1.5229   1.5229
     1.5272   1.5292   1.5293   1.5395   1.5622   1.5622   1.5623   1.5624
     1.5628   1.5664   1.6504   1.6504   1.7014   1.7130   1.7132   1.7388
     1.7454   1.7456   1.7805   1.7805   1.7807   1.7807   1.7812   1.7898
     1.8111   1.8113   1.8163   1.9107   1.9107   1.9107   1.9144   1.9148
     1.9148   1.9162   1.9477   1.9477   1.9609   1.9914   1.9915   1.9938
     2.0003   2.0003   2.0032   2.0032   2.0124   2.0223   2.0392   2.0393
     2.0421   2.0421   2.0578   2.0580   2.0580   2.0590   2.0609   2.0665
     2.0665   2.0758   2.0759   2.1182   2.1207   2.1210   2.1355   2.1391
     2.1403   2.1440   2.1441   2.1575   2.1575   2.1640   2.1640   2.1768
     2.1824   2.2023   2.2024   2.2151   2.2311   2.2514   2.2514   2.2800
     2.2801   2.3091   2.3092   2.3100   2.3100   2.3108   2.3127   2.3154
     2.3195   2.3591   2.3627   2.3627   2.3682   2.3684   2.3684   2.3689
     2.4014   2.4016   2.4788   2.5080   2.5173   2.5174   2.5345   2.5346
     2.5599   2.5600   2.5657   2.5667   2.5668   2.5737   2.5801   2.5802
     2.5825   2.5825   2.5966   2.5996   2.5996   2.6040   2.6042   2.6607
     2.6611   2.6643   2.6803   2.7025   2.7027   2.7229   2.7229   2.7392
     2.7393   2.7418   2.7571   2.7571   2.7585   2.7726   2.7766   2.7766
     2.7925   2.7927   2.7956   2.7984   2.8057   2.8102   2.8102   2.8232
     2.8233   2.8309   2.8372   2.8372   2.8420   2.8421   2.8541   2.8541
     2.8609   2.8662   2.8662   2.8663   2.8663   2.8739   2.9159   2.9479
     2.9480   2.9496   2.9497   2.9567   2.9567   2.9577   2.9619   2.9649
     2.9649   2.9649   2.9674   2.9691   2.9692   2.9764   2.9767   2.9767
     2.9815   2.9845   2.9845   2.9849   2.9849   2.9899   2.9901   2.9937
     2.9937   2.9946   2.9952   2.9952   3.0095   3.0095   3.0144   3.0183
     3.0217   3.0217   3.0454   3.0469   3.0469   3.0519   3.0519   3.0540
     3.0855   3.0855   3.0912   3.1176   3.1177   3.1346   3.1436   3.1619
     3.1620   3.1717   3.1717   3.2162   3.2214   3.2215   3.2906   3.3266
     3.3266   3.3359   3.3407   3.3413   3.3413   3.3492   3.3533   3.3533
     3.3551   3.3551   3.3559   3.3832   3.4159   3.4159   3.4161   3.4172
     3.4172   3.4222   3.4278   3.4278   3.4279   3.4279   3.4322   3.4340
     3.6746   3.6881   3.6884   5.9737   6.0463   6.1742   6.4124   6.4423
     6.4424   6.4917   6.4917   6.5250   6.5608   6.5608   6.5640   6.5654
     6.5678   6.5678   6.5692   6.5693   6.6534   6.7493   6.7493   6.8039
     6.8040   6.8080   6.8096   6.8098   6.8098   6.8126   6.8126   6.8656
     6.8684   6.8792   6.8792   6.8894   6.8894   6.9361   6.9361   6.9463
     6.9463   6.9924   7.0042   7.0305   7.0305   7.0311   7.0518   7.0518
     7.0519   7.0519   7.0530   7.0712   7.0921   7.0921   7.1076   7.1781
     7.1781   7.1943   7.1943   7.1971   7.2404   7.2404   7.2430   7.2491
     7.2491   7.2520   7.2532   7.2532   7.2567   7.2831   7.2901   7.2902
     7.2914   7.2914   7.3043   7.3094   7.3128   7.3151   7.3151   7.3270
     7.3271   7.3297   7.3325   7.3325   7.3363   7.3363   7.3382   7.3382
     7.3438   7.3448   7.3448   7.3468   7.3468   7.4130   7.4221   7.4221
     7.4341   7.4347   7.4347   7.4357   7.4621   7.4621   7.4665   7.4666
     7.4735   7.4791   7.4853   7.4853   7.4921   7.5027   7.5027   7.5320
     7.5320   7.5335   7.5340   7.5353   7.5353   7.5612   7.5612   7.5702
     7.5821   7.6142   7.6142   7.6170   7.6237   7.6290   7.6291   7.6518
     7.6518   7.7434   7.7434   7.7500   7.7527   7.7546   7.7547   7.7694
     7.7704   7.7704   7.7785   7.7811   7.7811   8.0575   8.0597   8.0597
     9.1390   9.1390   9.1455   9.5200   9.5200   9.5387   9.6551   9.6575
     9.6575   9.7016   9.7017   9.7275   9.7968   9.7968   9.8022   9.8383
     9.9150   9.9183   9.9183   9.9208   9.9234   9.9234  10.0009  10.0443
    10.0444  10.0585  10.0585  10.0592  10.1669  10.1669  10.2255  10.2257
    10.2305  10.2420  10.2420  10.2484  10.2522  10.2541  10.2541  10.2603
    10.2790  10.3270  10.3385  10.3385  10.3400  10.3400  10.3450  10.3737
    10.4086  10.4086  10.4198  10.4248  10.4249  10.4261  10.6145  10.6194
    10.6196  10.6335  10.6627  10.6627  10.7368  10.7582  10.7582  10.7829
    10.7830  10.7894  10.7922  10.8055  10.8055  10.8136  10.8136  10.8208
    10.8404  10.9127  10.9127  10.9166  10.9166  10.9181  10.9873  11.0224
    11.0225  11.0310  11.0310  11.0455  11.0580  11.0593  11.0593  11.0646

     occupation numbers 
     1.0000   1.0000   1.0000   1.0000   1.0000   1.0000   1.0000   1.0000
     1.0000   1.0000   1.0000   1.0000   1.0000   1.0000   1.0000   1.0000
     1.0000   1.0000   1.0000   1.0000   1.0000   1.0000   1.0000   1.0000
     1.0000   1.0000   1.0000   1.0000   1.0000   1.0000   1.0000   1.0000
     1.0000   1.0000   1.0000   1.0000   1.0000   1.0000   1.0000   1.0000
     1.0000   1.0000   1.0000   1.0000   1.0000   1.0000   1.0000   1.0000
     1.0000   1.0000   1.0000   1.0000   1.0000   1.0000   1.0000   1.0000
     1.0000   1.0000   1.0000   1.0000   1.0000   1.0000   1.0000   1.0000
     1.0000   1.0000   1.0000   1.0000   1.0000   1.0000   1.0000   1.0000
     1.0000   1.0000   1.0000   1.0000   1.0000   1.0000   1.0000   1.0000
     1.0000   1.0000   1.0000   1.0000   1.0000   1.0000   1.0000   1.0000
     1.0000   1.0000   1.0000   1.0000   1.0000   1.0000   1.0000   1.0000
     1.0000   1.0000   1.0000   1.0000   1.0000   1.0000   1.0000   1.0000
     1.0000   1.0000   1.0000   1.0000   1.0000   1.0000   1.0000   1.0000
     1.0000   1.0000   1.0000   1.0000   1.0000   1.0000   1.0000   1.0000
     1.0000   1.0000   1.0000   1.0000   1.0000   1.0000   1.0000   1.0000
     1.0000   1.0000   1.0000   1.0000   1.0000   1.0000   1.0000   1.0000
     1.0000   1.0000   1.0000   1.0000   1.0000   1.0000   1.0000   1.0000
     1.0000   1.0000   1.0000   1.0000   1.0000   1.0000   1.0000   1.0000
     1.0000   1.0000   1.0000   1.0000   1.0000   1.0000   1.0000   1.0000
     1.0000   1.0000   1.0000   1.0000   1.0000   1.0000   1.0000   1.0000
     1.0000   1.0000   1.0000   1.0000   1.0000   1.0000   1.0000   1.0000
     1.0000   1.0000   1.0000   1.0000   1.0000   1.0000   1.0000   1.0000
     1.0000   1.0000   1.0000   1.0000   1.0000   1.0000   1.0000   1.0000
     1.0000   1.0000   1.0000   1.0000   1.0000   1.0000   1.0000   1.0000
     1.0000   1.0000   1.0000   1.0000   1.0000   1.0000   1.0000   1.0000
     1.0000   1.0000   1.0000   1.0000   1.0000   1.0000   1.0000   1.0000
     1.0000   1.0000   1.0000   1.0000   1.0000   1.0000   1.0000   1.0000
     1.0000   1.0000   1.0000   1.0000   1.0000   1.0000   1.0000   1.0000
     1.0000   1.0000   1.0000   1.0000   1.0000   1.0000   1.0000   1.0000
     1.0000   1.0000   1.0000   1.0000   1.0000   1.0000   1.0000   1.0000
     1.0000   1.0000   1.0000   1.0000   1.0000   1.0000   1.0000   1.0000
     1.0000   1.0000   1.0000   1.0000   1.0000   1.0000   1.0000   1.0000
     1.0000   1.0000   1.0000   1.0000   1.0000   1.0000   1.0000   1.0000
     1.0000   1.0000   1.0000   1.0000   1.0000   1.0000   1.0000   1.0000
     1.0000   1.0000   1.0000   1.0000   1.0000   1.0000   1.0000   1.0000
     1.0000   1.0000   1.0000   1.0000   1.0000   1.0000   1.0000   1.0000
     1.0000   1.0000   1.0000   1.0000   1.0000   1.0000   1.0000   1.0000
     1.0000   1.0000   1.0000   1.0000   1.0000   1.0000   1.0000   1.0000
     1.0000   1.0000   1.0000   1.0000   1.0000   1.0000   1.0000   1.0000
     1.0000   1.0000   1.0000   1.0000   1.0000   1.0000   1.0000   1.0000
     1.0000   1.0000   1.0000   1.0000   1.0000   1.0000   1.0000   1.0000
     1.0000   1.0000   1.0000   1.0000   1.0000   1.0000   1.0000   1.0000
     1.0000   1.0000   1.0000   1.0000   1.0000   1.0000   1.0000   1.0000
     1.0000   1.0000   1.0000   1.0000   1.0000   1.0000   1.0000   1.0000
     1.0000   1.0000   1.0000   1.0000   1.0000   1.0000   1.0000   1.0000
     1.0000   1.0000   1.0000   1.0000   1.0000   1.0000   1.0000   1.0000
     1.0000   1.0000   1.0000   1.0000   1.0000   1.0000   1.0000   1.0000
     1.0000   1.0000   1.0000   1.0000   1.0000   1.0000   1.0000   1.0000
     1.0000   1.0000   1.0000   1.0000   1.0000   1.0000   1.0000   1.0000
     1.0000   1.0000   1.0000   1.0000   1.0000   1.0000   1.0000   1.0000
     1.0000   1.0000   1.0000   1.0000   1.0000   1.0000   1.0000   1.0000
     1.0000   1.0000   1.0000   1.0000   1.0000   1.0000   1.0000   1.0000
     1.0000   1.0000   1.0000   1.0000   1.0000   1.0000   1.0000   1.0000
     1.0000   1.0000   1.0000   1.0000   1.0000   1.0000   1.0000   1.0000
     1.0000   1.0000   1.0000   1.0000   1.0000   1.0000   1.0000   1.0000
     1.0000   1.0000   1.0000   1.0000   1.0000   1.0000   1.0000   1.0000
     1.0000   1.0000   1.0000   1.0000   1.0000   1.0000   1.0000   1.0000
     1.0000   1.0000   1.0000   1.0000   1.0000   1.0000   1.0000   1.0000
     1.0000   1.0000   1.0000   1.0000   1.0000   1.0000   1.0000   1.0000
     1.0000   1.0000   1.0000   1.0000   1.0000   1.0000   1.0000   1.0000
     1.0000   1.0000   1.0000   1.0000   1.0000   1.0000   1.0000   1.0000
     1.0000   1.0000   1.0000   1.0000   1.0000   1.0000   1.0000   1.0000
     1.0000   1.0000   1.0000   1.0000   1.0000   1.0000   1.0000   1.0000
     1.0000   1.0000   1.0000   1.0000   1.0000   1.0000   1.0000   1.0000
     1.0000   1.0000   1.0000   1.0000   1.0000   1.0000   1.0000   1.0000
     1.0000   1.0000   1.0000   1.0000   1.0000   1.0000   1.0000   1.0000
     1.0000   1.0000   1.0000   1.0000   1.0000   1.0000   1.0000   1.0000
     1.0000   1.0000   1.0000   1.0000   1.0000   1.0000   1.0000   1.0000
     1.0000   1.0000   1.0000   1.0000   1.0000   1.0000   1.0000   1.0000
     1.0000   1.0000   1.0000   1.0000   1.0000   1.0000   1.0000   1.0000
     1.0000   1.0000   1.0000   1.0000   1.0000   1.0000   1.0000   1.0000
     1.0000   1.0000   1.0000   1.0000   1.0000   1.0000   1.0000   1.0000
     1.0000   1.0000   1.0000   1.0000   1.0000   1.0000   1.0000   1.0000
     1.0000   1.0000   1.0000   1.0000   1.0000   1.0000   1.0000   1.0000
     1.0000   1.0000   1.0000   1.0000   1.0000   1.0000   1.0000   1.0000
     1.0000   1.0000   1.0000   1.0000   1.0000   1.0000   1.0000   1.0000
     1.0000   1.0000   1.0000   1.0000   1.0000   1.0000   1.0000   1.0000
     1.0000   1.0000   1.0000   1.0000   1.0000   1.0000   1.0000   1.0000
     1.0000   1.0000   1.0000   1.0000   1.0000   1.0000   1.0000   1.0000
     1.0000   1.0000   1.0000   1.0000   1.0000   1.0000   1.0000   1.0000
     1.0000   1.0000   1.0000   1.0000   1.0000   1.0000   1.0000   1.0000
     1.0000   1.0000   1.0000   1.0000   1.0000   1.0000   1.0000   1.0000
     1.0000   1.0000   1.0000   1.0000   1.0000   1.0000   1.0000   1.0000
     1.0000   1.0000   1.0000   1.0000   1.0000   1.0000   1.0000   1.0000
     1.0000   1.0000   1.0000   1.0000   1.0000   1.0000   1.0000   1.0000
     1.0000   1.0000   1.0000   1.0000   1.0000   1.0000   1.0000   1.0000
     1.0000   1.0000   1.0000   1.0000   1.0000   1.0000   1.0000   1.0000
     1.0000   1.0000   1.0000   1.0000   1.0000   1.0000   1.0000   1.0000
     1.0000   1.0000   1.0000   1.0000   1.0000   1.0000   1.0000   1.0000
     1.0000   1.0000   1.0000   1.0000   1.0000   1.0000   1.0000   1.0000
     1.0000   1.0000   1.0000   1.0000   1.0000   1.0000   1.0000   1.0000
     1.0000   1.0000   1.0000   1.0000   1.0000   1.0000   1.0000   1.0000
     1.0000   1.0000   1.0000   1.0000   1.0000   1.0000   1.0000   1.0000
     1.0000   1.0000   1.0000   1.0000   1.0000   1.0000   1.0000   1.0000
     1.0000   1.0000   1.0000   1.0000   1.0000   1.0000   1.0000   1.0000
     1.0000   1.0000   1.0000   1.0000   1.0000   1.0000   1.0000   1.0000
     1.0000   1.0000   1.0000   1.0000   1.0000   1.0000   1.0000   1.0000
     1.0000   1.0000   1.0000   1.0000   1.0000   1.0000   1.0000   1.0000
     1.0000   1.0000   1.0000   1.0000   1.0000   1.0000   1.0000   1.0000
     1.0000   1.0000   1.0000   1.0000   1.0000   1.0000   1.0000   1.0000
     1.0000   1.0000   1.0000   1.0000   1.0000   1.0000   1.0000   1.0000
     1.0000   1.0000   1.0000   1.0000   1.0000   1.0000   1.0000   1.0000
     1.0000   1.0000   1.0000   1.0000   1.0000   1.0000   1.0000   1.0000
     1.0000   1.0000   1.0000   1.0000   1.0000   1.0000   1.0000   1.0000
     1.0000   1.0000   1.0000   1.0000   1.0000   1.0000   1.0000   1.0000
     1.0000   1.0000   1.0000   1.0000   1.0000   1.0000   1.0000   1.0000
     1.0000   1.0000   1.0000   1.0000   1.0000   1.0000   1.0000   1.0000
     1.0000   1.0000   1.0000   1.0000   1.0000   1.0000   1.0000   1.0000
     1.0000   1.0000   1.0000   1.0000   1.0000   1.0000   1.0000   1.0000
     1.0000   1.0000   1.0000   1.0000   1.0000   1.0000   1.0000   1.0000
     1.0000   1.0000   1.0000   1.0000   1.0000   1.0000   1.0000   1.0000
     1.0000   1.0000   1.0000   1.0000   1.0000   1.0000   1.0000   1.0000
     1.0000   1.0000   1.0000   1.0000   1.0000   1.0000   1.0000   1.0000
     1.0000   1.0000   1.0000   1.0000   1.0000   1.0000   1.0000   1.0000
     1.0000   1.0000   1.0000   1.0000   1.0000   1.0000   1.0000   1.0000
     1.0000   1.0000   1.0000   1.0000   1.0000   1.0000   1.0000   1.0000
     1.0000   1.0000   1.0000   1.0000   1.0000   1.0000   1.0000   1.0000
     1.0000   1.0000   1.0000   1.0000   1.0000   1.0000   1.0000   1.0000
     1.0000   1.0000   1.0000   1.0000   1.0000   1.0000   1.0000   1.0000
     1.0000   1.0000   1.0000   1.0000   1.0000   1.0000   1.0000   1.0000
     1.0000   1.0000   1.0000   1.0000   1.0000   1.0000   1.0000   1.0000
     1.0000   1.0000   1.0000   1.0000   1.0000   1.0000   1.0000   1.0000
     1.0000   1.0000   1.0000   1.0000   1.0000   1.0000   1.0000   1.0000
     1.0000   1.0000   1.0000   1.0000   1.0000   1.0000   1.0000   1.0000
     1.0000   1.0000   1.0000   1.0000   1.0000   1.0000   1.0000   1.0000
     1.0000   1.0000   1.0000   1.0000   1.0000   1.0000   1.0000   1.0000
     1.0000   1.0000   1.0000   1.0000   1.0000   1.0000   1.0000   1.0000
     1.0000   1.0000   1.0000   1.0000   1.0000   1.0000   1.0000   1.0000
     1.0000   1.0000   1.0000   1.0000   1.0000   1.0000   1.0000   1.0000
     1.0000   1.0000   1.0000   1.0000   1.0000   1.0000   1.0000   1.0000
     1.0000   1.0000   1.0000   1.0000   1.0000   1.0000   1.0000   1.0000
     1.0000   1.0000   1.0000   1.0000   1.0000   1.0000   1.0000   1.0000
     1.0000   1.0000   1.0000   1.0000   1.0000   1.0000   1.0000   1.0000
     1.0000   1.0000   1.0000   1.0000   1.0000   1.0000   1.0000   1.0000
     1.0000   1.0000   1.0000   1.0000   1.0000   1.0000   1.0000   1.0000
     1.0000   1.0000   1.0000   1.0000   1.0000   1.0000   1.0000   1.0000
     1.0000   1.0000   1.0000   1.0000   1.0000   1.0000   1.0000   1.0000
     1.0000   1.0000   1.0000   1.0000   1.0000   1.0000   1.0000   1.0000
     1.0000   1.0000   1.0000   1.0000   1.0000   1.0000   1.0000   1.0000
     1.0000   1.0000   1.0000   1.0000   1.0000   1.0000   0.9997   0.9989
     0.9989   0.9985   0.9982   0.9982   0.9982   0.9976   0.9973   0.9973
     0.9972   0.9972   0.9971   0.9933   0.9836   0.9836   0.9835   0.9830
     0.9830   0.9807   0.9778   0.9778   0.9777   0.9777   0.9753   0.9741
     0.2892   0.2433   0.2422   0.0000   0.0000   0.0000   0.0000   0.0000
     0.0000   0.0000   0.0000   0.0000   0.0000   0.0000   0.0000   0.0000
     0.0000   0.0000   0.0000   0.0000   0.0000   0.0000   0.0000   0.0000
     0.0000   0.0000   0.0000   0.0000   0.0000   0.0000   0.0000   0.0000
     0.0000   0.0000   0.0000   0.0000   0.0000   0.0000   0.0000   0.0000
     0.0000   0.0000   0.0000   0.0000   0.0000   0.0000   0.0000   0.0000
     0.0000   0.0000   0.0000   0.0000   0.0000   0.0000   0.0000   0.0000
     0.0000   0.0000   0.0000   0.0000   0.0000   0.0000   0.0000   0.0000
     0.0000   0.0000   0.0000   0.0000   0.0000   0.0000   0.0000   0.0000
     0.0000   0.0000   0.0000   0.0000   0.0000   0.0000   0.0000   0.0000
     0.0000   0.0000   0.0000   0.0000   0.0000   0.0000   0.0000   0.0000
     0.0000   0.0000   0.0000   0.0000   0.0000   0.0000   0.0000   0.0000
     0.0000   0.0000   0.0000   0.0000   0.0000   0.0000   0.0000   0.0000
     0.0000   0.0000   0.0000   0.0000   0.0000   0.0000   0.0000   0.0000
     0.0000   0.0000   0.0000   0.0000   0.0000   0.0000   0.0000   0.0000
     0.0000   0.0000   0.0000   0.0000   0.0000   0.0000   0.0000   0.0000
     0.0000   0.0000   0.0000   0.0000   0.0000   0.0000   0.0000   0.0000
     0.0000   0.0000   0.0000   0.0000   0.0000   0.0000   0.0000   0.0000
     0.0000   0.0000   0.0000   0.0000   0.0000   0.0000   0.0000   0.0000
     0.0000   0.0000   0.0000   0.0000   0.0000   0.0000   0.0000   0.0000
     0.0000   0.0000   0.0000   0.0000   0.0000   0.0000   0.0000   0.0000
     0.0000   0.0000   0.0000   0.0000   0.0000   0.0000   0.0000   0.0000
     0.0000   0.0000   0.0000   0.0000   0.0000   0.0000   0.0000   0.0000
     0.0000   0.0000   0.0000   0.0000   0.0000   0.0000   0.0000   0.0000
     0.0000   0.0000   0.0000   0.0000   0.0000   0.0000   0.0000   0.0000
     0.0000   0.0000   0.0000   0.0000   0.0000   0.0000   0.0000   0.0000
     0.0000   0.0000   0.0000   0.0000   0.0000   0.0000   0.0000   0.0000
     0.0000   0.0000   0.0000   0.0000   0.0000   0.0000   0.0000   0.0000
     0.0000   0.0000   0.0000   0.0000   0.0000   0.0000   0.0000   0.0000

     the Fermi energy is     3.6212 ev

!    total energy              =  -96801.93337313 Ry
     total all-electron energy =  -3345911.127088 Ry
     estimated scf accuracy    <       0.00000009 Ry
     smearing contrib. (-TS)   =      -0.02335777 Ry
     internal energy E=F+TS    =  -96801.91001536 Ry

     The total energy is F=E-TS. E is the sum of the following terms:
     one-electron contribution =  -17991.86080955 Ry
     hartree contribution      =   10039.78543525 Ry
     xc contribution           =   -6823.42187118 Ry
     ewald contribution        =  -14864.44547450 Ry
     one-center paw contrib.   =  -67161.96729537 Ry
      -> PAW hartree energy AE =      95.85534313 Ry
      -> PAW hartree energy PS =     -96.09166465 Ry
      -> PAW xc energy AE      =    -798.42558114 Ry
      -> PAW xc energy PS      =      33.30590844 Ry
      -> total E_H with PAW    =   10039.54911373 Ry
      -> total E_XC with PAW   =   -7588.54154387 Ry

     convergence has been achieved in  15 iterations


     -----------------------------------------------
     Non-local corr. energy    =      69.34374366 Ry
     -----------------------------------------------


     Forces acting on atoms (cartesian axes, Ry/au):

     atom    1 type  1   force =     0.00000292   -0.00000040    0.00060658
     atom    2 type  1   force =     0.00000124    0.00000017   -0.00060367
     atom    3 type  1   force =    -0.00132594    0.00231973    0.00001190
     atom    4 type  1   force =    -0.00051351    0.00015812    0.00043525
     atom    5 type  1   force =     0.00011807    0.00052747   -0.00042976
     atom    6 type  1   force =     0.00000333    0.00000374   -0.00000453
     atom    7 type  1   force =    -0.00007112   -0.00004140   -0.00001324
     atom    8 type  1   force =     0.00007794    0.00004470    0.00002066
     atom    9 type  1   force =     0.00133098   -0.00231118   -0.00000912
     atom   10 type  1   force =    -0.00011850   -0.00052556    0.00043552
     atom   11 type  1   force =     0.00051738   -0.00016022   -0.00043142
     atom   12 type  1   force =     0.00266579    0.00000240   -0.00001203
     atom   13 type  1   force =     0.00039454    0.00036493    0.00043161
     atom   14 type  1   force =     0.00039646   -0.00036841   -0.00043527
     atom   15 type  1   force =     0.00132537    0.00230514   -0.00000103
     atom   16 type  1   force =     0.00051436    0.00015877    0.00043333
     atom   17 type  1   force =    -0.00012082    0.00052879   -0.00043272
     atom   18 type  1   force =    -0.00000011    0.00099785    0.00007990
     atom   19 type  1   force =     0.00000060    0.00025370    0.00004292
     atom   20 type  1   force =    -0.00000061    0.00012019    0.00009428
     atom   21 type  1   force =     0.00085996   -0.00049641    0.00008141
     atom   22 type  1   force =     0.00021943   -0.00012650    0.00004343
     atom   23 type  1   force =     0.00010439   -0.00006090    0.00009449
     atom   24 type  1   force =    -0.00000299   -0.00000499   -0.00001052
     atom   25 type  1   force =    -0.00000078    0.00008088   -0.00001703
     atom   26 type  1   force =    -0.00000018   -0.00009087    0.00001765
     atom   27 type  1   force =     0.00085670    0.00049936   -0.00009089
     atom   28 type  1   force =     0.00009659    0.00005509   -0.00009072
     atom   29 type  1   force =     0.00022018    0.00012784   -0.00004001
     atom   30 type  1   force =    -0.00000647    0.00000317   -0.00000696
     atom   31 type  1   force =     0.00007105   -0.00004175   -0.00001588
     atom   32 type  1   force =    -0.00007864    0.00004557    0.00001761
     atom   33 type  1   force =    -0.00086340   -0.00049815    0.00007880
     atom   34 type  1   force =    -0.00022075   -0.00012770    0.00004263
     atom   35 type  1   force =    -0.00010475   -0.00005963    0.00009545
     atom   36 type  1   force =    -0.00267332   -0.00000964    0.00000572
     atom   37 type  1   force =    -0.00039413    0.00036529    0.00043111
     atom   38 type  1   force =    -0.00039789   -0.00036678   -0.00043333
     atom   39 type  1   force =    -0.00085980    0.00049824   -0.00009305
     atom   40 type  1   force =    -0.00009697    0.00005667   -0.00009048
     atom   41 type  1   force =    -0.00022021    0.00012796   -0.00003736
     atom   42 type  1   force =    -0.00000266   -0.00099205   -0.00008994
     atom   43 type  1   force =     0.00000113   -0.00011216   -0.00009023
     atom   44 type  1   force =     0.00000015   -0.00025382   -0.00003966
     atom   45 type  1   force =    -0.00133278   -0.00230271   -0.00000542
     atom   46 type  1   force =     0.00011967   -0.00052478    0.00043253
     atom   47 type  1   force =    -0.00051764   -0.00015956   -0.00043240
     atom   48 type  2   force =     0.00002103    0.00006403   -0.00040589
     atom   49 type  2   force =     0.00000786    0.00010642   -0.00009768
     atom   50 type  2   force =     0.00001418    0.00229931   -0.00020403
     atom   51 type  2   force =     0.00006149   -0.00002930   -0.00040112
     atom   52 type  2   force =     0.00009414   -0.00004923   -0.00009838
     atom   53 type  2   force =     0.00209032   -0.00119983   -0.00017936
     atom   54 type  2   force =     0.00004897   -0.00004558   -0.00008887
     atom   55 type  2   force =    -0.00006402   -0.00012545    0.00008510
     atom   56 type  2   force =     0.00072170   -0.00034045   -0.00010455
     atom   57 type  2   force =    -0.00001346    0.00007585   -0.00009151
     atom   58 type  2   force =    -0.00014148    0.00001224    0.00008421
     atom   59 type  2   force =     0.00007454    0.00079119   -0.00010661
     atom   60 type  2   force =    -0.00020885    0.00012259   -0.00110212
     atom   61 type  2   force =    -0.00013760    0.00008305    0.00001746
     atom   62 type  2   force =    -0.00037876    0.00022639   -0.00027160
     atom   63 type  2   force =    -0.00004449   -0.00004351   -0.00040622
     atom   64 type  2   force =    -0.00008596   -0.00005223   -0.00009418
     atom   65 type  2   force =    -0.00199949   -0.00116584   -0.00019209
     atom   66 type  2   force =     0.00000027   -0.00023059   -0.00108812
     atom   67 type  2   force =     0.00000334   -0.00015969    0.00001991
     atom   68 type  2   force =     0.00000224   -0.00043949   -0.00029045
     atom   69 type  2   force =    -0.00000766    0.00000437   -0.00020859
     atom   70 type  2   force =    -0.00003174   -0.00001463   -0.00014491
     atom   71 type  2   force =     0.00001516    0.00001075   -0.00033065
     atom   72 type  2   force =    -0.00001234    0.00000378   -0.00020930
     atom   73 type  2   force =    -0.00000806    0.00003555   -0.00014471
     atom   74 type  2   force =    -0.00000737   -0.00001680   -0.00033221
     atom   75 type  2   force =    -0.00007970   -0.00002364   -0.00009154
     atom   76 type  2   force =    -0.00008558    0.00011942    0.00008711
     atom   77 type  2   force =    -0.00066443   -0.00045547   -0.00010649
     atom   78 type  2   force =    -0.00004845   -0.00005892   -0.00008993
     atom   79 type  2   force =     0.00006183   -0.00013404    0.00008746
     atom   80 type  2   force =    -0.00071889   -0.00034995   -0.00010723
     atom   81 type  2   force =    -0.00000225   -0.00000444   -0.00020867
     atom   82 type  2   force =     0.00002481   -0.00001841   -0.00014500
     atom   83 type  2   force =    -0.00001909    0.00000446   -0.00033630
     atom   84 type  2   force =     0.00019752    0.00011440   -0.00108858
     atom   85 type  2   force =     0.00013640    0.00008061    0.00001663
     atom   86 type  2   force =     0.00037256    0.00021864   -0.00029313
     atom   87 type  2   force =     0.00006007   -0.00001372   -0.00008885
     atom   88 type  2   force =     0.00007516    0.00012197    0.00008597
     atom   89 type  2   force =     0.00065165   -0.00045113   -0.00010826
     atom   90 type  2   force =    -0.00000126   -0.00000131   -0.00005212
     atom   91 type  2   force =    -0.00000335   -0.00000075    0.00051759
     atom   92 type  2   force =    -0.00000412   -0.00000347    0.00018791
     atom   93 type  2   force =     0.00002531    0.00006537   -0.00008837
     atom   94 type  2   force =     0.00014569    0.00000682    0.00008526
[...]
     atom  109 type  2   force =     0.00000277   -0.00000148    0.00000021
     atom  110 type  2   force =     0.00000188    0.00000029    0.00001076
     atom  111 type  2   force =    -0.00000670   -0.00000634   -0.00000979
     atom  112 type  2   force =    -0.00000341    0.00000130   -0.00000059
     atom  113 type  2   force =    -0.00000804    0.00000002    0.00001566
     atom  114 type  2   force =    -0.00000595   -0.00000151   -0.00000763
     atom  115 type  2   force =    -0.00000791   -0.00000198    0.00000271
     atom  116 type  2   force =    -0.00000113    0.00000151    0.00000673
     atom  117 type  2   force =     0.00000086   -0.00000398   -0.00000578
     atom  118 type  2   force =    -0.00000151   -0.00000366    0.00000217
     atom  119 type  2   force =     0.00000850   -0.00000113    0.00000548
     atom  120 type  2   force =     0.00000507    0.00000219   -0.00000570
     atom  121 type  2   force =     0.00000332    0.00000387    0.00000180
     atom  122 type  2   force =     0.00000574   -0.00000530    0.00000561
     atom  123 type  2   force =     0.00000447   -0.00000000   -0.00000121
     atom  124 type  2   force =     0.00000737    0.00000104   -0.00000304
     atom  125 type  2   force =     0.00000139   -0.00000288    0.00000863
     atom  126 type  2   force =     0.00000020    0.00000008   -0.00000651
     atom  127 type  2   force =     0.00000255   -0.00000124    0.00000296
     atom  128 type  2   force =    -0.00000694    0.00000421    0.00000668
     atom  129 type  2   force =    -0.00000166    0.00000251   -0.00001045
     atom  130 type  2   force =    -0.00000261    0.00000275    0.00000713
     atom  131 type  2   force =    -0.00000272    0.00000248    0.00000225
     atom  132 type  2   force =    -0.00000048    0.00000572   -0.00000686
     atom  133 type  2   force =    -0.00000214    0.00000763    0.00000152
     atom  134 type  2   force =    -0.00000247    0.00000042    0.00000696
     atom  135 type  2   force =     0.00000470    0.00000025   -0.00000332
     atom  136 type  2   force =     0.00000360    0.00000306   -0.00000697
     atom  137 type  2   force =     0.00000616   -0.00000513    0.00000831
     atom  138 type  2   force =     0.00000487   -0.00000315   -0.00000159
     atom  139 type  2   force =     0.00000703   -0.00000422   -0.00000622
     atom  140 type  2   force =     0.00000088   -0.00000171    0.00000853
     atom  141 type  2   force =     0.00000034    0.00000237   -0.00000567
     atom  142 type  2   force =     0.00000207   -0.00000031    0.00000203
     atom  143 type  2   force =    -0.00000809    0.00000451    0.00000673
     atom  144 type  2   force =    -0.00001344    0.00000622   -0.00000298

     Total force =     0.003036     Total SCF correction =     0.000099


     Computing stress (Cartesian axis) and pressure



     -----------------------------------------------
     Non-local corr. energy    =      69.34431329 Ry
     -----------------------------------------------

          total   stress  (Ry/bohr**3)                   (kbar)     P=       -3.77
  -0.00002585   0.00000007  -0.00000008           -3.80        0.01       -0.01
   0.00000007  -0.00002573   0.00000007            0.01       -3.79        0.01
  -0.00000008   0.00000007  -0.00002538           -0.01        0.01       -3.73

     kinetic stress (kbar)  14940.61      0.03     -0.04
                                0.03  14940.67      0.04
                               -0.04      0.04  14950.35

     local   stress (kbar)  -7467.54      0.67     -0.84
                                0.67  -7466.34      0.74
                               -0.84      0.74   1438.37

     nonloc. stress (kbar)  -1003.77      0.02     -0.03
                                0.02  -1003.73      0.03
                               -0.03      0.03  -1010.66

     hartree stress (kbar)  12053.06     -0.24      0.32
                               -0.24  12052.63     -0.28
                                0.32     -0.28   8037.21

     exc-cor stress (kbar)   6972.53     -0.00     -0.00
                               -0.00   6972.53      0.00
                               -0.00      0.00   6971.42

     corecor stress (kbar) -11344.42     -0.00      0.00
                               -0.00 -11344.42     -0.00
                                0.00     -0.00 -11344.32

     ewald   stress (kbar) -14237.95     -0.47      0.58
                               -0.47 -14238.79     -0.51
                                0.58     -0.51 -19131.07

     hubbard stress (kbar)      0.00      0.00      0.00
                                0.00      0.00      0.00
                                0.00      0.00      0.00

     DFT-D   stress (kbar)      0.00      0.00      0.00
                                0.00      0.00      0.00
                                0.00      0.00      0.00

     XDM     stress (kbar)      0.00      0.00      0.00
                                0.00      0.00      0.00
                                0.00      0.00      0.00

     dft-nl  stress (kbar)     83.67      0.00     -0.00
                                0.00     83.67      0.00
                               -0.00      0.00     84.97

     TS-vdW  stress (kbar)      0.00      0.00      0.00
                                0.00      0.00      0.00
                                0.00      0.00      0.00

     MDB     stress (kbar)      0.00      0.00      0.00
                                0.00      0.00      0.00
                                0.00      0.00      0.00

     3D-RISM stress (kbar)      0.00      0.00      0.00
                                0.00      0.00      0.00
                                0.00      0.00      0.00

     Energy error            =      5.3E-05 Ry
     Gradient error          =      7.4E-04 Ry/Bohr

     bfgs converged in  13 scf cycles and  12 bfgs steps
     (criteria: energy <  1.0E-04 Ry, force <  1.0E-03 Ry/Bohr)

     End of BFGS Geometry Optimization

     Final energy             =  -96801.9350695887 Ry

     File ./PbI2.bfgs deleted, as requested
Begin final coordinates

ATOMIC_POSITIONS (angstrom)
Pb            2.3557458112        4.0797124794        7.3930841110
Pb            2.3558297481        4.0796397913       14.7400815712
Pb           -0.0426235648        8.2355161794       22.1338848807
Pb           -0.0065586678        8.1565950266        7.3861029505
Pb            0.0062694454        8.1639650240       14.7469637609
Pb           -2.3554248972       12.2398836972       22.1328302068
Pb           -2.3604428087       12.2370701005        7.3808482656
Pb           -2.3504712073       12.2427218142       14.7521172605
Pb           -4.6682093503       16.2440924469       22.1319266276
Pb           -4.7172409925       16.3157967156        7.3860341866
Pb           -4.7043876347       16.3230895473       14.7469235076
Pb            7.1543103859        4.0801679713       22.1322663417
Pb            7.0675685028        4.0870314230        7.3861604955
Pb            7.0676480379        4.0722167854       14.7470432047
Pb            4.7544557202        8.2346549024       22.1331519557
Pb            4.7180117719        8.1566133699        7.3861212518
Pb            4.7053190301        8.1639732024       14.7469872737
Pb            2.3559534251       12.2597741814       22.1106494249
Pb            2.3557033147       12.2350577812        7.3703232747
Pb            2.3557668409       12.2441720878       14.7526945053
Pb            0.0173676313       16.3098846705       22.1107584529
Pb           -0.0040691941       16.3223561078        7.3703302867
Pb            0.0039180759       16.3176957476       14.7527160497
Pb           11.7782865469        4.0795374230       22.1329834254
Pb           11.7782358215        4.0853196808        7.3810495107
Pb           11.7783082563        4.0738272200       14.7523083955
Pb            9.4397731136        8.1698576704       22.1551258321
Pb            9.4263167594        8.1618759498        7.3804358750
Pb            9.4184637671        8.1572827454       14.7628139032
Pb            7.0669810017       12.2398170467       22.1328500676
Pb            7.0718612439       12.2370284961        7.3808922661
Pb            7.0620178068       12.2426876689       14.7521909628
Pb            4.6942288345       16.3096906493       22.1107350697
Pb            4.7154928131       16.3223577991        7.3703885097
Pb            4.7076159137       16.3176863079       14.7527739167
Pb           16.4024052801        4.0789317669       22.1337904320
Pb           16.4889674682        4.0870337397        7.3862105771
Pb           16.4890052029        4.0722322565       14.7470685021
Pb           14.1167652879        8.1696993072       22.1550624282
Pb           14.1301754845        8.1619063280        7.3804463176
Pb           14.1381288337        8.1573250099       14.7628083164
Pb           11.7781287117       12.2199207818       22.1550546148
Pb           11.7782616163       12.2355882853        7.3803457887
Pb           11.7783218936       12.2446812697       14.7627233892
Pb            9.3795985090       16.2449522627       22.1327188681
Pb            9.4286751591       16.3157786763        7.3860944358
Pb            9.4159638617       16.3230431713       14.7469744770
I             2.3558433804        1.3562652374        5.4949440789
I             2.3557776015        1.3578506337       12.8687176840
I             2.3559193400        1.3974031664       20.1959911128
I            -0.0029434537        5.4415202324        5.4950664222
I            -0.0014881519        5.4407084514       12.8687621269
I             0.0394486123        5.4170623446       20.1988252827
I            -2.3573851211        9.5190929771        5.4904136704
I            -2.3614694033        9.5163061306       12.8727821280
I            -2.3371158428        9.5171441071       20.2440204045
I            -4.7127557598       13.5988443883        5.4903539484
I            -4.7171659567       13.5965883622       12.8727015487
I            -4.7041208647       13.6170546434       20.2438063174
I             7.0549263037        1.3667507084        5.4584694129
I             7.0654124355        1.3606830056       12.8670666332
I             7.0679916670        1.3592530908       20.2606658622
I             4.7144764458        5.4414295040        5.4949804056
I             4.7130560862        5.4407101798       12.8687895928
I             4.6775266266        5.4199990762       20.1966066274
I             2.3557115028        9.5062872626        5.4588574822
I             2.3557929054        9.5179545821       12.8670633205
I             2.3557556017        9.5209874239       20.2605227084
I            -0.0003565426       13.5997686539        5.4842308566
I            -0.0007562191       13.5994668271       12.8658788842
I             0.0013057666       13.6006315750       20.2497638751
I            11.7781863576        1.3602441051        5.4842911428
I            11.7782402999        1.3607198177       12.8660055170
I            11.7782380615        1.3583864846       20.2498537302
I             9.4227871052        5.4416776021        5.4904625733
I             9.4225460914        5.4466408781       12.8729089156
I             9.4110819863        5.4250058701       20.2439602845
I             7.0687847928        9.5190192821        5.4904205709
I             7.0729289209        9.5162520578       12.8728420735
I             7.0488391078        9.5171554929       20.2439837721
I             4.7117122738       13.5997241599        5.4843016830
I             4.7122140245       13.5994366592       12.8659365018
I             4.7101254396       13.6006029907       20.2497230575
I            16.5012885551        1.3665760642        5.4588514351
I            16.4911624556        1.3606413120       12.8671328877
I            16.4884461980        1.3591525085       20.2605810144
I            14.1336006119        5.4417273853        5.4905033346
I            14.1339773204        5.4466688820       12.8729298454
I            14.1454401920        5.4250640528       20.2440980878
I            11.7782266174        9.5198296558        5.4887081548
I            11.7782947761        9.5197691144       12.8862440532
I            11.7782381798        9.5197821048       20.2479632951
I             9.4242034658       13.5987857008        5.4904083329
I             9.4286674463       13.5965660864       12.8727822712
I             9.4157365377       13.6167543083       20.2439230046
I             0.0343964572        2.7393286776        1.9362955815
I            -0.0015036041        2.7187930916        9.2643451529
I            -0.0029516191        2.7179662181       16.6380467474
I            -2.3563891750        6.8003219421        1.8722055825
I            -2.3538482897        6.7988773306        9.2660226229
I            -2.3434530763        6.7928895622       16.6744440281
I            -4.7122212260       10.8792760297        1.8828959895
I            -4.7102441947       10.8805083090        9.2670647207
I            -4.7106929626       10.8801862327       16.6487205419
I            -7.0666180308       14.9588386124        1.8722744541
I            -7.0667822009       14.9620085959        9.2658873537
I            -7.0667507204       14.9735177910       16.6740976791
I             4.6724915831        2.7421786040        1.9341099810
I             4.7130310287        2.7187775484        9.2642936099
I             4.7145583603        2.7179592331       16.6380429211
I             2.3559089003        6.7618792790        1.9368954388
I             2.3557463660        6.8017479995        9.2642972652
I             2.3557961471        6.8033736746       16.6380811750
I            -0.0067964577       10.8626511952        1.8888493289
I             0.0061430374       10.8833693368        9.2602179053
I             0.0017568726       10.8811570613       16.6425985672
I            -2.3737558576       14.9626811154        1.8888036028
I            -2.3495577520       14.9636294348        9.2601700571
I            -2.3536027726       14.9607453311       16.6425962863
I             9.4110818984        2.7341337272        1.8889239677
I             9.4224527216        2.7127055008        9.2603300712
I             9.4228775171        2.7176466571       16.6427067348
I             7.0679654562        6.8001678690        1.8722404745
I             7.0652349707        6.7988102228        9.2660123645
I             7.0551458597        6.7929450464       16.6743377859
I             4.7182427487       10.8627675190        1.8887617310
I             4.7052183477       10.8832937733        9.2602489577
I             4.7097364238       10.8810945866       16.6426371818
I             2.3556698649       14.9599255478        1.8848743244
I             2.3555672644       14.9600668154        9.2468705368
I             2.3556938476       14.9599302410       16.6444083901
I            14.1453089610        2.7342380660        1.8889963913
I            14.1339102364        2.7127379257        9.2604128389
I            14.1336020634        2.7176346722       16.6427098590
I            11.7782268924        6.8010284003        1.8829614114
I            11.7781940815        6.7987323962        9.2672053560
I            11.7782134207        6.7992560806       16.6488218012
I             9.4238106262       10.8791664651        1.8829606244
I             9.4216604107       10.8804453949        9.2670899384
I             9.4221698521       10.8801025261       16.6487012991
I             7.0851126635       14.9624212184        1.8887913893
I             7.0609803346       14.9635795875        9.2602648854
I             7.0650852778       14.9606838023       16.6426415623
I             2.3562162913        4.0796820285       22.1330342692
End final coordinates



     Writing all to output data dir ./PbI2.save/
 
     init_run     :     33.58s CPU     34.71s WALL (       1 calls)
     electrons    : 133609.85s CPU 135428.66s WALL (      13 calls)
     update_pot   :     27.84s CPU     28.15s WALL (      12 calls)
     forces       :    145.01s CPU    150.96s WALL (      13 calls)
     stress       :   2350.84s CPU   2381.14s WALL (      13 calls)

     Called by init_run:
     wfcinit      :     27.05s CPU     27.68s WALL (       1 calls)
     wfcinit:atom :      0.04s CPU      0.07s WALL (       1 calls)
     wfcinit:wfcr :     26.76s CPU     27.19s WALL (       1 calls)
     potinit      :      1.40s CPU      1.63s WALL (       1 calls)
     hinit0       :      1.16s CPU      1.19s WALL (       1 calls)

     Called by electrons:
     c_bands      : 130839.67s CPU 132583.10s WALL (     221 calls)
     sum_band     :   2353.56s CPU   2405.59s WALL (     221 calls)
     v_of_rho     :    183.46s CPU    185.13s WALL (     225 calls)
     v_h          :      3.41s CPU      3.44s WALL (     225 calls)
     v_xc         :    200.51s CPU    202.36s WALL (     251 calls)
     newd         :     58.64s CPU     75.90s WALL (     225 calls)
     PAW_pot      :     67.84s CPU     68.72s WALL (     237 calls)
     mix_rho      :     10.98s CPU     11.19s WALL (     221 calls)
     vdW_kernel   :      0.15s CPU      0.16s WALL (       1 calls)

     Called by c_bands:
     init_us_2    :     21.17s CPU     21.63s WALL (     455 calls)
     init_us_2:cp :     21.17s CPU     21.63s WALL (     455 calls)
     cegterg      : 130753.09s CPU 132333.44s WALL (     223 calls)

     Called by sum_band:
     sum_band:wei :      0.26s CPU      0.29s WALL (     221 calls)
     sum_band:loo :   2284.18s CPU   2304.51s WALL (     221 calls)
     sum_band:buf :      0.00s CPU      0.00s WALL (     221 calls)
     sum_band:ini :     18.20s CPU     18.49s WALL (     221 calls)
     sum_band:cal :    497.23s CPU    501.29s WALL (     233 calls)
     sum_band:bec :     10.24s CPU     10.45s WALL (     233 calls)
     addusdens    :     57.69s CPU     78.78s WALL (     221 calls)
     addusd:skk   :      7.68s CPU      8.24s WALL (     442 calls)
     addusd:dgemm :     30.73s CPU     50.79s WALL (     442 calls)
     addusd:qvan2 :     18.06s CPU     18.28s WALL (     442 calls)

     Called by *egterg:
     cdiaghg      : 111828.71s CPU 112579.46s WALL (    3952 calls)
     cegterg:over :   2369.60s CPU   2477.99s WALL (    3751 calls)
     cegterg:upda :   1302.19s CPU   1324.31s WALL (    3751 calls)
     cegterg:last :    601.11s CPU    605.87s WALL (     226 calls)
     h_psi        :  12641.47s CPU  12791.50s WALL (    3975 calls)
     s_psi        :   1191.41s CPU   1224.21s WALL (    3975 calls)
     g_psi        :      4.35s CPU      4.43s WALL (    3751 calls)

     Called by h_psi:
     h_psi:calbec :   1408.48s CPU   1420.55s WALL (    3975 calls)
     vloc_psi     :  10016.93s CPU  10104.12s WALL (    3975 calls)
     vloc_psi:tg_ :      1.24s CPU      1.34s WALL (    3975 calls)
     add_vuspsi   :   1196.08s CPU   1230.79s WALL (    3975 calls)

     General routines
     calbec       :   2042.64s CPU   2060.09s WALL (    4273 calls)
     fft          :    198.45s CPU    200.15s WALL (   16367 calls)
     ffts         :      5.76s CPU      5.86s WALL (     446 calls)
     fftw         :  11622.61s CPU  11722.88s WALL ( 1932850 calls)
     interpolate  :      6.67s CPU      6.76s WALL (     225 calls)
 
     Parallel routines
     fft_scatt_xy :    204.15s CPU    206.29s WALL ( 1949663 calls)
     fft_scatt_yz :  10508.80s CPU  10593.07s WALL ( 1949663 calls)
     fft_scatt_tg :     13.56s CPU     13.94s WALL ( 1932850 calls)

     PAW routines
     PAW_pot      :     67.84s CPU     68.72s WALL (     237 calls)
 
     PWSCF        :   1d13h50m CPU   1d14h21m WALL

 
   This run was terminated on:  22:43:59  27Feb2024            

=------------------------------------------------------------------------------=
   JOB DONE.
=------------------------------------------------------------------------------=
