
     Program PWSCF v.7.1 starts on 21Feb2024 at  8:38:36 

     This program is part of the open-source Quantum ESPRESSO suite
     for quantum simulation of materials; please cite
         "P. Giannozzi et al., J. Phys.:Condens. Matter 21 395502 (2009);
         "P. Giannozzi et al., J. Phys.:Condens. Matter 29 465901 (2017);
         "P. Giannozzi et al., J. Chem. Phys. 152 154105 (2020);
          URL http://www.quantum-espresso.org", 
     in publications or presentations arising from this work. More details at
     http://www.quantum-espresso.org/quote

     Parallel version (MPI & OpenMP), running on     128 processor cores
     Number of MPI processes:               128
     Threads/MPI process:                     1

     MPI processes distributed on     1 nodes
     1918100 MiB available memory on the printing compute node when the environment starts
 
     Reading input from espresso.pwi

     Current dimensions of program PWSCF are:
     Max number of different atomic species (ntypx) = 10
     Max number of k-points (npk) =  40000
     Max angular momentum in pseudopotentials (lmaxx) =  4
     file Ga.pbe-dn-kjpaw_psl.1.0.0.UPF: wavefunction(s)  4S renormalized
     file N.pbe-n-kjpaw_psl.1.0.0.UPF: wavefunction(s)  2S renormalized

     **************************************************************************
     Initializing libbeef V0.1.2 with the BEEF-vdW functional.
     Citation: Wellendorff et al., PRB 85, 235149 (2012).
     **************************************************************************


     IMPORTANT: XC functional enforced from input :
     Exchange-correlation= BEEF-VDW
                           (   1   4  43  14   2   0   0)
     Any further DFT definition will be discarded
     Please, verify this is what you really want

     Found identity + (  0.5000  0.0000  0.0000) symmetry
     This is a supercell, fractional translations are disabled
 
     K-points division:     npool     =       8
     R & G space division:  proc/nbgrp/npool/nimage =      16
     Subspace diagonalization in iterative solution of the eigenvalue problem:
     a serial algorithm will be used

 
     Parallelization info
     --------------------
     sticks:   dense  smooth     PW     G-vecs:    dense   smooth      PW
     Min         103      82     24                 3887     2784     433
     Max         104      83     25                 3890     2787     438
     Sum        1661    1323    385                62221    44561    6955
 
     Using Slab Decomposition
 


     bravais-lattice index     =            8
     lattice parameter (alat)  =      10.9054  a.u.
     unit-cell volume          =     563.5719 (a.u.)^3
     number of atoms/cell      =            8
     number of atomic types    =            2
     number of electrons       =        72.00
     number of Kohn-Sham states=           43
     kinetic-energy cutoff     =      70.0000  Ry
     charge density cutoff     =     350.0000  Ry
     scf convergence threshold =      1.0E-07
     mixing beta               =       0.7000
     number of iterations used =            8  plain     mixing
     energy convergence thresh.=      1.0E-04
     force convergence thresh. =      1.0E-03
     press convergence thresh. =      5.0E-01
     Exchange-correlation= BEEF-VDW
                           (   1   4  43  14   2   0   0)
     nstep                     =           50


     celldm(1)=  10.905428  celldm(2)=   0.499904  celldm(3)=   0.869230
     celldm(4)=   0.000000  celldm(5)=   0.000000  celldm(6)=   0.000000

     crystal axes: (cart. coord. in units of alat)
               a(1) = (   1.000000   0.000000   0.000000 )  
               a(2) = (   0.000000   0.499904   0.000000 )  
               a(3) = (   0.000000   0.000000   0.869230 )  

     reciprocal axes: (cart. coord. in units 2 pi/alat)
               b(1) = (  1.000000  0.000000  0.000000 )  
               b(2) = (  0.000000  2.000385  0.000000 )  
               b(3) = (  0.000000  0.000000  1.150443 )  


     PseudoPot. # 1 for Ga read from file:
     /trace/group/acmegroup/atimmins/packages/espresso/pseudo/psl_1.0.0/pslibrary.1.0.0/pbe/PSEUDOPOTENTIALS/Ga.pbe-dn-kjpaw_psl.1.0.0.UPF
     MD5 check sum: cd2a01e492f15b435d17032472d8505c
     Pseudo is Projector augmented-wave + core cor, Zval = 13.0
     Generated using 'atomic' code by A. Dal Corso  v.7.1
     Shape of augmentation charge: PSQ
     Using radial grid of 1205 points,  6 beta functions with: 
                l(1) =   0
                l(2) =   0
                l(3) =   1
                l(4) =   1
                l(5) =   2
                l(6) =   2
     Q(r) pseudized with 0 coefficients 


     PseudoPot. # 2 for N  read from file:
     /trace/group/acmegroup/atimmins/packages/espresso/pseudo/psl_1.0.0/pslibrary.1.0.0/pbe/PSEUDOPOTENTIALS/N.pbe-n-kjpaw_psl.1.0.0.UPF
     MD5 check sum: f77f775694dac7e2c3fe1c82443d1a16
     Pseudo is Projector augmented-wave + core cor, Zval =  5.0
     Generated using 'atomic' code by A. Dal Corso  v.7.1
     Shape of augmentation charge: PSQ
     Using radial grid of 1085 points,  4 beta functions with: 
                l(1) =   0
                l(2) =   0
                l(3) =   1
                l(4) =   1
     Q(r) pseudized with 0 coefficients 


     atomic species   valence    mass     pseudopotential
        Ga            13.00    69.72300     Ga( 1.00)
        N              5.00    14.00700     N ( 1.00)

      2 Sym. Ops. (no inversion) found


                                    s                        frac. trans.

      isym =  1     identity                                     

 cryst.   s( 1) = (     1          0          0      )
                  (     0          1          0      )
                  (     0          0          1      )

 cart.    s( 1) = (  1.0000000  0.0000000  0.0000000 )
                  (  0.0000000  1.0000000  0.0000000 )
                  (  0.0000000  0.0000000  1.0000000 )


      isym =  2     inv. 180 deg rotation - cart. axis [1,0,0]   

 cryst.   s( 2) = (    -1          0          0      )
                  (     0          1          0      )
                  (     0          0          1      )

 cart.    s( 2) = ( -1.0000000  0.0000000  0.0000000 )
                  (  0.0000000  1.0000000  0.0000000 )
                  (  0.0000000  0.0000000  1.0000000 )


     point group C_s (m)    
     there are  2 classes
     the character table:

       E     s    
A'     1.00  1.00
A''    1.00 -1.00

     the symmetry operations in each class and the name of the first element:

     E        1
          identity                                               
     s        2
          inv. 180 deg rotation - cart. axis [1,0,0]             

   Cartesian axes

     site n.     atom                  positions (alat units)
         1           Ga  tau(   1) = (   0.0000000   0.3751868   0.8652455  )
         2           Ga  tau(   2) = (   0.5000000   0.3751868   0.8652455  )
         3           Ga  tau(   3) = (   0.2500000   0.1247170   0.4306305  )
         4           Ga  tau(   4) = (   0.7500000   0.1247170   0.4306305  )
         5           N   tau(   5) = (   0.0000000   0.3747714   0.3386381  )
         6           N   tau(   6) = (   0.5000000   0.3747714   0.3386381  )
         7           N   tau(   7) = (   0.2500000   0.1251324   0.7732531  )
         8           N   tau(   8) = (   0.7500000   0.1251324   0.7732531  )

   Crystallographic axes

     site n.     atom                  positions (cryst. coord.)
         1           Ga  tau(   1) = (  0.0000000  0.7505180  0.9954160  )
         2           Ga  tau(   2) = (  0.5000000  0.7505180  0.9954160  )
         3           Ga  tau(   3) = (  0.2500000  0.2494820  0.4954160  )
         4           Ga  tau(   4) = (  0.7500000  0.2494820  0.4954160  )
         5           N   tau(   5) = (  0.0000000  0.7496870  0.3895840  )
         6           N   tau(   6) = (  0.5000000  0.7496870  0.3895840  )
         7           N   tau(   7) = (  0.2500000  0.2503130  0.8895840  )
         8           N   tau(   8) = (  0.7500000  0.2503130  0.8895840  )

     number of k points=    20  Gaussian smearing, width (Ry)=  0.0100
                       cart. coord. in units 2pi/alat
        k(    1) = (   0.0000000   0.0000000   0.0000000), wk =   0.0370370
        k(    2) = (   0.0000000   0.0000000   0.3834812), wk =   0.0740741
        k(    3) = (   0.0000000   0.3333975   0.0000000), wk =   0.0740741
        k(    4) = (   0.0000000   0.3333975   0.3834812), wk =   0.0740741
        k(    5) = (   0.0000000   0.6667949   0.0000000), wk =   0.0740741
        k(    6) = (   0.0000000   0.6667949   0.3834812), wk =   0.0740741
        k(    7) = (   0.0000000  -1.0001924   0.0000000), wk =   0.0370370
        k(    8) = (   0.0000000  -1.0001924   0.3834812), wk =   0.0740741
        k(    9) = (   0.3333333   0.0000000   0.0000000), wk =   0.0740741
        k(   10) = (   0.3333333   0.0000000   0.3834812), wk =   0.1481481
        k(   11) = (   0.3333333   0.3333975   0.0000000), wk =   0.1481481
        k(   12) = (   0.3333333   0.3333975   0.3834812), wk =   0.1481481
        k(   13) = (   0.3333333   0.6667949   0.0000000), wk =   0.1481481
        k(   14) = (   0.3333333   0.6667949   0.3834812), wk =   0.1481481
        k(   15) = (   0.3333333  -1.0001924   0.0000000), wk =   0.0740741
        k(   16) = (   0.3333333  -1.0001924   0.3834812), wk =   0.1481481
        k(   17) = (   0.0000000   0.3333975  -0.3834812), wk =   0.0740741
        k(   18) = (   0.0000000   0.6667949  -0.3834812), wk =   0.0740741
        k(   19) = (  -0.3333333   0.3333975  -0.3834812), wk =   0.1481481
        k(   20) = (  -0.3333333   0.6667949  -0.3834812), wk =   0.1481481

                       cryst. coord.
        k(    1) = (   0.0000000   0.0000000   0.0000000), wk =   0.0370370
        k(    2) = (   0.0000000   0.0000000   0.3333333), wk =   0.0740741
        k(    3) = (   0.0000000   0.1666667   0.0000000), wk =   0.0740741
        k(    4) = (   0.0000000   0.1666667   0.3333333), wk =   0.0740741
        k(    5) = (   0.0000000   0.3333333   0.0000000), wk =   0.0740741
        k(    6) = (   0.0000000   0.3333333   0.3333333), wk =   0.0740741
        k(    7) = (   0.0000000  -0.5000000   0.0000000), wk =   0.0370370
        k(    8) = (   0.0000000  -0.5000000   0.3333333), wk =   0.0740741
        k(    9) = (   0.3333333   0.0000000   0.0000000), wk =   0.0740741
        k(   10) = (   0.3333333   0.0000000   0.3333333), wk =   0.1481481
        k(   11) = (   0.3333333   0.1666667   0.0000000), wk =   0.1481481
        k(   12) = (   0.3333333   0.1666667   0.3333333), wk =   0.1481481
        k(   13) = (   0.3333333   0.3333333   0.0000000), wk =   0.1481481
        k(   14) = (   0.3333333   0.3333333   0.3333333), wk =   0.1481481
        k(   15) = (   0.3333333  -0.5000000   0.0000000), wk =   0.0740741
        k(   16) = (   0.3333333  -0.5000000   0.3333333), wk =   0.1481481
        k(   17) = (   0.0000000   0.1666667  -0.3333333), wk =   0.0740741
        k(   18) = (   0.0000000   0.3333333  -0.3333333), wk =   0.0740741
        k(   19) = (  -0.3333333   0.1666667  -0.3333333), wk =   0.1481481
        k(   20) = (  -0.3333333   0.3333333  -0.3333333), wk =   0.1481481

     Dense  grid:    62221 G-vectors     FFT dimensions: (  72,  36,  60)

     Smooth grid:    44561 G-vectors     FFT dimensions: (  60,  30,  54)

     Dynamical RAM for                 wfc:       0.23 MB

     Dynamical RAM for     wfc (w. buffer):       0.91 MB

     Dynamical RAM for           str. fact:       0.12 MB

     Dynamical RAM for           local pot:       0.00 MB

     Dynamical RAM for          nlocal pot:       0.55 MB

     Dynamical RAM for                qrad:       6.01 MB

     Dynamical RAM for          rho,v,vnew:       0.42 MB

     Dynamical RAM for               rhoin:       0.14 MB

     Dynamical RAM for            rho*nmix:       0.95 MB

     Dynamical RAM for           G-vectors:       0.24 MB

     Dynamical RAM for          h,s,v(r/c):       1.35 MB

     Dynamical RAM for          <psi|beta>:       0.07 MB

     Dynamical RAM for                 psi:       0.91 MB

     Dynamical RAM for                hpsi:       0.91 MB

     Dynamical RAM for                spsi:       0.91 MB

     Dynamical RAM for      wfcinit/wfcrot:       0.61 MB

     Dynamical RAM for           addusdens:       1.46 MB

     Dynamical RAM for          addusforce:       1.50 MB

     Dynamical RAM for         addusstress:       1.52 MB

     Estimated static dynamical RAM per process >       8.96 MB

     Estimated max dynamical RAM per process >      14.07 MB

     Estimated total dynamical RAM >       1.66 GB

     Check: negative core charge=   -0.000003

     Initial potential from superposition of free atoms

     starting charge      71.9882, renormalised to      72.0000


     %%%%%%%%%%%%%%%%%%%%%%%%%%%%%%%%%%%%%%%%%%%%%%%%%%%%%%%%%%%%%%%%%%%%%%%%
     %                                                                      %
     % You are using vdW-DF, which was implemented by the Thonhauser group. %
     % Please cite the following two papers that made this development      %
     % possible and the two reviews that describe the various versions:     %
     %                                                                      %
     %   T. Thonhauser et al., PRL 115, 136402 (2015).                      %
     %   T. Thonhauser et al., PRB 76, 125112 (2007).                       %
     %   K. Berland et al., Rep. Prog. Phys. 78, 066501 (2015).             %
     %   D.C. Langreth et al., J. Phys.: Condens. Matter 21, 084203 (2009). %
     %                                                                      %
     % If you are calculating stress with vdW-DF, please also cite:         %
     %                                                                      %
     %   R. Sabatini et al., J. Phys.: Condens. Matter 24, 424209 (2012).   %
     %                                                                      %
     %%%%%%%%%%%%%%%%%%%%%%%%%%%%%%%%%%%%%%%%%%%%%%%%%%%%%%%%%%%%%%%%%%%%%%%%

     %%%%%%%%%%%%%%%%%%%%%%%%%%%%%%%%%%%%%%%%%%%%%%%%%%%%%%%%%%%%%%%%%%%%%%%%
     %                                                                      %
     %  vdW-DF NEWS:                                                        %
     %                                                                      %
     %  * vdW-DF3 is now available. DOI: 10.1021/acs.jctc.0c00471           %
     %    use with input_dft = 'vdW-DF3-opt1' or 'vdW-DF3-opt2'             %
     %                                                                      %
     %  * Unscreened and range-separated vdW-DF hybrid functionals          %
     %    DOI: 10.1063/1.4986522 and 10.1088/1361-648X/ac2ad2               %
     %    use with input_dft = 'vdW-DF-cx0' (etc) and 'vdW-DF-ahcx'         %
     %                                                                      %
     %%%%%%%%%%%%%%%%%%%%%%%%%%%%%%%%%%%%%%%%%%%%%%%%%%%%%%%%%%%%%%%%%%%%%%%%


     Carrying out vdW-DF run using the following parameters:
     Nqs    =  20  Npoints =  1024  r_max =  100.000
     q_mesh =  0.00001000  0.04494208  0.09755937  0.15916263
               0.23128650  0.31572767  0.41458969  0.53033537
               0.66584808  0.82450364  1.01025438  1.22772762
               1.48234092  1.78043706  2.12944203  2.53805004
               3.01644009  3.57652955  4.23227104  5.00000000


     -----------------------------------------------
     Non-local corr. energy    =       2.02971419 Ry
     -----------------------------------------------

     Starting wfcs are   52 randomized atomic wfcs
     Checking if some PAW data can be deallocated... 
       PAW data deallocated on   64 nodes for type:  1
       PAW data deallocated on   64 nodes for type:  2

     total cpu time spent up to now is        1.2 secs

     Self-consistent Calculation

     iteration #  1     ecut=    70.00 Ry     beta= 0.70
     Davidson diagonalization with overlap

---- Real-time Memory Report at c_bands before calling an iterative solver
           142 MiB given to the printing process from OS
             0 MiB allocation reported by mallinfo(arena+hblkhd)
       1913728 MiB available memory on the node where the printing process lives
------------------
     ethr =  1.00E-02,  avg # of iterations =  3.4


     -----------------------------------------------
     Non-local corr. energy    =       2.11580335 Ry
     -----------------------------------------------


     total cpu time spent up to now is        1.5 secs

     total energy              =   -1247.38035526 Ry
     estimated scf accuracy    <       2.48622647 Ry

     iteration #  2     ecut=    70.00 Ry     beta= 0.70
     Davidson diagonalization with overlap

---- Real-time Memory Report at c_bands before calling an iterative solver
           152 MiB given to the printing process from OS
             0 MiB allocation reported by mallinfo(arena+hblkhd)
       1913445 MiB available memory on the node where the printing process lives
------------------
     ethr =  3.45E-03,  avg # of iterations =  6.5


     -----------------------------------------------
     Non-local corr. energy    =       2.10193695 Ry
     -----------------------------------------------


     total cpu time spent up to now is        2.0 secs

     total energy              =   -1248.27022747 Ry
     estimated scf accuracy    <       3.33603584 Ry

     iteration #  3     ecut=    70.00 Ry     beta= 0.70
     Davidson diagonalization with overlap

---- Real-time Memory Report at c_bands before calling an iterative solver
           154 MiB given to the printing process from OS
             0 MiB allocation reported by mallinfo(arena+hblkhd)
       1913416 MiB available memory on the node where the printing process lives
------------------
     ethr =  3.45E-03,  avg # of iterations =  2.6


     -----------------------------------------------
     Non-local corr. energy    =       2.09479603 Ry
     -----------------------------------------------


     total cpu time spent up to now is        2.3 secs

     total energy              =   -1248.86531958 Ry
     estimated scf accuracy    <       0.06936226 Ry

     iteration #  4     ecut=    70.00 Ry     beta= 0.70
     Davidson diagonalization with overlap

---- Real-time Memory Report at c_bands before calling an iterative solver
           154 MiB given to the printing process from OS
             0 MiB allocation reported by mallinfo(arena+hblkhd)
       1913085 MiB available memory on the node where the printing process lives
------------------
     ethr =  9.63E-05,  avg # of iterations =  5.0


     -----------------------------------------------
     Non-local corr. energy    =       2.10038950 Ry
     -----------------------------------------------


     total cpu time spent up to now is        2.8 secs

     total energy              =   -1248.89323734 Ry
     estimated scf accuracy    <       0.03418439 Ry

     iteration #  5     ecut=    70.00 Ry     beta= 0.70
     Davidson diagonalization with overlap

---- Real-time Memory Report at c_bands before calling an iterative solver
           155 MiB given to the printing process from OS
             0 MiB allocation reported by mallinfo(arena+hblkhd)
       1913044 MiB available memory on the node where the printing process lives
------------------
     ethr =  4.75E-05,  avg # of iterations =  3.8


     -----------------------------------------------
     Non-local corr. energy    =       2.09982680 Ry
     -----------------------------------------------


     total cpu time spent up to now is        3.2 secs

     total energy              =   -1248.90156292 Ry
     estimated scf accuracy    <       0.03244140 Ry

     iteration #  6     ecut=    70.00 Ry     beta= 0.70
     Davidson diagonalization with overlap

---- Real-time Memory Report at c_bands before calling an iterative solver
           155 MiB given to the printing process from OS
             0 MiB allocation reported by mallinfo(arena+hblkhd)
       1913089 MiB available memory on the node where the printing process lives
------------------
     ethr =  4.51E-05,  avg # of iterations =  4.8


     -----------------------------------------------
     Non-local corr. energy    =       2.09371736 Ry
     -----------------------------------------------


     total cpu time spent up to now is        3.6 secs

     total energy              =   -1248.90603412 Ry
     estimated scf accuracy    <       0.07105799 Ry

     iteration #  7     ecut=    70.00 Ry     beta= 0.70
     Davidson diagonalization with overlap

---- Real-time Memory Report at c_bands before calling an iterative solver
           156 MiB given to the printing process from OS
             0 MiB allocation reported by mallinfo(arena+hblkhd)
       1913093 MiB available memory on the node where the printing process lives
------------------
     ethr =  4.51E-05,  avg # of iterations =  2.7


     -----------------------------------------------
     Non-local corr. energy    =       2.07749362 Ry
     -----------------------------------------------


     total cpu time spent up to now is        3.9 secs

     total energy              =   -1248.91602697 Ry
     estimated scf accuracy    <       0.08107426 Ry

     iteration #  8     ecut=    70.00 Ry     beta= 0.70
     Davidson diagonalization with overlap

---- Real-time Memory Report at c_bands before calling an iterative solver
           156 MiB given to the printing process from OS
             0 MiB allocation reported by mallinfo(arena+hblkhd)
       1913062 MiB available memory on the node where the printing process lives
------------------
     ethr =  4.51E-05,  avg # of iterations =  1.0


     -----------------------------------------------
     Non-local corr. energy    =       2.06387237 Ry
     -----------------------------------------------


     total cpu time spent up to now is        4.2 secs

     total energy              =   -1248.92646373 Ry
     estimated scf accuracy    <       0.14145469 Ry

     iteration #  9     ecut=    70.00 Ry     beta= 0.70
     Davidson diagonalization with overlap

---- Real-time Memory Report at c_bands before calling an iterative solver
           156 MiB given to the printing process from OS
             0 MiB allocation reported by mallinfo(arena+hblkhd)
       1913047 MiB available memory on the node where the printing process lives
------------------
     ethr =  4.51E-05,  avg # of iterations =  1.5


     -----------------------------------------------
     Non-local corr. energy    =       2.06807201 Ry
     -----------------------------------------------


     total cpu time spent up to now is        4.5 secs

     total energy              =   -1248.92424979 Ry
     estimated scf accuracy    <       0.21940355 Ry

     iteration # 10     ecut=    70.00 Ry     beta= 0.70
     Davidson diagonalization with overlap

---- Real-time Memory Report at c_bands before calling an iterative solver
           156 MiB given to the printing process from OS
             0 MiB allocation reported by mallinfo(arena+hblkhd)
       1913035 MiB available memory on the node where the printing process lives
------------------
     ethr =  4.51E-05,  avg # of iterations =  1.0


     -----------------------------------------------
     Non-local corr. energy    =       2.06593620 Ry
     -----------------------------------------------


     total cpu time spent up to now is        4.7 secs

     total energy              =   -1248.92542189 Ry
     estimated scf accuracy    <       0.20260675 Ry

     iteration # 11     ecut=    70.00 Ry     beta= 0.70
     Davidson diagonalization with overlap

---- Real-time Memory Report at c_bands before calling an iterative solver
           156 MiB given to the printing process from OS
             0 MiB allocation reported by mallinfo(arena+hblkhd)
       1913025 MiB available memory on the node where the printing process lives
------------------
     ethr =  4.51E-05,  avg # of iterations =  1.0


     -----------------------------------------------
     Non-local corr. energy    =       2.04140982 Ry
     -----------------------------------------------


     total cpu time spent up to now is        5.0 secs

     total energy              =   -1248.95337172 Ry
     estimated scf accuracy    <       0.21942332 Ry

     iteration # 12     ecut=    70.00 Ry     beta= 0.70
     Davidson diagonalization with overlap

---- Real-time Memory Report at c_bands before calling an iterative solver
           158 MiB given to the printing process from OS
             0 MiB allocation reported by mallinfo(arena+hblkhd)
       1912935 MiB available memory on the node where the printing process lives
------------------
     ethr =  4.51E-05,  avg # of iterations =  3.0


     -----------------------------------------------
     Non-local corr. energy    =       2.15239734 Ry
     -----------------------------------------------


     total cpu time spent up to now is        5.3 secs

     total energy              =   -1248.86413428 Ry
     estimated scf accuracy    <       0.38954417 Ry

     iteration # 13     ecut=    70.00 Ry     beta= 0.70
     Davidson diagonalization with overlap

---- Real-time Memory Report at c_bands before calling an iterative solver
           159 MiB given to the printing process from OS
             0 MiB allocation reported by mallinfo(arena+hblkhd)
       1912877 MiB available memory on the node where the printing process lives
------------------
     ethr =  4.51E-05,  avg # of iterations =  4.0


     -----------------------------------------------
     Non-local corr. energy    =       2.14308889 Ry
     -----------------------------------------------


     total cpu time spent up to now is        5.7 secs

     total energy              =   -1248.89419257 Ry
     estimated scf accuracy    <       0.01564878 Ry

     iteration # 14     ecut=    70.00 Ry     beta= 0.70
     Davidson diagonalization with overlap

---- Real-time Memory Report at c_bands before calling an iterative solver
           159 MiB given to the printing process from OS
             0 MiB allocation reported by mallinfo(arena+hblkhd)
       1912849 MiB available memory on the node where the printing process lives
------------------
     ethr =  2.17E-05,  avg # of iterations =  1.0


     -----------------------------------------------
     Non-local corr. energy    =       2.13482803 Ry
     -----------------------------------------------


     total cpu time spent up to now is        5.9 secs

     total energy              =   -1248.89295169 Ry
     estimated scf accuracy    <       0.00586799 Ry

     iteration # 15     ecut=    70.00 Ry     beta= 0.70
     Davidson diagonalization with overlap

---- Real-time Memory Report at c_bands before calling an iterative solver
           160 MiB given to the printing process from OS
             0 MiB allocation reported by mallinfo(arena+hblkhd)
       1912823 MiB available memory on the node where the printing process lives
------------------
     ethr =  8.15E-06,  avg # of iterations =  3.0


     -----------------------------------------------
     Non-local corr. energy    =       2.13526959 Ry
     -----------------------------------------------


     total cpu time spent up to now is        6.2 secs

     total energy              =   -1248.89372670 Ry
     estimated scf accuracy    <       0.00006824 Ry

     iteration # 16     ecut=    70.00 Ry     beta= 0.70
     Davidson diagonalization with overlap

---- Real-time Memory Report at c_bands before calling an iterative solver
           160 MiB given to the printing process from OS
             0 MiB allocation reported by mallinfo(arena+hblkhd)
       1912796 MiB available memory on the node where the printing process lives
------------------
     ethr =  9.48E-08,  avg # of iterations =  6.5


     -----------------------------------------------
     Non-local corr. energy    =       2.13583155 Ry
     -----------------------------------------------


     total cpu time spent up to now is        6.8 secs

     total energy              =   -1248.89412605 Ry
     estimated scf accuracy    <       0.00009747 Ry

     iteration # 17     ecut=    70.00 Ry     beta= 0.70
     Davidson diagonalization with overlap

---- Real-time Memory Report at c_bands before calling an iterative solver
           160 MiB given to the printing process from OS
             0 MiB allocation reported by mallinfo(arena+hblkhd)
       1912751 MiB available memory on the node where the printing process lives
------------------
     ethr =  9.48E-08,  avg # of iterations =  1.4


     -----------------------------------------------
     Non-local corr. energy    =       2.13634763 Ry
     -----------------------------------------------


     total cpu time spent up to now is        7.1 secs

     total energy              =   -1248.89411748 Ry
     estimated scf accuracy    <       0.00005665 Ry

     iteration # 18     ecut=    70.00 Ry     beta= 0.70
     Davidson diagonalization with overlap

---- Real-time Memory Report at c_bands before calling an iterative solver
           161 MiB given to the printing process from OS
             0 MiB allocation reported by mallinfo(arena+hblkhd)
       1912749 MiB available memory on the node where the printing process lives
------------------
     ethr =  7.87E-08,  avg # of iterations =  1.5


     -----------------------------------------------
     Non-local corr. energy    =       2.13831020 Ry
     -----------------------------------------------


     total cpu time spent up to now is        7.3 secs

     total energy              =   -1248.89411903 Ry
     estimated scf accuracy    <       0.00003301 Ry

     iteration # 19     ecut=    70.00 Ry     beta= 0.70
     Davidson diagonalization with overlap

---- Real-time Memory Report at c_bands before calling an iterative solver
           161 MiB given to the printing process from OS
             0 MiB allocation reported by mallinfo(arena+hblkhd)
       1912751 MiB available memory on the node where the printing process lives
------------------
     ethr =  4.58E-08,  avg # of iterations =  4.5


     -----------------------------------------------
     Non-local corr. energy    =       2.13601768 Ry
     -----------------------------------------------


     total cpu time spent up to now is        7.8 secs

     total energy              =   -1248.89408445 Ry
     estimated scf accuracy    <       0.00033577 Ry

     iteration # 20     ecut=    70.00 Ry     beta= 0.70
     Davidson diagonalization with overlap

---- Real-time Memory Report at c_bands before calling an iterative solver
           161 MiB given to the printing process from OS
             0 MiB allocation reported by mallinfo(arena+hblkhd)
       1912687 MiB available memory on the node where the printing process lives
------------------
     ethr =  4.58E-08,  avg # of iterations =  4.3


     -----------------------------------------------
     Non-local corr. energy    =       2.13561929 Ry
     -----------------------------------------------


     total cpu time spent up to now is        8.2 secs

     total energy              =   -1248.89411887 Ry
     estimated scf accuracy    <       0.00000415 Ry

     iteration # 21     ecut=    70.00 Ry     beta= 0.70
     Davidson diagonalization with overlap

---- Real-time Memory Report at c_bands before calling an iterative solver
           161 MiB given to the printing process from OS
             0 MiB allocation reported by mallinfo(arena+hblkhd)
       1912683 MiB available memory on the node where the printing process lives
------------------
     ethr =  5.76E-09,  avg # of iterations =  6.5


     -----------------------------------------------
     Non-local corr. energy    =       2.13640347 Ry
     -----------------------------------------------


     total cpu time spent up to now is        8.8 secs

     total energy              =   -1248.89411496 Ry
     estimated scf accuracy    <       0.00001624 Ry

     iteration # 22     ecut=    70.00 Ry     beta= 0.70
     Davidson diagonalization with overlap

---- Real-time Memory Report at c_bands before calling an iterative solver
           161 MiB given to the printing process from OS
             0 MiB allocation reported by mallinfo(arena+hblkhd)
       1912654 MiB available memory on the node where the printing process lives
------------------
     ethr =  5.76E-09,  avg # of iterations =  4.9


     -----------------------------------------------
     Non-local corr. energy    =       2.13630528 Ry
     -----------------------------------------------


     total cpu time spent up to now is        9.2 secs

     total energy              =   -1248.89411873 Ry
     estimated scf accuracy    <       0.00000761 Ry

     iteration # 23     ecut=    70.00 Ry     beta= 0.70
     Davidson diagonalization with overlap

---- Real-time Memory Report at c_bands before calling an iterative solver
           161 MiB given to the printing process from OS
             0 MiB allocation reported by mallinfo(arena+hblkhd)
       1912665 MiB available memory on the node where the printing process lives
------------------
     ethr =  5.76E-09,  avg # of iterations =  1.9


     -----------------------------------------------
     Non-local corr. energy    =       2.13590228 Ry
     -----------------------------------------------


     total cpu time spent up to now is        9.6 secs

     total energy              =   -1248.89411699 Ry
     estimated scf accuracy    <       0.00000488 Ry

     iteration # 24     ecut=    70.00 Ry     beta= 0.70
     Davidson diagonalization with overlap

---- Real-time Memory Report at c_bands before calling an iterative solver
           161 MiB given to the printing process from OS
             0 MiB allocation reported by mallinfo(arena+hblkhd)
       1912694 MiB available memory on the node where the printing process lives
------------------
     ethr =  5.76E-09,  avg # of iterations =  4.2


     -----------------------------------------------
     Non-local corr. energy    =       2.13600934 Ry
     -----------------------------------------------


     total cpu time spent up to now is        9.9 secs

     total energy              =   -1248.89411793 Ry
     estimated scf accuracy    <       0.00000115 Ry

     iteration # 25     ecut=    70.00 Ry     beta= 0.70
     Davidson diagonalization with overlap

---- Real-time Memory Report at c_bands before calling an iterative solver
           162 MiB given to the printing process from OS
             0 MiB allocation reported by mallinfo(arena+hblkhd)
       1912657 MiB available memory on the node where the printing process lives
------------------
     ethr =  1.59E-09,  avg # of iterations =  4.4


     -----------------------------------------------
     Non-local corr. energy    =       2.13606530 Ry
     -----------------------------------------------


     total cpu time spent up to now is       10.4 secs

     total energy              =   -1248.89411796 Ry
     estimated scf accuracy    <       0.00000042 Ry

     iteration # 26     ecut=    70.00 Ry     beta= 0.70
     Davidson diagonalization with overlap

---- Real-time Memory Report at c_bands before calling an iterative solver
           163 MiB given to the printing process from OS
             0 MiB allocation reported by mallinfo(arena+hblkhd)
       1912648 MiB available memory on the node where the printing process lives
------------------
     ethr =  5.85E-10,  avg # of iterations =  4.2


     -----------------------------------------------
     Non-local corr. energy    =       2.13606388 Ry
     -----------------------------------------------


     total cpu time spent up to now is       10.8 secs

     End of self-consistent calculation

          k = 0.0000 0.0000 0.0000 (  5583 PWs)   bands (ev):

    -5.3070  -4.6556  -3.9915  -3.9915  -3.4235  -3.3969  -3.3587  -3.3404
    -3.3404  -3.2805  -3.2804  -3.2353  -3.2352  -3.1922  -3.1922  -3.1287
    -3.1287  -3.0923  -3.0765  -3.0765  -3.0626  -1.9708  -1.9708  -1.3362
     3.9005   4.5071   4.5071   7.6371   7.6371   9.4348   9.4383  10.9022
    10.9048  11.0243  11.5401  11.5401  12.6025  13.5868  18.1613  18.1613
    18.7076  18.7076  20.1757

     occupation numbers 
     1.0000   1.0000   1.0000   1.0000   1.0000   1.0000   1.0000   1.0000
     1.0000   1.0000   1.0000   1.0000   1.0000   1.0000   1.0000   1.0000
     1.0000   1.0000   1.0000   1.0000   1.0000   1.0000   1.0000   1.0000
     1.0000   1.0000   1.0000   1.0000   1.0000   1.0000   1.0000   1.0000
     1.0000   1.0000   0.9764   0.9764   0.0000   0.0000   0.0000   0.0000
     0.0000   0.0000   0.0000

          k = 0.0000 0.0000 0.3835 (  5587 PWs)   bands (ev):

    -5.0175  -4.6926  -3.9548  -3.9548  -3.4074  -3.3825  -3.3825  -3.3749
    -3.2964  -3.2964  -3.2487  -3.1973  -3.1973  -3.1180  -3.1180  -3.1127
    -3.1127  -3.1076  -3.1076  -3.0849  -3.0701  -2.3408  -2.0070  -2.0070
     3.7700   3.7701   5.6740   8.7121   9.0739   9.0739   9.7736   9.7770
    10.5040  10.5069  11.5618  11.5619  14.1502  14.3633  16.0384  16.0384
    19.5197  19.5755  19.5755

     occupation numbers 
     1.0000   1.0000   1.0000   1.0000   1.0000   1.0000   1.0000   1.0000
     1.0000   1.0000   1.0000   1.0000   1.0000   1.0000   1.0000   1.0000
     1.0000   1.0000   1.0000   1.0000   1.0000   1.0000   1.0000   1.0000
     1.0000   1.0000   1.0000   1.0000   1.0000   1.0000   1.0000   1.0000
     1.0000   1.0000   0.9606   0.9606   0.0000   0.0000   0.0000   0.0000
     0.0000   0.0000   0.0000

          k = 0.0000 0.3334 0.0000 (  5605 PWs)   bands (ev):

    -4.9627  -4.5088  -4.1318  -4.1318  -3.3972  -3.3816  -3.3561  -3.3561
    -3.3040  -3.2806  -3.2806  -3.2313  -3.2266  -3.1503  -3.1503  -3.1330
    -3.1325  -3.1179  -3.1138  -3.1138  -3.0804  -1.5150  -1.5150  -1.2461
     4.2779   4.8290   4.8290   7.5574   7.7974   7.7974   8.7782   9.8123
    10.2155  10.2155  10.6915  11.1421  14.3134  15.1695  16.5638  16.5638
    18.8299  18.8299  20.2166

     occupation numbers 
     1.0000   1.0000   1.0000   1.0000   1.0000   1.0000   1.0000   1.0000
     1.0000   1.0000   1.0000   1.0000   1.0000   1.0000   1.0000   1.0000
     1.0000   1.0000   1.0000   1.0000   1.0000   1.0000   1.0000   1.0000
     1.0000   1.0000   1.0000   1.0000   1.0000   1.0000   1.0000   1.0000
     1.0000   1.0000   1.0000   1.0000   0.0000   0.0000   0.0000   0.0000
     0.0000   0.0000   0.0000

          k = 0.0000 0.3334 0.3835 (  5577 PWs)   bands (ev):

    -4.7193  -4.5087  -4.0785  -4.0783  -3.3707  -3.3621  -3.3620  -3.3607
    -3.3130  -3.3127  -3.2650  -3.2039  -3.1736  -3.1655  -3.1655  -3.1511
    -3.1162  -3.1073  -3.0887  -3.0788  -3.0787  -2.1853  -1.5142  -1.5139
     4.1559   4.1559   5.6389   7.6042   8.3097   8.9907   8.9916  10.0919
    10.1239  10.2234  10.2244  10.7870  15.2487  15.6035  16.3802  16.3805
    17.7169  17.7173  19.2860

     occupation numbers 
     1.0000   1.0000   1.0000   1.0000   1.0000   1.0000   1.0000   1.0000
     1.0000   1.0000   1.0000   1.0000   1.0000   1.0000   1.0000   1.0000
     1.0000   1.0000   1.0000   1.0000   1.0000   1.0000   1.0000   1.0000
     1.0000   1.0000   1.0000   1.0000   1.0000   1.0000   1.0000   1.0000
     1.0000   1.0000   1.0000   1.0000   0.0000   0.0000   0.0000   0.0000
     0.0000   0.0000   0.0000

          k = 0.0000 0.6668 0.0000 (  5592 PWs)   bands (ev):

    -4.3572  -4.3571  -4.2093  -4.1999  -3.4047  -3.4047  -3.3840  -3.3220
    -3.2502  -3.2292  -3.2235  -3.2084  -3.2084  -3.1992  -3.1616  -3.1398
    -3.1397  -3.0981  -3.0223  -3.0223  -2.9832  -1.2241  -0.5389  -0.5389
     4.6156   5.4436   5.4436   6.1000   6.1839   7.5708   7.5708   9.1013
     9.1013   9.4988  10.7279  11.5868  13.3438  13.3438  16.2401  17.2234
    18.0028  18.0028  19.2328

     occupation numbers 
     1.0000   1.0000   1.0000   1.0000   1.0000   1.0000   1.0000   1.0000
     1.0000   1.0000   1.0000   1.0000   1.0000   1.0000   1.0000   1.0000
     1.0000   1.0000   1.0000   1.0000   1.0000   1.0000   1.0000   1.0000
     1.0000   1.0000   1.0000   1.0000   1.0000   1.0000   1.0000   1.0000
     1.0000   1.0000   1.0000   0.9329   0.0000   0.0000   0.0000   0.0000
     0.0000   0.0000   0.0000

          k = 0.0000 0.6668 0.3835 (  5578 PWs)   bands (ev):

    -4.3011  -4.3010  -4.1470  -4.1313  -3.3895  -3.3653  -3.3651  -3.3576
    -3.2604  -3.2572  -3.2566  -3.2451  -3.1908  -3.1905  -3.1700  -3.1452
    -3.1292  -3.0994  -3.0169  -3.0168  -2.7792  -1.8649  -0.5365  -0.5363
     4.4190   5.2263   5.2266   5.2578   7.4567   7.4569   7.9816   9.3464
     9.3470   9.8958  10.9443  11.3751  14.0425  14.0435  15.6404  17.0695
    18.3583  18.4087  18.4117

     occupation numbers 
     1.0000   1.0000   1.0000   1.0000   1.0000   1.0000   1.0000   1.0000
     1.0000   1.0000   1.0000   1.0000   1.0000   1.0000   1.0000   1.0000
     1.0000   1.0000   1.0000   1.0000   1.0000   1.0000   1.0000   1.0000
     1.0000   1.0000   1.0000   1.0000   1.0000   1.0000   1.0000   1.0000
     1.0000   1.0000   1.0000   0.9999   0.0000   0.0000   0.0000   0.0000
     0.0000   0.0000   0.0000

          k = 0.0000-1.0002 0.0000 (  5594 PWs)   bands (ev):

    -4.4500  -4.4500  -3.9913  -3.9910  -3.4261  -3.4261  -3.3405  -3.3398
    -3.2808  -3.2807  -3.1923  -3.1922  -3.1885  -3.1884  -3.1351  -3.1351
    -3.1291  -3.1283  -2.9569  -2.9569  -1.9712  -1.9692   0.0741   0.0741
     4.5057   4.5115   5.2569   5.2569   7.6375   7.6385   7.8326   7.8326
     8.9900   8.9900  11.5383  11.5384  11.7711  11.7711  17.3840  17.3840
    18.1593  18.1615  18.7006

     occupation numbers 
     1.0000   1.0000   1.0000   1.0000   1.0000   1.0000   1.0000   1.0000
     1.0000   1.0000   1.0000   1.0000   1.0000   1.0000   1.0000   1.0000
     1.0000   1.0000   1.0000   1.0000   1.0000   1.0000   1.0000   1.0000
     1.0000   1.0000   1.0000   1.0000   1.0000   1.0000   1.0000   1.0000
     1.0000   1.0000   0.9773   0.9773   0.3382   0.3381   0.0000   0.0000
     0.0000   0.0000   0.0000

          k = 0.0000-1.0002 0.3835 (  5582 PWs)   bands (ev):

    -4.3963  -4.3963  -3.9545  -3.9544  -3.3823  -3.3822  -3.3600  -3.3600
    -3.2967  -3.2966  -3.2352  -3.2352  -3.2150  -3.2150  -3.1129  -3.1125
    -3.1077  -3.1075  -2.9569  -2.9569  -2.0069  -2.0059   0.0478   0.0478
     3.7707   3.7727   5.7899   5.7899   7.0420   7.0420   8.3919   8.3919
     9.0738   9.0753  11.5601  11.5602  13.2138  13.2139  16.0354  16.0403
    18.8145  18.8145  19.5743

     occupation numbers 
     1.0000   1.0000   1.0000   1.0000   1.0000   1.0000   1.0000   1.0000
     1.0000   1.0000   1.0000   1.0000   1.0000   1.0000   1.0000   1.0000
     1.0000   1.0000   1.0000   1.0000   1.0000   1.0000   1.0000   1.0000
     1.0000   1.0000   1.0000   1.0000   1.0000   1.0000   1.0000   1.0000
     1.0000   1.0000   0.9621   0.9620   0.0000   0.0000   0.0000   0.0000
     0.0000   0.0000   0.0000

          k = 0.3333 0.0000 0.0000 (  5605 PWs)   bands (ev):

    -4.9628  -4.5089  -4.2097  -4.2002  -3.3975  -3.3843  -3.3817  -3.3222
    -3.3039  -3.2500  -3.2314  -3.2291  -3.2265  -3.2233  -3.1991  -3.1616
    -3.1330  -3.1324  -3.1178  -3.0981  -3.0805  -2.9833  -1.2462  -1.2246
     4.2776   4.6137   6.0993   6.1821   7.5545   8.7760   9.4978   9.8155
    10.6911  10.7304  11.1446  11.5887  14.3138  15.1710  16.2413  17.2270
    19.2326  20.0649  20.2273

     occupation numbers 
     1.0000   1.0000   1.0000   1.0000   1.0000   1.0000   1.0000   1.0000
     1.0000   1.0000   1.0000   1.0000   1.0000   1.0000   1.0000   1.0000
     1.0000   1.0000   1.0000   1.0000   1.0000   1.0000   1.0000   1.0000
     1.0000   1.0000   1.0000   1.0000   1.0000   1.0000   1.0000   1.0000
     1.0000   1.0000   1.0000   0.9304   0.0000   0.0000   0.0000   0.0000
     0.0000   0.0000   0.0000

          k = 0.3333 0.0000 0.3835 (  5579 PWs)   bands (ev):

    -4.7194  -4.5088  -4.1472  -4.1317  -3.3897  -3.3708  -3.3609  -3.3578
    -3.2649  -3.2602  -3.2449  -3.2039  -3.1736  -3.1699  -3.1511  -3.1452
    -3.1292  -3.1162  -3.1073  -3.0994  -3.0887  -2.7794  -2.1854  -1.8653
     4.4171   5.2559   5.6382   7.6025   7.9811   8.3074   9.8953  10.0910
    10.1270  10.7896  10.9466  11.3771  15.2492  15.6049  15.6410  17.0718
    18.3581  19.2539  19.2847

     occupation numbers 
     1.0000   1.0000   1.0000   1.0000   1.0000   1.0000   1.0000   1.0000
     1.0000   1.0000   1.0000   1.0000   1.0000   1.0000   1.0000   1.0000
     1.0000   1.0000   1.0000   1.0000   1.0000   1.0000   1.0000   1.0000
     1.0000   1.0000   1.0000   1.0000   1.0000   1.0000   1.0000   1.0000
     1.0000   1.0000   1.0000   0.9999   0.0000   0.0000   0.0000   0.0000
     0.0000   0.0000   0.0000

          k = 0.3333 0.3334 0.0000 (  5569 PWs)   bands (ev):

    -4.6930  -4.4118  -4.2410  -4.2300  -3.3458  -3.3421  -3.3319  -3.3006
    -3.2924  -3.2911  -3.2661  -3.2546  -3.1840  -3.1826  -3.1777  -3.1745
    -3.1706  -3.1541  -3.1093  -3.1054  -3.0902  -2.6296  -1.1043  -0.9291
     4.6301   4.9808   6.4095   6.4415   7.8572   8.1675   8.4357   9.1154
     9.4265  10.0573  10.2966  10.4737  15.4303  16.3855  16.4838  17.1908
    19.1416  19.5886  20.3752

     occupation numbers 
     1.0000   1.0000   1.0000   1.0000   1.0000   1.0000   1.0000   1.0000
     1.0000   1.0000   1.0000   1.0000   1.0000   1.0000   1.0000   1.0000
     1.0000   1.0000   1.0000   1.0000   1.0000   1.0000   1.0000   1.0000
     1.0000   1.0000   1.0000   1.0000   1.0000   1.0000   1.0000   1.0000
     1.0000   1.0000   1.0000   1.0000   0.0000   0.0000   0.0000   0.0000
     0.0000   0.0000   0.0000

          k = 0.3333 0.3334 0.3835 (  5561 PWs)   bands (ev):

    -4.5031  -4.3865  -4.1747  -4.1649  -3.3403  -3.3227  -3.3056  -3.3035
    -3.3032  -3.2943  -3.2860  -3.2186  -3.2091  -3.1996  -3.1900  -3.1769
    -3.1743  -3.1350  -3.1325  -3.1238  -2.9093  -2.3476  -1.9760  -1.5095
     4.7986   5.5595   5.7033   7.3340   7.9820   8.5811   8.7471   9.4731
     9.5144   9.5995  10.2684  10.3921  16.1128  16.5300  16.8240  17.1540
    18.1436  18.1968  19.0181

     occupation numbers 
     1.0000   1.0000   1.0000   1.0000   1.0000   1.0000   1.0000   1.0000
     1.0000   1.0000   1.0000   1.0000   1.0000   1.0000   1.0000   1.0000
     1.0000   1.0000   1.0000   1.0000   1.0000   1.0000   1.0000   1.0000
     1.0000   1.0000   1.0000   1.0000   1.0000   1.0000   1.0000   1.0000
     1.0000   1.0000   1.0000   1.0000   0.0000   0.0000   0.0000   0.0000
     0.0000   0.0000   0.0000

          k = 0.3333 0.6668 0.0000 (  5571 PWs)   bands (ev):

    -4.3200  -4.3089  -4.2408  -4.2299  -3.3793  -3.3717  -3.3421  -3.2925
    -3.2910  -3.2659  -3.2294  -3.2117  -3.1841  -3.1826  -3.1630  -3.1541
    -3.1282  -3.1053  -3.0934  -3.0719  -2.6295  -1.6521  -0.9287  -0.3753
     4.9824   6.0348   6.1390   6.3357   6.4109   6.4419   8.1204   8.5360
     9.1135   9.4269   9.4461  10.2954  14.4485  14.9464  16.3846  17.1897
    18.2756  18.7585  19.1417

     occupation numbers 
     1.0000   1.0000   1.0000   1.0000   1.0000   1.0000   1.0000   1.0000
     1.0000   1.0000   1.0000   1.0000   1.0000   1.0000   1.0000   1.0000
     1.0000   1.0000   1.0000   1.0000   1.0000   1.0000   1.0000   1.0000
     1.0000   1.0000   1.0000   1.0000   1.0000   1.0000   1.0000   1.0000
     1.0000   1.0000   1.0000   1.0000   0.0000   0.0000   0.0000   0.0000
     0.0000   0.0000   0.0000

          k = 0.3333 0.6668 0.3835 (  5568 PWs)   bands (ev):

    -4.2545  -4.2543  -4.1746  -4.1647  -3.3560  -3.3403  -3.3242  -3.3130
    -3.3035  -3.3033  -3.2943  -3.2234  -3.2030  -3.1899  -3.1781  -3.1769
    -3.1325  -3.1238  -3.0808  -3.0741  -2.3475  -1.5093  -1.3975  -0.7673
     4.8003   5.5611   5.6572   5.9016   6.6386   7.8082   7.9818   9.3330
     9.4722   9.5983   9.7828  10.2681  14.9067  15.2768  16.5298  17.1534
    18.1424  18.1969  18.4324

     occupation numbers 
     1.0000   1.0000   1.0000   1.0000   1.0000   1.0000   1.0000   1.0000
     1.0000   1.0000   1.0000   1.0000   1.0000   1.0000   1.0000   1.0000
     1.0000   1.0000   1.0000   1.0000   1.0000   1.0000   1.0000   1.0000
     1.0000   1.0000   1.0000   1.0000   1.0000   1.0000   1.0000   1.0000
     1.0000   1.0000   1.0000   1.0000   0.0000   0.0000   0.0000   0.0000
     0.0000   0.0000   0.0000

          k = 0.3333-1.0002 0.0000 (  5594 PWs)   bands (ev):

    -4.3572  -4.3570  -4.1316  -4.1316  -3.4049  -3.4047  -3.3563  -3.3561
    -3.2806  -3.2803  -3.2084  -3.2083  -3.1507  -3.1498  -3.1400  -3.1395
    -3.1138  -3.1137  -3.0223  -3.0222  -1.5152  -1.5137  -0.5391  -0.5382
     4.8276   4.8331   5.4421   5.4460   7.5696   7.5717   7.7979   7.7979
     9.1006   9.1023  10.2141  10.2148  13.3413  13.3447  16.5616  16.5631
    17.9976  18.0074  18.8208

     occupation numbers 
     1.0000   1.0000   1.0000   1.0000   1.0000   1.0000   1.0000   1.0000
     1.0000   1.0000   1.0000   1.0000   1.0000   1.0000   1.0000   1.0000
     1.0000   1.0000   1.0000   1.0000   1.0000   1.0000   1.0000   1.0000
     1.0000   1.0000   1.0000   1.0000   1.0000   1.0000   1.0000   1.0000
     1.0000   1.0000   1.0000   1.0000   0.0000   0.0000   0.0000   0.0000
     0.0000   0.0000   0.0000

          k = 0.3333-1.0002 0.3835 (  5572 PWs)   bands (ev):

    -4.3010  -4.3009  -4.0782  -4.0782  -3.3653  -3.3652  -3.3622  -3.3621
    -3.3128  -3.3126  -3.2573  -3.2564  -3.1908  -3.1904  -3.1656  -3.1652
    -3.0787  -3.0787  -3.0169  -3.0168  -1.5139  -1.5131  -0.5364  -0.5360
     4.1564   4.1583   5.2264   5.2281   7.4557   7.4570   8.9899   8.9923
     9.3460   9.3470  10.2223  10.2237  14.0423  14.0427  16.3796  16.3796
    17.7114  17.7208  18.4049

     occupation numbers 
     1.0000   1.0000   1.0000   1.0000   1.0000   1.0000   1.0000   1.0000
     1.0000   1.0000   1.0000   1.0000   1.0000   1.0000   1.0000   1.0000
     1.0000   1.0000   1.0000   1.0000   1.0000   1.0000   1.0000   1.0000
     1.0000   1.0000   1.0000   1.0000   1.0000   1.0000   1.0000   1.0000
     1.0000   1.0000   1.0000   1.0000   0.0000   0.0000   0.0000   0.0000
     0.0000   0.0000   0.0000

          k = 0.0000 0.3334-0.3835 (  5577 PWs)   bands (ev):

    -4.7193  -4.5087  -4.0784  -4.0784  -3.3707  -3.3620  -3.3620  -3.3607
    -3.3130  -3.3127  -3.2650  -3.2039  -3.1736  -3.1655  -3.1655  -3.1511
    -3.1162  -3.1073  -3.0887  -3.0787  -3.0787  -2.1853  -1.5141  -1.5139
     4.1559   4.1559   5.6389   7.6042   8.3097   8.9907   8.9916  10.0919
    10.1239  10.2234  10.2243  10.7870  15.2487  15.6035  16.3802  16.3805
    17.7169  17.7173  19.2860

     occupation numbers 
     1.0000   1.0000   1.0000   1.0000   1.0000   1.0000   1.0000   1.0000
     1.0000   1.0000   1.0000   1.0000   1.0000   1.0000   1.0000   1.0000
     1.0000   1.0000   1.0000   1.0000   1.0000   1.0000   1.0000   1.0000
     1.0000   1.0000   1.0000   1.0000   1.0000   1.0000   1.0000   1.0000
     1.0000   1.0000   1.0000   1.0000   0.0000   0.0000   0.0000   0.0000
     0.0000   0.0000   0.0000

          k = 0.0000 0.6668-0.3835 (  5578 PWs)   bands (ev):

    -4.3010  -4.3010  -4.1470  -4.1313  -3.3895  -3.3652  -3.3651  -3.3576
    -3.2604  -3.2572  -3.2566  -3.2451  -3.1908  -3.1905  -3.1700  -3.1452
    -3.1292  -3.0994  -3.0169  -3.0169  -2.7792  -1.8649  -0.5365  -0.5363
     4.4190   5.2264   5.2266   5.2578   7.4567   7.4569   7.9816   9.3464
     9.3469   9.8958  10.9443  11.3751  14.0426  14.0435  15.6404  17.0695
    18.3583  18.4087  18.4117

     occupation numbers 
     1.0000   1.0000   1.0000   1.0000   1.0000   1.0000   1.0000   1.0000
     1.0000   1.0000   1.0000   1.0000   1.0000   1.0000   1.0000   1.0000
     1.0000   1.0000   1.0000   1.0000   1.0000   1.0000   1.0000   1.0000
     1.0000   1.0000   1.0000   1.0000   1.0000   1.0000   1.0000   1.0000
     1.0000   1.0000   1.0000   0.9999   0.0000   0.0000   0.0000   0.0000
     0.0000   0.0000   0.0000

          k =-0.3333 0.3334-0.3835 (  5561 PWs)   bands (ev):

    -4.5031  -4.3865  -4.1747  -4.1649  -3.3403  -3.3227  -3.3056  -3.3035
    -3.3032  -3.2943  -3.2860  -3.2186  -3.2091  -3.1996  -3.1900  -3.1769
    -3.1743  -3.1350  -3.1325  -3.1238  -2.9093  -2.3476  -1.9760  -1.5095
     4.7986   5.5595   5.7033   7.3340   7.9820   8.5811   8.7471   9.4731
     9.5144   9.5995  10.2684  10.3921  16.1128  16.5300  16.8240  17.1540
    18.1436  18.1968  19.0181

     occupation numbers 
     1.0000   1.0000   1.0000   1.0000   1.0000   1.0000   1.0000   1.0000
     1.0000   1.0000   1.0000   1.0000   1.0000   1.0000   1.0000   1.0000
     1.0000   1.0000   1.0000   1.0000   1.0000   1.0000   1.0000   1.0000
     1.0000   1.0000   1.0000   1.0000   1.0000   1.0000   1.0000   1.0000
     1.0000   1.0000   1.0000   1.0000   0.0000   0.0000   0.0000   0.0000
     0.0000   0.0000   0.0000

          k =-0.3333 0.6668-0.3835 (  5568 PWs)   bands (ev):

    -4.2545  -4.2543  -4.1746  -4.1647  -3.3560  -3.3403  -3.3242  -3.3130
    -3.3035  -3.3034  -3.2943  -3.2234  -3.2030  -3.1899  -3.1781  -3.1769
    -3.1325  -3.1238  -3.0808  -3.0741  -2.3475  -1.5093  -1.3975  -0.7673
     4.8003   5.5611   5.6572   5.9016   6.6386   7.8082   7.9818   9.3330
     9.4722   9.5983   9.7828  10.2681  14.9067  15.2768  16.5298  17.1534
    18.1424  18.1969  18.4324

     occupation numbers 
     1.0000   1.0000   1.0000   1.0000   1.0000   1.0000   1.0000   1.0000
     1.0000   1.0000   1.0000   1.0000   1.0000   1.0000   1.0000   1.0000
     1.0000   1.0000   1.0000   1.0000   1.0000   1.0000   1.0000   1.0000
     1.0000   1.0000   1.0000   1.0000   1.0000   1.0000   1.0000   1.0000
     1.0000   1.0000   1.0000   1.0000   0.0000   0.0000   0.0000   0.0000
     0.0000   0.0000   0.0000

     the Fermi energy is    11.7309 ev

!    total energy              =   -1248.89411806 Ry
     total all-electron energy =    -16014.747955 Ry
     estimated scf accuracy    <          2.6E-10 Ry
     smearing contrib. (-TS)   =      -0.00056361 Ry
     internal energy E=F+TS    =   -1248.89355445 Ry

     The total energy is F=E-TS. E is the sum of the following terms:
     one-electron contribution =    -315.03411231 Ry
     hartree contribution      =     238.92833827 Ry
     xc contribution           =    -182.23576486 Ry
     ewald contribution        =    -493.34121569 Ry
     one-center paw contrib.   =    -497.21079987 Ry
      -> PAW hartree energy AE =     143.03225991 Ry
      -> PAW hartree energy PS =    -141.67741661 Ry
      -> PAW xc energy AE      =    -156.84188783 Ry
      -> PAW xc energy PS      =      39.64200440 Ry
      -> total E_H with PAW    =     240.28318157 Ry
      -> total E_XC with PAW   =    -299.43564828 Ry

     convergence has been achieved in  26 iterations


     -----------------------------------------------
     Non-local corr. energy    =       2.13606388 Ry
     -----------------------------------------------


     Forces acting on atoms (cartesian axes, Ry/au):

     atom    1 type  1   force =     0.00000000   -0.00022673   -0.00035988
     atom    2 type  1   force =     0.00000000   -0.00022439   -0.00036316
     atom    3 type  1   force =    -0.00001455    0.00022736   -0.00035431
     atom    4 type  1   force =     0.00001455    0.00022736   -0.00035431
     atom    5 type  2   force =     0.00000000    0.00011340    0.00035858
     atom    6 type  2   force =     0.00000000    0.00011347    0.00035769
     atom    7 type  2   force =     0.00000038   -0.00011523    0.00035769
     atom    8 type  2   force =    -0.00000038   -0.00011523    0.00035769
     The non-local contrib.  to forces
     atom    1 type  1   force =     0.00000000   -0.00063532   -0.34204010
     atom    2 type  1   force =     0.00000000   -0.00063586   -0.34203942
     atom    3 type  1   force =    -0.00000558    0.00063724   -0.34203927
     atom    4 type  1   force =     0.00000558    0.00063724   -0.34203927
     atom    5 type  2   force =     0.00000000    0.00171216   -0.14992835
     atom    6 type  2   force =     0.00000000    0.00171217   -0.14992947
     atom    7 type  2   force =     0.00000075   -0.00171202   -0.14992494
     atom    8 type  2   force =    -0.00000075   -0.00171202   -0.14992494
     The ionic contribution  to forces
     atom    1 type  1   force =    -0.00000052   -0.00728149   -0.84157960
     atom    2 type  1   force =     0.00000035   -0.00728149   -0.84157949
     atom    3 type  1   force =    -0.00000035    0.00728149   -0.84158045
     atom    4 type  1   force =     0.00000052    0.00728149   -0.84158055
     atom    5 type  2   force =    -0.00000024   -0.01079124    0.84157984
     atom    6 type  2   force =     0.00000010   -0.01079124    0.84157974
     atom    7 type  2   force =    -0.00000010    0.01079124    0.84158020
     atom    8 type  2   force =     0.00000024    0.01079124    0.84158030
     The local contribution  to forces
     atom    1 type  1   force =    -0.00000000    0.00768395    1.17624623
     atom    2 type  1   force =     0.00000471    0.00768447    1.17624289
     atom    3 type  1   force =     0.00001534   -0.00768563    1.17624176
     atom    4 type  1   force =    -0.00000592   -0.00768563    1.17624176
     atom    5 type  2   force =    -0.00000000    0.00922143   -0.69391285
     atom    6 type  2   force =     0.00000036    0.00922146   -0.69391244
     atom    7 type  2   force =     0.00000838   -0.00922155   -0.69389565
     atom    8 type  2   force =    -0.00000766   -0.00922155   -0.69389565
     The core correction contribution to forces
     atom    1 type  1   force =     0.00000000    0.00000492    0.00689974
     atom    2 type  1   force =     0.00000035    0.00000490    0.00689958
     atom    3 type  1   force =     0.00000041   -0.00000493    0.00689937
     atom    4 type  1   force =     0.00000030   -0.00000493    0.00689937
     atom    5 type  2   force =     0.00000000   -0.00002811    0.00249562
     atom    6 type  2   force =    -0.00000001   -0.00002811    0.00249566
     atom    7 type  2   force =     0.00000000    0.00002811    0.00249559
     atom    8 type  2   force =    -0.00000002    0.00002811    0.00249559
     The Hubbard contrib.    to forces
     atom    1 type  1   force =     0.00000000    0.00000000    0.00000000
     atom    2 type  1   force =     0.00000000    0.00000000    0.00000000
     atom    3 type  1   force =     0.00000000    0.00000000    0.00000000
     atom    4 type  1   force =     0.00000000    0.00000000    0.00000000
     atom    5 type  2   force =     0.00000000    0.00000000    0.00000000
     atom    6 type  2   force =     0.00000000    0.00000000    0.00000000
     atom    7 type  2   force =     0.00000000    0.00000000    0.00000000
     atom    8 type  2   force =     0.00000000    0.00000000    0.00000000
     The SCF correction term to forces
     atom    1 type  1   force =    -0.00000000    0.00000212    0.00000020
     atom    2 type  1   force =     0.00000000    0.00000451   -0.00000036
     atom    3 type  1   force =    -0.00001922    0.00000011    0.00001068
     atom    4 type  1   force =     0.00001922    0.00000011    0.00001068
     atom    5 type  2   force =    -0.00000000    0.00000007    0.00001066
     atom    6 type  2   force =     0.00000000    0.00000009    0.00001055
     atom    7 type  2   force =    -0.00000824   -0.00000009   -0.00001122
     atom    8 type  2   force =     0.00000824   -0.00000009   -0.00001122

     Total force =     0.001133     Total SCF correction =     0.000040


     Computing stress (Cartesian axis) and pressure



     -----------------------------------------------
     Non-local corr. energy    =       2.13606388 Ry
     -----------------------------------------------

          total   stress  (Ry/bohr**3)                   (kbar)     P=       51.96
   0.00037182   0.00000000   0.00000000           54.70        0.00        0.00
   0.00000000   0.00037725   0.00000000            0.00       55.50        0.00
   0.00000000   0.00000000   0.00031052            0.00        0.00       45.68

     kinetic stress (kbar)  21652.98      0.00      0.00
                                0.00  21653.80     -0.00
                                0.00     -0.00  21285.57

     local   stress (kbar)   6728.00     -0.00     -0.00
                               -0.00   6722.78     -0.00
                               -0.00     -0.00  19246.85

     nonloc. stress (kbar)   -266.63      0.00      0.00
                                0.00   -266.69      0.00
                                0.00      0.00     56.79

     hartree stress (kbar)  22447.62     -0.00     -0.00
                               -0.00  22449.74      0.00
                               -0.00      0.00  17468.37

     exc-cor stress (kbar)   6027.44      0.00     -0.00
                                0.00   6027.43      0.00
                               -0.00      0.00   6003.69

     corecor stress (kbar) -16286.67     -0.00     -0.00
                               -0.00 -16286.68      0.00
                               -0.00      0.00 -16284.77

     ewald   stress (kbar) -40427.98      0.00     -0.00
                                0.00 -40424.81      0.00
                               -0.00      0.00 -47920.48

     hubbard stress (kbar)      0.00      0.00      0.00
                                0.00      0.00      0.00
                                0.00      0.00      0.00

     DFT-D   stress (kbar)      0.00      0.00      0.00
                                0.00      0.00      0.00
                                0.00      0.00      0.00

     XDM     stress (kbar)      0.00      0.00      0.00
                                0.00      0.00      0.00
                                0.00      0.00      0.00

     dft-nl  stress (kbar)    179.93     -0.00     -0.00
                               -0.00    179.93     -0.00
                               -0.00     -0.00    189.66

     TS-vdW  stress (kbar)      0.00      0.00      0.00
                                0.00      0.00      0.00
                                0.00      0.00      0.00

     MDB     stress (kbar)      0.00      0.00      0.00
                                0.00      0.00      0.00
                                0.00      0.00      0.00

     3D-RISM stress (kbar)      0.00      0.00      0.00
                                0.00      0.00      0.00
                                0.00      0.00      0.00


     BFGS Geometry Optimization
     Energy error            =      0.0E+00 Ry
     Gradient error          =      3.6E-04 Ry/Bohr
     Cell gradient error     =      5.5E+01 kbar

     number of scf cycles    =   1
     number of bfgs steps    =   0

     enthalpy           new  =   -1248.8941180581 Ry

     new trust radius        =       0.0447789511 bohr
     new conv_thr            =       0.0000001000 Ry

     new unit-cell volume =    578.63256 a.u.^3 (    85.74450 Ang^3 )
     density =      6.48610 g/cm^3

CELL_PARAMETERS (alat= 10.90542810)
   1.009295621   0.000000000   0.000000000
   0.000000000   0.504618546   0.000000002
   0.000000000   0.000000004   0.875977822

ATOMIC_POSITIONS (angstrom)
Ga            0.0000000000        2.1854662676        5.0318190475
Ga            2.9122740686        2.1854675178        5.0318172990
Ga            1.4561292618        0.7266392858        2.5042300535
Ga            4.3684188755        0.7266392858        2.5042300535
N             0.0000000000        2.1832279813        1.9696100059
N             2.9122740686        2.1832280187        1.9696095333
N             1.4561372362        0.7288762520        4.4972014865
N             4.3684109010        0.7288762520        4.4972014865



     Writing config-only to output data dir ./PbI2.save/
     NEW-OLD atomic charge density approx. for the potential

     Check: negative core charge=   -0.000003


     -----------------------------------------------
     Non-local corr. energy    =       2.19489637 Ry
     -----------------------------------------------

     extrapolated charge   73.87371, renormalised to   72.00000

     total cpu time spent up to now is       11.8 secs

     Self-consistent Calculation

     iteration #  1     ecut=    70.00 Ry     beta= 0.70
     Davidson diagonalization with overlap

---- Real-time Memory Report at c_bands before calling an iterative solver
           164 MiB given to the printing process from OS
             0 MiB allocation reported by mallinfo(arena+hblkhd)
       1912641 MiB available memory on the node where the printing process lives
------------------
     ethr =  1.00E-06,  avg # of iterations =  5.5


     -----------------------------------------------
     Non-local corr. energy    =       2.03358775 Ry
     -----------------------------------------------


     total cpu time spent up to now is       12.4 secs

     total energy              =   -1248.36907394 Ry
     estimated scf accuracy    <       0.52172514 Ry

     iteration #  2     ecut=    70.00 Ry     beta= 0.70
     Davidson diagonalization with overlap

---- Real-time Memory Report at c_bands before calling an iterative solver
           164 MiB given to the printing process from OS
             0 MiB allocation reported by mallinfo(arena+hblkhd)
       1912631 MiB available memory on the node where the printing process lives
------------------
     ethr =  7.25E-04,  avg # of iterations =  4.0


     -----------------------------------------------
     Non-local corr. energy    =       2.09465920 Ry
     -----------------------------------------------


     total cpu time spent up to now is       12.8 secs

     total energy              =   -1248.88737679 Ry
     estimated scf accuracy    <       1.28094512 Ry

     iteration #  3     ecut=    70.00 Ry     beta= 0.70
     Davidson diagonalization with overlap

---- Real-time Memory Report at c_bands before calling an iterative solver
           164 MiB given to the printing process from OS
             0 MiB allocation reported by mallinfo(arena+hblkhd)
       1912630 MiB available memory on the node where the printing process lives
------------------
     ethr =  7.25E-04,  avg # of iterations =  1.0


     -----------------------------------------------
     Non-local corr. energy    =       2.10913856 Ry
     -----------------------------------------------


     total cpu time spent up to now is       13.1 secs

     total energy              =   -1248.88435067 Ry
     estimated scf accuracy    <       0.49377177 Ry

     iteration #  4     ecut=    70.00 Ry     beta= 0.70
     Davidson diagonalization with overlap

---- Real-time Memory Report at c_bands before calling an iterative solver
           164 MiB given to the printing process from OS
             0 MiB allocation reported by mallinfo(arena+hblkhd)
       1912607 MiB available memory on the node where the printing process lives
------------------
     ethr =  6.86E-04,  avg # of iterations =  1.6


     -----------------------------------------------
     Non-local corr. energy    =       2.12251784 Ry
     -----------------------------------------------


     total cpu time spent up to now is       13.3 secs

     total energy              =   -1248.86698504 Ry
     estimated scf accuracy    <       0.28044497 Ry

     iteration #  5     ecut=    70.00 Ry     beta= 0.70
     Davidson diagonalization with overlap

---- Real-time Memory Report at c_bands before calling an iterative solver
           164 MiB given to the printing process from OS
             0 MiB allocation reported by mallinfo(arena+hblkhd)
       1912605 MiB available memory on the node where the printing process lives
------------------
     ethr =  3.90E-04,  avg # of iterations =  3.0


     -----------------------------------------------
     Non-local corr. energy    =       2.13188589 Ry
     -----------------------------------------------


     total cpu time spent up to now is       13.6 secs

     total energy              =   -1248.87923302 Ry
     estimated scf accuracy    <       0.09795665 Ry

     iteration #  6     ecut=    70.00 Ry     beta= 0.70
     Davidson diagonalization with overlap

---- Real-time Memory Report at c_bands before calling an iterative solver
           164 MiB given to the printing process from OS
             0 MiB allocation reported by mallinfo(arena+hblkhd)
       1912744 MiB available memory on the node where the printing process lives
------------------
     ethr =  1.36E-04,  avg # of iterations =  3.1


     -----------------------------------------------
     Non-local corr. energy    =       2.12903846 Ry
     -----------------------------------------------


     total cpu time spent up to now is       13.9 secs

     total energy              =   -1248.89979895 Ry
     estimated scf accuracy    <       0.01371036 Ry

     iteration #  7     ecut=    70.00 Ry     beta= 0.70
     Davidson diagonalization with overlap

---- Real-time Memory Report at c_bands before calling an iterative solver
           164 MiB given to the printing process from OS
             0 MiB allocation reported by mallinfo(arena+hblkhd)
       1912534 MiB available memory on the node where the printing process lives
------------------
     ethr =  1.90E-05,  avg # of iterations =  3.5


     -----------------------------------------------
     Non-local corr. energy    =       2.12262932 Ry
     -----------------------------------------------


     total cpu time spent up to now is       14.2 secs

     total energy              =   -1248.90469860 Ry
     estimated scf accuracy    <       0.01430666 Ry

     iteration #  8     ecut=    70.00 Ry     beta= 0.70
     Davidson diagonalization with overlap

---- Real-time Memory Report at c_bands before calling an iterative solver
           164 MiB given to the printing process from OS
             0 MiB allocation reported by mallinfo(arena+hblkhd)
       1912711 MiB available memory on the node where the printing process lives
------------------
     ethr =  1.90E-05,  avg # of iterations =  1.0


     -----------------------------------------------
     Non-local corr. energy    =       2.11571976 Ry
     -----------------------------------------------


     total cpu time spent up to now is       14.5 secs

     total energy              =   -1248.90877078 Ry
     estimated scf accuracy    <       0.02436328 Ry

     iteration #  9     ecut=    70.00 Ry     beta= 0.70
     Davidson diagonalization with overlap

---- Real-time Memory Report at c_bands before calling an iterative solver
           164 MiB given to the printing process from OS
             0 MiB allocation reported by mallinfo(arena+hblkhd)
       1912714 MiB available memory on the node where the printing process lives
------------------
     ethr =  1.90E-05,  avg # of iterations =  1.7


     -----------------------------------------------
     Non-local corr. energy    =       2.11358669 Ry
     -----------------------------------------------


     total cpu time spent up to now is       14.8 secs

     total energy              =   -1248.90909881 Ry
     estimated scf accuracy    <       0.04117007 Ry

     iteration # 10     ecut=    70.00 Ry     beta= 0.70
     Davidson diagonalization with overlap

---- Real-time Memory Report at c_bands before calling an iterative solver
           164 MiB given to the printing process from OS
             0 MiB allocation reported by mallinfo(arena+hblkhd)
       1912713 MiB available memory on the node where the printing process lives
------------------
     ethr =  1.90E-05,  avg # of iterations =  1.0


     -----------------------------------------------
     Non-local corr. energy    =       2.12267095 Ry
     -----------------------------------------------


     total cpu time spent up to now is       15.0 secs

     total energy              =   -1248.89957348 Ry
     estimated scf accuracy    <       0.04495081 Ry

     iteration # 11     ecut=    70.00 Ry     beta= 0.70
     Davidson diagonalization with overlap

---- Real-time Memory Report at c_bands before calling an iterative solver
           164 MiB given to the printing process from OS
             0 MiB allocation reported by mallinfo(arena+hblkhd)
       1912711 MiB available memory on the node where the printing process lives
------------------
     ethr =  1.90E-05,  avg # of iterations =  1.0


     -----------------------------------------------
     Non-local corr. energy    =       2.12895467 Ry
     -----------------------------------------------


     total cpu time spent up to now is       15.3 secs

     total energy              =   -1248.89681498 Ry
     estimated scf accuracy    <       0.02533846 Ry

     iteration # 12     ecut=    70.00 Ry     beta= 0.70
     Davidson diagonalization with overlap

---- Real-time Memory Report at c_bands before calling an iterative solver
           164 MiB given to the printing process from OS
             0 MiB allocation reported by mallinfo(arena+hblkhd)
       1912719 MiB available memory on the node where the printing process lives
------------------
     ethr =  1.90E-05,  avg # of iterations =  2.0


     -----------------------------------------------
     Non-local corr. energy    =       2.13294000 Ry
     -----------------------------------------------


     total cpu time spent up to now is       15.5 secs

     total energy              =   -1248.89611853 Ry
     estimated scf accuracy    <       0.01170874 Ry

     iteration # 13     ecut=    70.00 Ry     beta= 0.70
     Davidson diagonalization with overlap

---- Real-time Memory Report at c_bands before calling an iterative solver
           164 MiB given to the printing process from OS
             0 MiB allocation reported by mallinfo(arena+hblkhd)
       1912713 MiB available memory on the node where the printing process lives
------------------
     ethr =  1.63E-05,  avg # of iterations =  1.8


     -----------------------------------------------
     Non-local corr. energy    =       2.14073087 Ry
     -----------------------------------------------


     total cpu time spent up to now is       15.8 secs

     total energy              =   -1248.89481402 Ry
     estimated scf accuracy    <       0.00675220 Ry

     iteration # 14     ecut=    70.00 Ry     beta= 0.70
     Davidson diagonalization with overlap

---- Real-time Memory Report at c_bands before calling an iterative solver
           164 MiB given to the printing process from OS
             0 MiB allocation reported by mallinfo(arena+hblkhd)
       1912711 MiB available memory on the node where the printing process lives
------------------
     ethr =  9.38E-06,  avg # of iterations =  3.9


     -----------------------------------------------
     Non-local corr. energy    =       2.14544437 Ry
     -----------------------------------------------


     total cpu time spent up to now is       16.2 secs

     total energy              =   -1248.89684085 Ry
     estimated scf accuracy    <       0.00002562 Ry

     iteration # 15     ecut=    70.00 Ry     beta= 0.70
     Davidson diagonalization with overlap

---- Real-time Memory Report at c_bands before calling an iterative solver
           164 MiB given to the printing process from OS
             0 MiB allocation reported by mallinfo(arena+hblkhd)
       1912701 MiB available memory on the node where the printing process lives
------------------
     ethr =  3.56E-08,  avg # of iterations =  5.0


     -----------------------------------------------
     Non-local corr. energy    =       2.14263774 Ry
     -----------------------------------------------


     total cpu time spent up to now is       16.6 secs

     total energy              =   -1248.89702788 Ry
     estimated scf accuracy    <       0.00348779 Ry

     iteration # 16     ecut=    70.00 Ry     beta= 0.70
     Davidson diagonalization with overlap

---- Real-time Memory Report at c_bands before calling an iterative solver
           164 MiB given to the printing process from OS
             0 MiB allocation reported by mallinfo(arena+hblkhd)
       1912699 MiB available memory on the node where the printing process lives
------------------
     ethr =  3.56E-08,  avg # of iterations =  4.0


     -----------------------------------------------
     Non-local corr. energy    =       2.13876563 Ry
     -----------------------------------------------


     total cpu time spent up to now is       17.1 secs

     total energy              =   -1248.89671934 Ry
     estimated scf accuracy    <       0.00118174 Ry

     iteration # 17     ecut=    70.00 Ry     beta= 0.70
     Davidson diagonalization with overlap

---- Real-time Memory Report at c_bands before calling an iterative solver
           164 MiB given to the printing process from OS
             0 MiB allocation reported by mallinfo(arena+hblkhd)
       1912692 MiB available memory on the node where the printing process lives
------------------
     ethr =  3.56E-08,  avg # of iterations =  4.1


     -----------------------------------------------
     Non-local corr. energy    =       2.13841910 Ry
     -----------------------------------------------


     total cpu time spent up to now is       17.5 secs

     total energy              =   -1248.89683106 Ry
     estimated scf accuracy    <       0.00000836 Ry

     iteration # 18     ecut=    70.00 Ry     beta= 0.70
     Davidson diagonalization with overlap

---- Real-time Memory Report at c_bands before calling an iterative solver
           164 MiB given to the printing process from OS
             0 MiB allocation reported by mallinfo(arena+hblkhd)
       1912703 MiB available memory on the node where the printing process lives
------------------
     ethr =  1.16E-08,  avg # of iterations =  1.0


     -----------------------------------------------
     Non-local corr. energy    =       2.14060559 Ry
     -----------------------------------------------


     total cpu time spent up to now is       17.8 secs

     total energy              =   -1248.89690663 Ry
     estimated scf accuracy    <       0.00000773 Ry

     iteration # 19     ecut=    70.00 Ry     beta= 0.70
     Davidson diagonalization with overlap

---- Real-time Memory Report at c_bands before calling an iterative solver
           164 MiB given to the printing process from OS
             0 MiB allocation reported by mallinfo(arena+hblkhd)
       1912703 MiB available memory on the node where the printing process lives
------------------
     ethr =  1.07E-08,  avg # of iterations =  4.7


     -----------------------------------------------
     Non-local corr. energy    =       2.14147965 Ry
     -----------------------------------------------


     total cpu time spent up to now is       18.2 secs

     total energy              =   -1248.89707331 Ry
     estimated scf accuracy    <       0.00045615 Ry

     iteration # 20     ecut=    70.00 Ry     beta= 0.70
     Davidson diagonalization with overlap

---- Real-time Memory Report at c_bands before calling an iterative solver
           164 MiB given to the printing process from OS
             0 MiB allocation reported by mallinfo(arena+hblkhd)
       1912687 MiB available memory on the node where the printing process lives
------------------
     ethr =  1.07E-08,  avg # of iterations =  4.0


     -----------------------------------------------
     Non-local corr. energy    =       2.14174417 Ry
     -----------------------------------------------


[...]
     1.0000   1.0000   1.0000   1.0000   0.0000   0.0000   0.0000   0.0000
     0.0000   0.0000   0.0000

          k = 0.3303 0.6607-0.0000 (  5721 PWs)   bands (ev):

    -4.6785  -4.6741  -4.6023  -4.5704  -3.8288  -3.8201  -3.7932  -3.7488
    -3.7471  -3.7250  -3.6936  -3.6765  -3.6502  -3.6488  -3.6311  -3.6239
    -3.5990  -3.5785  -3.5676  -3.5485  -3.0297  -2.0614  -1.3869  -0.8637
     4.6293   5.6571   5.8496   5.9327   5.9988   6.1312   7.7640   8.1740
     8.7229   9.0038   9.0097   9.8592  13.8605  14.3468  15.7049  16.5255
    17.7042  18.1346  18.5416

     occupation numbers 
     1.0000   1.0000   1.0000   1.0000   1.0000   1.0000   1.0000   1.0000
     1.0000   1.0000   1.0000   1.0000   1.0000   1.0000   1.0000   1.0000
     1.0000   1.0000   1.0000   1.0000   1.0000   1.0000   1.0000   1.0000
     1.0000   1.0000   1.0000   1.0000   1.0000   1.0000   1.0000   1.0000
     1.0000   1.0000   1.0000   1.0000   0.0000   0.0000   0.0000   0.0000
     0.0000   0.0000   0.0000

          k = 0.3303 0.6607 0.3794 (  5729 PWs)   bands (ev):

    -4.6257  -4.6180  -4.5461  -4.5161  -3.8057  -3.7914  -3.7780  -3.7685
    -3.7583  -3.7575  -3.7493  -3.6865  -3.6669  -3.6544  -3.6441  -3.6428
    -3.6041  -3.5959  -3.5565  -3.5504  -2.7454  -1.9327  -1.8197  -1.2268
     4.4567   5.1827   5.2888   5.5149   6.3331   7.4673   7.6021   8.9211
     9.0562   9.1887   9.3409   9.8186  14.3173  14.6555  15.8632  16.4984
    17.5062  17.5806  17.8129

     occupation numbers 
     1.0000   1.0000   1.0000   1.0000   1.0000   1.0000   1.0000   1.0000
     1.0000   1.0000   1.0000   1.0000   1.0000   1.0000   1.0000   1.0000
     1.0000   1.0000   1.0000   1.0000   1.0000   1.0000   1.0000   1.0000
     1.0000   1.0000   1.0000   1.0000   1.0000   1.0000   1.0000   1.0000
     1.0000   1.0000   1.0000   1.0000   0.0000   0.0000   0.0000   0.0000
     0.0000   0.0000   0.0000

          k = 0.3303-0.9910 0.0000 (  5730 PWs)   bands (ev):

    -4.7213  -4.7212  -4.5065  -4.5065  -3.8516  -3.8515  -3.8055  -3.8055
    -3.7389  -3.7387  -3.6742  -3.6742  -3.6189  -3.6186  -3.6101  -3.6099
    -3.5858  -3.5858  -3.5021  -3.5021  -1.9317  -1.9312  -1.0094  -1.0091
     4.4855   4.4876   5.1262   5.1278   7.2031   7.2037   7.4214   7.4215
     8.7010   8.7018   9.7854   9.7858  12.7804  12.7818  15.9174  15.9180
    17.4207  17.4245  18.2070

     occupation numbers 
     1.0000   1.0000   1.0000   1.0000   1.0000   1.0000   1.0000   1.0000
     1.0000   1.0000   1.0000   1.0000   1.0000   1.0000   1.0000   1.0000
     1.0000   1.0000   1.0000   1.0000   1.0000   1.0000   1.0000   1.0000
     1.0000   1.0000   1.0000   1.0000   1.0000   1.0000   1.0000   1.0000
     1.0000   1.0000   1.0000   1.0000   0.0000   0.0000   0.0000   0.0000
     0.0000   0.0000   0.0000

          k = 0.3303-0.9910 0.3794 (  5736 PWs)   bands (ev):

    -4.6697  -4.6696  -4.4593  -4.4592  -3.8152  -3.8151  -3.8111  -3.8110
    -3.7665  -3.7664  -3.7176  -3.7173  -3.6563  -3.6562  -3.6326  -3.6324
    -3.5547  -3.5547  -3.4975  -3.4974  -1.9304  -1.9301  -1.0091  -1.0090
     3.8461   3.8468   4.9160   4.9167   7.1046   7.1050   8.5726   8.5735
     8.9231   8.9235   9.7862   9.7867  13.4610  13.4612  15.7551  15.7551
    17.0939  17.0974  17.7948

     occupation numbers 
     1.0000   1.0000   1.0000   1.0000   1.0000   1.0000   1.0000   1.0000
     1.0000   1.0000   1.0000   1.0000   1.0000   1.0000   1.0000   1.0000
     1.0000   1.0000   1.0000   1.0000   1.0000   1.0000   1.0000   1.0000
     1.0000   1.0000   1.0000   1.0000   1.0000   1.0000   1.0000   1.0000
     1.0000   1.0000   1.0000   1.0000   0.0000   0.0000   0.0000   0.0000
     0.0000   0.0000   0.0000

          k = 0.0000 0.3303-0.3794 (  5741 PWs)   bands (ev):

    -4.9792  -4.8376  -4.4593  -4.4592  -3.8246  -3.8134  -3.8111  -3.8110
    -3.7665  -3.7664  -3.7177  -3.6681  -3.6386  -3.6325  -3.6325  -3.6194
    -3.5879  -3.5629  -3.5547  -3.5547  -3.5508  -2.6001  -1.9303  -1.9302
     3.8465   3.8465   5.2404   7.1560   7.9419   8.5729   8.5732   9.6519
     9.7161   9.7863   9.7866  10.3565  14.5585  14.9487  15.7550  15.7551
    17.0955  17.0957  18.6710

     occupation numbers 
     1.0000   1.0000   1.0000   1.0000   1.0000   1.0000   1.0000   1.0000
     1.0000   1.0000   1.0000   1.0000   1.0000   1.0000   1.0000   1.0000
     1.0000   1.0000   1.0000   1.0000   1.0000   1.0000   1.0000   1.0000
     1.0000   1.0000   1.0000   1.0000   1.0000   1.0000   1.0000   1.0000
     1.0000   1.0000   1.0000   1.0000   0.0000   0.0000   0.0000   0.0000
     0.0000   0.0000   0.0000

          k = 0.0000 0.6607-0.3794 (  5726 PWs)   bands (ev):

    -4.6697  -4.6696  -4.5172  -4.4719  -3.8352  -3.8152  -3.8151  -3.8077
    -3.7186  -3.7176  -3.7174  -3.7044  -3.6563  -3.6562  -3.6364  -3.6163
    -3.5999  -3.5727  -3.4975  -3.4975  -3.1695  -2.2730  -1.0091  -1.0090
     4.0846   4.8896   4.9163   4.9164   7.1047   7.1048   7.5959   8.9232
     8.9234   9.4488  10.4998  10.9151  13.4609  13.4613  15.0057  16.3990
    17.7424  17.7963  17.7974

     occupation numbers 
     1.0000   1.0000   1.0000   1.0000   1.0000   1.0000   1.0000   1.0000
     1.0000   1.0000   1.0000   1.0000   1.0000   1.0000   1.0000   1.0000
     1.0000   1.0000   1.0000   1.0000   1.0000   1.0000   1.0000   1.0000
     1.0000   1.0000   1.0000   1.0000   1.0000   1.0000   1.0000   1.0000
     1.0000   1.0000   1.0000   0.9997   0.0000   0.0000   0.0000   0.0000
     0.0000   0.0000   0.0000

          k =-0.3303 0.3303-0.3794 (  5744 PWs)   bands (ev):

    -4.7890  -4.7299  -4.5461  -4.5161  -3.7914  -3.7797  -3.7638  -3.7583
    -3.7575  -3.7493  -3.7371  -3.6830  -3.6712  -3.6603  -3.6544  -3.6428
    -3.6387  -3.6056  -3.6041  -3.5959  -3.3444  -2.7454  -2.3930  -1.9327
     4.4567   5.1827   5.2992   6.8796   7.6021   8.2204   8.3576   9.0562
     9.1241   9.1887   9.8186   9.9380  15.4167  15.8632  16.1382  16.4984
    17.5062  17.5806  18.3833

     occupation numbers 
     1.0000   1.0000   1.0000   1.0000   1.0000   1.0000   1.0000   1.0000
     1.0000   1.0000   1.0000   1.0000   1.0000   1.0000   1.0000   1.0000
     1.0000   1.0000   1.0000   1.0000   1.0000   1.0000   1.0000   1.0000
     1.0000   1.0000   1.0000   1.0000   1.0000   1.0000   1.0000   1.0000
     1.0000   1.0000   1.0000   1.0000   0.0000   0.0000   0.0000   0.0000
     0.0000   0.0000   0.0000

          k =-0.3303 0.6607-0.3794 (  5729 PWs)   bands (ev):

    -4.6257  -4.6180  -4.5461  -4.5161  -3.8057  -3.7914  -3.7780  -3.7685
    -3.7583  -3.7575  -3.7493  -3.6865  -3.6669  -3.6544  -3.6441  -3.6428
    -3.6041  -3.5959  -3.5565  -3.5504  -2.7454  -1.9327  -1.8197  -1.2268
     4.4567   5.1827   5.2888   5.5149   6.3331   7.4673   7.6021   8.9211
     9.0562   9.1887   9.3409   9.8186  14.3173  14.6555  15.8632  16.4984
    17.5062  17.5806  17.8129

     occupation numbers 
     1.0000   1.0000   1.0000   1.0000   1.0000   1.0000   1.0000   1.0000
     1.0000   1.0000   1.0000   1.0000   1.0000   1.0000   1.0000   1.0000
     1.0000   1.0000   1.0000   1.0000   1.0000   1.0000   1.0000   1.0000
     1.0000   1.0000   1.0000   1.0000   1.0000   1.0000   1.0000   1.0000
     1.0000   1.0000   1.0000   1.0000   0.0000   0.0000   0.0000   0.0000
     0.0000   0.0000   0.0000

     the Fermi energy is    11.2421 ev

!    total energy              =   -1248.89757279 Ry
     total all-electron energy =    -16014.751410 Ry
     estimated scf accuracy    <          3.6E-11 Ry
     smearing contrib. (-TS)   =      -0.00071312 Ry
     internal energy E=F+TS    =   -1248.89685967 Ry

     The total energy is F=E-TS. E is the sum of the following terms:
     one-electron contribution =    -322.54638383 Ry
     hartree contribution      =     241.19590030 Ry
     xc contribution           =    -182.03027426 Ry
     ewald contribution        =    -488.52278672 Ry
     one-center paw contrib.   =    -496.99331516 Ry
      -> PAW hartree energy AE =     142.35014902 Ry
      -> PAW hartree energy PS =    -140.92966993 Ry
      -> PAW xc energy AE      =    -156.79411271 Ry
      -> PAW xc energy PS      =      39.58354322 Ry
      -> total E_H with PAW    =     242.61637938 Ry
      -> total E_XC with PAW   =    -299.24084374 Ry

     convergence has been achieved in  17 iterations


     -----------------------------------------------
     Non-local corr. energy    =       2.13945979 Ry
     -----------------------------------------------


     Forces acting on atoms (cartesian axes, Ry/au):

     atom    1 type  1   force =     0.00000000   -0.00009149   -0.00003802
     atom    2 type  1   force =     0.00000000   -0.00008448   -0.00004144
     atom    3 type  1   force =    -0.00000221    0.00008734   -0.00003842
     atom    4 type  1   force =     0.00000221    0.00008734   -0.00003842
     atom    5 type  2   force =     0.00000000    0.00005186    0.00003873
     atom    6 type  2   force =     0.00000000    0.00005215    0.00003847
     atom    7 type  2   force =     0.00000111   -0.00005136    0.00003955
     atom    8 type  2   force =    -0.00000111   -0.00005136    0.00003955
     The non-local contrib.  to forces
     atom    1 type  1   force =     0.00000000   -0.00030501   -0.33792992
     atom    2 type  1   force =     0.00000000   -0.00030661   -0.33792320
     atom    3 type  1   force =     0.00000859    0.00030474   -0.33793027
     atom    4 type  1   force =    -0.00000859    0.00030474   -0.33793027
     atom    5 type  2   force =     0.00000000    0.00072094   -0.15283689
     atom    6 type  2   force =     0.00000000    0.00072221   -0.15283314
     atom    7 type  2   force =     0.00000349   -0.00072213   -0.15282732
     atom    8 type  2   force =    -0.00000349   -0.00072213   -0.15282732
     The ionic contribution  to forces
     atom    1 type  1   force =    -0.00000051   -0.00316061   -0.85351553
     atom    2 type  1   force =     0.00000035   -0.00317033   -0.85355832
     atom    3 type  1   force =    -0.00019022    0.00316035   -0.85338050
     atom    4 type  1   force =     0.00019039    0.00316035   -0.85338061
     atom    5 type  2   force =    -0.00000024   -0.00458336    0.85350878
     atom    6 type  2   force =     0.00000010   -0.00459072    0.85347562
     atom    7 type  2   force =    -0.00002000    0.00459217    0.85342523
     atom    8 type  2   force =     0.00002014    0.00459217    0.85342533
     The local contribution  to forces
     atom    1 type  1   force =    -0.00000000    0.00337650    1.18451722
     atom    2 type  1   force =     0.00000476    0.00338761    1.18455171
     atom    3 type  1   force =     0.00018171   -0.00337593    1.18438411
     atom    4 type  1   force =    -0.00017220   -0.00337593    1.18438411
     atom    5 type  2   force =     0.00000000    0.00392577   -0.70342135
     atom    6 type  2   force =     0.00000037    0.00393217   -0.70339332
     atom    7 type  2   force =     0.00001764   -0.00393352   -0.70334778
     atom    8 type  2   force =    -0.00001690   -0.00393352   -0.70334778
     The core correction contribution to forces
     atom    1 type  1   force =     0.00000000    0.00000189    0.00666537
     atom    2 type  1   force =     0.00000036    0.00000188    0.00666541
     atom    3 type  1   force =     0.00000044   -0.00000187    0.00666517
     atom    4 type  1   force =     0.00000027   -0.00000187    0.00666517
     atom    5 type  2   force =     0.00000000   -0.00001180    0.00256679
     atom    6 type  2   force =    -0.00000001   -0.00001182    0.00256672
     atom    7 type  2   force =    -0.00000007    0.00001182    0.00256663
     atom    8 type  2   force =     0.00000005    0.00001182    0.00256663
     The Hubbard contrib.    to forces
     atom    1 type  1   force =     0.00000000    0.00000000    0.00000000
     atom    2 type  1   force =     0.00000000    0.00000000    0.00000000
     atom    3 type  1   force =     0.00000000    0.00000000    0.00000000
     atom    4 type  1   force =     0.00000000    0.00000000    0.00000000
     atom    5 type  2   force =     0.00000000    0.00000000    0.00000000
     atom    6 type  2   force =     0.00000000    0.00000000    0.00000000
     atom    7 type  2   force =     0.00000000    0.00000000    0.00000000
     atom    8 type  2   force =     0.00000000    0.00000000    0.00000000
     The SCF correction term to forces
     atom    1 type  1   force =    -0.00000000   -0.00000456    0.00000258
     atom    2 type  1   force =     0.00000000    0.00000266    0.00000069
     atom    3 type  1   force =     0.00000245   -0.00000025    0.00000087
     atom    4 type  1   force =    -0.00000245   -0.00000025    0.00000087
     atom    5 type  2   force =    -0.00000000    0.00000001   -0.00000085
     atom    6 type  2   force =     0.00000000    0.00000001    0.00000032
     atom    7 type  2   force =     0.00000047   -0.00000000    0.00000048
     atom    8 type  2   force =    -0.00000047   -0.00000000    0.00000048

     Total force =     0.000232     Total SCF correction =     0.000007


     Computing stress (Cartesian axis) and pressure



     -----------------------------------------------
     Non-local corr. energy    =       2.13945979 Ry
     -----------------------------------------------

          total   stress  (Ry/bohr**3)                   (kbar)     P=        0.64
   0.00000368   0.00000000   0.00000000            0.54        0.00        0.00
   0.00000000   0.00000363  -0.00000000            0.00        0.53       -0.00
   0.00000000  -0.00000000   0.00000567            0.00       -0.00        0.83

     kinetic stress (kbar)  20748.81      0.00      0.00
                                0.00  20748.81     -0.00
                                0.00     -0.00  20434.25

     local   stress (kbar)   6062.29     -0.00     -0.00
                               -0.00   6062.35      0.01
                               -0.00      0.01  17710.90

     nonloc. stress (kbar)     10.06      0.00      0.00
                                0.00     10.06      0.00
                                0.00      0.00    284.64

     hartree stress (kbar)  21947.27      0.00      0.00
                                0.00  21947.24     -0.00
                                0.00     -0.00  17269.24

     exc-cor stress (kbar)   5868.32      0.00     -0.00
                                0.00   5868.32     -0.00
                               -0.00     -0.00   5847.07

     corecor stress (kbar) -15823.81     -0.00     -0.00
                               -0.00 -15823.81      0.00
                               -0.00      0.00 -15822.29

     ewald   stress (kbar) -38987.58      0.00      0.00
                                0.00 -38987.62     -0.00
                                0.00     -0.00 -45907.04

     hubbard stress (kbar)      0.00      0.00      0.00
                                0.00      0.00      0.00
                                0.00      0.00      0.00

     DFT-D   stress (kbar)      0.00      0.00      0.00
                                0.00      0.00      0.00
                                0.00      0.00      0.00

     XDM     stress (kbar)      0.00      0.00      0.00
                                0.00      0.00      0.00
                                0.00      0.00      0.00

     dft-nl  stress (kbar)    175.18     -0.00     -0.00
                               -0.00    175.18      0.00
                               -0.00      0.00    184.06

     TS-vdW  stress (kbar)      0.00      0.00      0.00
                                0.00      0.00      0.00
                                0.00      0.00      0.00

     MDB     stress (kbar)      0.00      0.00      0.00
                                0.00      0.00      0.00
                                0.00      0.00      0.00

     3D-RISM stress (kbar)      0.00      0.00      0.00
                                0.00      0.00      0.00
                                0.00      0.00      0.00


     Writing all to output data dir ./PbI2.save/
 
     init_run     :      1.02s CPU      1.10s WALL (       2 calls)
     electrons    :     51.51s CPU     54.25s WALL (       8 calls)
     update_pot   :      2.02s CPU      2.09s WALL (       6 calls)
     forces       :      1.51s CPU      1.60s WALL (       8 calls)
     stress       :      2.73s CPU      2.83s WALL (       8 calls)

     Called by init_run:
     wfcinit      :      0.10s CPU      0.12s WALL (       2 calls)
     wfcinit:atom :      0.00s CPU      0.00s WALL (       6 calls)
     wfcinit:wfcr :      0.10s CPU      0.10s WALL (       6 calls)
     potinit      :      0.62s CPU      0.65s WALL (       2 calls)
     hinit0       :      0.26s CPU      0.27s WALL (       2 calls)

     Called by electrons:
     c_bands      :     29.20s CPU     30.01s WALL (     140 calls)
     sum_band     :      5.39s CPU      5.51s WALL (     140 calls)
     v_of_rho     :      7.85s CPU      8.33s WALL (     147 calls)
     v_h          :      0.07s CPU      0.07s WALL (     147 calls)
     v_xc         :      8.57s CPU      9.09s WALL (     163 calls)
     newd         :      0.52s CPU      0.54s WALL (     147 calls)
     PAW_pot      :      8.78s CPU      9.64s WALL (     153 calls)
     mix_rho      :      0.35s CPU      0.36s WALL (     140 calls)
     vdW_kernel   :      0.25s CPU      0.26s WALL (       1 calls)

     Called by c_bands:
     init_us_2    :      0.19s CPU      0.20s WALL (     912 calls)
     init_us_2:cp :      0.19s CPU      0.20s WALL (     912 calls)
     cegterg      :     23.03s CPU     23.54s WALL (     420 calls)

     Called by sum_band:
     sum_band:wei :      0.13s CPU      0.13s WALL (     140 calls)
     sum_band:loo :      2.48s CPU      2.56s WALL (     140 calls)
     sum_band:buf :      0.04s CPU      0.04s WALL (     420 calls)
     sum_band:ini :      0.08s CPU      0.08s WALL (     420 calls)
     sum_band:cal :      0.31s CPU      0.32s WALL (     438 calls)
     sum_band:bec :      0.02s CPU      0.02s WALL (     438 calls)
     addusdens    :      0.98s CPU      1.00s WALL (     140 calls)
     addusd:skk   :      0.00s CPU      0.00s WALL (     280 calls)
     addusd:dgemm :      0.12s CPU      0.13s WALL (     280 calls)
     addusd:qvan2 :      0.14s CPU      0.14s WALL (     280 calls)

     Called by *egterg:
     cdiaghg      :      6.50s CPU      6.57s WALL (    1776 calls)
     cegterg:over :      1.25s CPU      1.28s WALL (    1377 calls)
     cegterg:upda :      0.65s CPU      0.66s WALL (    1377 calls)
     cegterg:last :      0.38s CPU      0.39s WALL (     483 calls)
     h_psi        :     12.64s CPU     13.01s WALL (    1803 calls)
     s_psi        :      0.71s CPU      0.74s WALL (    1803 calls)
     g_psi        :      0.03s CPU      0.03s WALL (    1377 calls)

     Called by h_psi:
     h_psi:calbec :      1.01s CPU      1.03s WALL (    1803 calls)
     vloc_psi     :     10.74s CPU     11.06s WALL (    1803 calls)
     add_vuspsi   :      0.79s CPU      0.81s WALL (    1803 calls)

     General routines
     calbec       :      1.41s CPU      1.45s WALL (    2361 calls)
     fft          :      3.37s CPU      3.44s WALL (   10604 calls)
     ffts         :      0.08s CPU      0.08s WALL (     287 calls)
     fftw         :     11.84s CPU     12.20s WALL (  119692 calls)
     interpolate  :      0.11s CPU      0.11s WALL (     147 calls)
 
     Parallel routines

     PAW routines
     PAW_pot      :      8.78s CPU      9.64s WALL (     153 calls)
     PAW_symme    :      0.15s CPU      0.16s WALL (     293 calls)
 
     PWSCF        :     59.76s CPU   1m 3.75s WALL

 
   This run was terminated on:   8:39:39  21Feb2024            

=------------------------------------------------------------------------------=
   JOB DONE.
=------------------------------------------------------------------------------=
