
     Program PWSCF v.7.1 starts on 23Mar2024 at  8:54: 8 

     This program is part of the open-source Quantum ESPRESSO suite
     for quantum simulation of materials; please cite
         "P. Giannozzi et al., J. Phys.:Condens. Matter 21 395502 (2009);
         "P. Giannozzi et al., J. Phys.:Condens. Matter 29 465901 (2017);
         "P. Giannozzi et al., J. Chem. Phys. 152 154105 (2020);
          URL http://www.quantum-espresso.org", 
     in publications or presentations arising from this work. More details at
     http://www.quantum-espresso.org/quote

     Parallel version (MPI & OpenMP), running on      60 processor cores
     Number of MPI processes:                60
     Threads/MPI process:                     1

     MPI processes distributed on     2 nodes
     1975125 MiB available memory on the printing compute node when the environment starts
 
     Reading input from espresso.pwi
Warning: card &CELL ignored
Warning: card    CELL_DYNAMICS    = 'BFGS' ignored
Warning: card / ignored

     Current dimensions of program PWSCF are:
     Max number of different atomic species (ntypx) = 10
     Max number of k-points (npk) =  40000
     Max angular momentum in pseudopotentials (lmaxx) =  4
     file Ga.pbe-dn-kjpaw_psl.1.0.0.UPF: wavefunction(s)  4S renormalized
     file N.pbe-n-kjpaw_psl.1.0.0.UPF: wavefunction(s)  2S renormalized

     **************************************************************************
     Initializing libbeef V0.1.2 with the BEEF-vdW functional.
     Citation: Wellendorff et al., PRB 85, 235149 (2012).
     **************************************************************************


     IMPORTANT: XC functional enforced from input :
     Exchange-correlation= BEEF-VDW
                           (   1   4  43  14   2   0   0)
     Any further DFT definition will be discarded
     Please, verify this is what you really want

 
     K-points division:     npool     =       2
     R & G space division:  proc/nbgrp/npool/nimage =      30
     Subspace diagonalization in iterative solution of the eigenvalue problem:
     a serial algorithm will be used

 
     Parallelization info
     --------------------
     sticks:   dense  smooth     PW     G-vecs:    dense   smooth      PW
     Min         271     216     57                21575    15440    2109
     Max         272     217     58                21584    15447    2114
     Sum        8137    6505   1735               647327   463355   63361
 
     Using Slab Decomposition
 


     bravais-lattice index     =            4
     lattice parameter (alat)  =      18.3939  a.u.
     unit-cell volume          =    5856.2271 (a.u.)^3
     number of atoms/cell      =           71
     number of atomic types    =            2
     number of electrons       =       643.00
     number of Kohn-Sham states=          386
     kinetic-energy cutoff     =      70.0000  Ry
     charge density cutoff     =     350.0000  Ry
     scf convergence threshold =      1.0E-07
     mixing beta               =       0.7000
     number of iterations used =            8  plain     mixing
     energy convergence thresh.=      1.0E-04
     force convergence thresh. =      1.0E-03
     Exchange-correlation= BEEF-VDW
                           (   1   4  43  14   2   0   0)
     nstep                     =           50


     celldm(1)=  18.393924  celldm(2)=   0.000000  celldm(3)=   1.086586
     celldm(4)=   0.000000  celldm(5)=   0.000000  celldm(6)=   0.000000

     crystal axes: (cart. coord. in units of alat)
               a(1) = (   1.000000   0.000000   0.000000 )  
               a(2) = (  -0.500000   0.866025   0.000000 )  
               a(3) = (   0.000000   0.000000   1.086586 )  

     reciprocal axes: (cart. coord. in units 2 pi/alat)
               b(1) = (  1.000000  0.577350 -0.000000 )  
               b(2) = (  0.000000  1.154701  0.000000 )  
               b(3) = (  0.000000 -0.000000  0.920314 )  


     PseudoPot. # 1 for Ga read from file:
     //group///packages/espresso/pseudo/psl_1.0.0/pslibrary.1.0.0/pbe/PSEUDOPOTENTIALS/Ga.pbe-dn-kjpaw_psl.1.0.0.UPF
     MD5 check sum: cd2a01e492f15b435d17032472d8505c
     Pseudo is Projector augmented-wave + core cor, Zval = 13.0
     Generated using 'atomic' code by A. Dal Corso  v.7.1
     Shape of augmentation charge: PSQ
     Using radial grid of 1205 points,  6 beta functions with: 
                l(1) =   0
                l(2) =   0
                l(3) =   1
                l(4) =   1
                l(5) =   2
                l(6) =   2
     Q(r) pseudized with 0 coefficients 


     PseudoPot. # 2 for N  read from file:
     //group///packages/espresso/pseudo/psl_1.0.0/pslibrary.1.0.0/pbe/PSEUDOPOTENTIALS/N.pbe-n-kjpaw_psl.1.0.0.UPF
     MD5 check sum: f77f775694dac7e2c3fe1c82443d1a16
     Pseudo is Projector augmented-wave + core cor, Zval =  5.0
     Generated using 'atomic' code by A. Dal Corso  v.7.1
     Shape of augmentation charge: PSQ
     Using radial grid of 1085 points,  4 beta functions with: 
                l(1) =   0
                l(2) =   0
                l(3) =   1
                l(4) =   1
     Q(r) pseudized with 0 coefficients 


     atomic species   valence    mass     pseudopotential
        Ga            13.00    69.72300     Ga( 1.00)
        N              5.00    14.00700     N ( 1.00)

      6 Sym. Ops. (no inversion) found ( 4 have fractional translation)


                                    s                        frac. trans.

      isym =  1     identity                                     

 cryst.   s( 1) = (     1          0          0      )
                  (     0          1          0      )
                  (     0          0          1      )

 cart.    s( 1) = (  1.0000000  0.0000000  0.0000000 )
                  (  0.0000000  1.0000000  0.0000000 )
                  (  0.0000000  0.0000000  1.0000000 )


      isym =  2     120 deg rotation - cryst. axis [0,0,1]       

 cryst.   s( 2) = (     0          1          0      )    f =( -0.3333334 )
                  (    -1         -1          0      )       (  0.0000003 )
                  (     0          0          1      )       (  0.0000000 )

 cart.    s( 2) = ( -0.5000000 -0.8660254  0.0000000 )    f =( -0.3333335 )
                  (  0.8660254 -0.5000000  0.0000000 )       (  0.0000002 )
                  (  0.0000000  0.0000000  1.0000000 )       (  0.0000000 )


      isym =  3     120 deg rotation - cryst. axis [0,0,-1]      

 cryst.   s( 3) = (    -1         -1          0      )    f =( -0.3333336 )
                  (     1          0          0      )       ( -0.3333334 )
                  (     0          0          1      )       (  0.0000000 )

 cart.    s( 3) = ( -0.5000000  0.8660254  0.0000000 )    f =( -0.1666669 )
                  ( -0.8660254 -0.5000000  0.0000000 )       ( -0.2886752 )
                  (  0.0000000  0.0000000  1.0000000 )       (  0.0000000 )


      isym =  4     inv. 180 deg rotation - cart. axis [1,0,0]   

 cryst.   s( 4) = (    -1          0          0      )    f =( -0.3333336 )
                  (     1          1          0      )       (  0.0000000 )
                  (     0          0          1      )       (  0.0000000 )

 cart.    s( 4) = ( -1.0000000  0.0000000  0.0000000 )    f =( -0.3333336 )
                  (  0.0000000  1.0000000  0.0000000 )       (  0.0000000 )
                  (  0.0000000  0.0000000  1.0000000 )       (  0.0000000 )


      isym =  5     inv. 180 deg rotation - cryst. axis [0,1,0]  

 cryst.   s( 5) = (     1          1          0      )
                  (     0         -1          0      )
                  (     0          0          1      )

 cart.    s( 5) = (  0.5000000  0.8660254  0.0000000 )
                  (  0.8660254 -0.5000000  0.0000000 )
                  (  0.0000000  0.0000000  1.0000000 )


      isym =  6     inv. 180 deg rotation - cryst. axis [1,1,0]  

 cryst.   s( 6) = (     0         -1          0      )    f =( -0.3333334 )
                  (    -1          0          0      )       ( -0.3333334 )
                  (     0          0          1      )       (  0.0000000 )

 cart.    s( 6) = (  0.5000000 -0.8660254  0.0000000 )    f =( -0.1666667 )
                  ( -0.8660254 -0.5000000  0.0000000 )       ( -0.2886752 )
                  (  0.0000000  0.0000000  1.0000000 )       (  0.0000000 )


     point group C_3v (3m)  
     there are  3 classes
     the character table:

       E     2C3   3s_v 
A_1    1.00  1.00  1.00
A_2    1.00  1.00 -1.00
E      2.00 -1.00  0.00

     the symmetry operations in each class and the name of the first element:

     E        1
          identity                                               
     2C3      2    3
          120 deg rotation - cryst. axis [0,0,1]                 
     3s_v     4    5    6
          inv. 180 deg rotation - cart. axis [1,0,0]             

   Cartesian axes

     site n.     atom                  positions (alat units)
         1           Ga  tau(   1) = (   0.1666668   0.0962250   0.2711914  )
         2           Ga  tau(   2) = (   0.1666668   0.0962250   0.8144844  )
         3           Ga  tau(   3) = (   0.0000001   0.3849001   0.2711914  )
         4           Ga  tau(   4) = (   0.0000001   0.3849001   0.8144844  )
         5           Ga  tau(   5) = (  -0.1666665   0.6735752   0.2711914  )
         6           Ga  tau(   6) = (  -0.1666665   0.6735752   0.8144844  )
         7           Ga  tau(   7) = (   0.5000001   0.0962250   0.2711914  )
         8           Ga  tau(   8) = (   0.5000001   0.0962250   0.8144844  )
         9           Ga  tau(   9) = (   0.3333335   0.3849001   0.2711914  )
        10           Ga  tau(  10) = (   0.3333335   0.3849001   0.8144844  )
        11           Ga  tau(  11) = (   0.1666668   0.6735752   0.2711914  )
        12           Ga  tau(  12) = (   0.1666668   0.6735752   0.8144844  )
        13           Ga  tau(  13) = (   0.8333335   0.0962250   0.2711914  )
        14           Ga  tau(  14) = (   0.8333335   0.0962250   0.8144844  )
        15           Ga  tau(  15) = (   0.6666668   0.3849001   0.2711914  )
        16           Ga  tau(  16) = (   0.6666668   0.3849001   0.8144844  )
        17           Ga  tau(  17) = (   0.5000001   0.6735752   0.2711914  )
        18           Ga  tau(  18) = (   0.5000001   0.6735752   0.8144844  )
        19           Ga  tau(  19) = (  -0.0000002   0.1924502   0.5428379  )
        20           Ga  tau(  20) = (  -0.0000002   0.1924502   1.0861309  )
        21           Ga  tau(  21) = (  -0.1666669   0.4811254   0.5428379  )
        22           Ga  tau(  22) = (  -0.1666669   0.4811254   1.0861309  )
        23           Ga  tau(  23) = (  -0.3333335   0.7698005   0.5428379  )
        24           Ga  tau(  24) = (  -0.3333335   0.7698005   1.0861309  )
        25           Ga  tau(  25) = (   0.3333331   0.1924502   0.5428379  )
        26           Ga  tau(  26) = (   0.3333331   0.1924502   1.0861309  )
        27           Ga  tau(  27) = (   0.1666665   0.4811254   0.5428379  )
        28           Ga  tau(  28) = (   0.1666665   0.4811254   1.0861309  )
        29           Ga  tau(  29) = (  -0.0000002   0.7698005   0.5428379  )
        30           Ga  tau(  30) = (  -0.0000002   0.7698005   1.0861309  )
        31           Ga  tau(  31) = (   0.6666665   0.1924502   0.5428379  )
        32           Ga  tau(  32) = (   0.6666665   0.1924502   1.0861309  )
        33           Ga  tau(  33) = (   0.4999998   0.4811254   0.5428379  )
        34           Ga  tau(  34) = (   0.4999998   0.4811254   1.0861309  )
        35           Ga  tau(  35) = (   0.3333331   0.7698005   0.5428379  )
        36           Ga  tau(  36) = (   0.3333331   0.7698005   1.0861309  )
        37           N   tau(  37) = (   0.1666668   0.0962250   1.0191295  )
        38           N   tau(  38) = (   0.0000001   0.3849001   0.4758365  )
        39           N   tau(  39) = (   0.0000001   0.3849001   1.0191295  )
        40           N   tau(  40) = (  -0.1666665   0.6735752   0.4758365  )
        41           N   tau(  41) = (  -0.1666665   0.6735752   1.0191295  )
        42           N   tau(  42) = (   0.5000001   0.0962250   0.4758365  )
        43           N   tau(  43) = (   0.5000001   0.0962250   1.0191295  )
        44           N   tau(  44) = (   0.3333335   0.3849001   0.4758365  )
        45           N   tau(  45) = (   0.3333335   0.3849001   1.0191295  )
        46           N   tau(  46) = (   0.1666668   0.6735752   0.4758365  )
        47           N   tau(  47) = (   0.1666668   0.6735752   1.0191295  )
        48           N   tau(  48) = (   0.8333335   0.0962250   0.4758365  )
        49           N   tau(  49) = (   0.8333335   0.0962250   1.0191295  )
        50           N   tau(  50) = (   0.6666668   0.3849001   0.4758365  )
        51           N   tau(  51) = (   0.6666668   0.3849001   1.0191295  )
        52           N   tau(  52) = (   0.5000001   0.6735752   0.4758365  )
        53           N   tau(  53) = (   0.5000001   0.6735752   1.0191295  )
        54           N   tau(  54) = (  -0.0000002   0.1924502   0.2041900  )
        55           N   tau(  55) = (  -0.0000002   0.1924502   0.7474830  )
        56           N   tau(  56) = (  -0.1666669   0.4811254   0.2041900  )
        57           N   tau(  57) = (  -0.1666669   0.4811254   0.7474830  )
        58           N   tau(  58) = (  -0.3333335   0.7698005   0.2041900  )
        59           N   tau(  59) = (  -0.3333335   0.7698005   0.7474830  )
        60           N   tau(  60) = (   0.3333331   0.1924502   0.2041900  )
        61           N   tau(  61) = (   0.3333331   0.1924502   0.7474830  )
        62           N   tau(  62) = (   0.1666665   0.4811254   0.2041900  )
        63           N   tau(  63) = (   0.1666665   0.4811254   0.7474830  )
        64           N   tau(  64) = (  -0.0000002   0.7698005   0.2041900  )
        65           N   tau(  65) = (  -0.0000002   0.7698005   0.7474830  )
        66           N   tau(  66) = (   0.6666665   0.1924502   0.2041900  )
        67           N   tau(  67) = (   0.6666665   0.1924502   0.7474830  )
        68           N   tau(  68) = (   0.4999998   0.4811254   0.2041900  )
        69           N   tau(  69) = (   0.4999998   0.4811254   0.7474830  )
        70           N   tau(  70) = (   0.3333331   0.7698005   0.2041900  )
        71           N   tau(  71) = (   0.3333331   0.7698005   0.7474830  )

   Crystallographic axes

     site n.     atom                  positions (cryst. coord.)
         1           Ga  tau(   1) = (  0.2222223  0.1111110  0.2495811  )
         2           Ga  tau(   2) = (  0.2222223  0.1111110  0.7495811  )
         3           Ga  tau(   3) = (  0.2222223  0.4444444  0.2495811  )
         4           Ga  tau(   4) = (  0.2222223  0.4444444  0.7495811  )
         5           Ga  tau(   5) = (  0.2222223  0.7777777  0.2495811  )
         6           Ga  tau(   6) = (  0.2222223  0.7777777  0.7495811  )
         7           Ga  tau(   7) = (  0.5555557  0.1111110  0.2495811  )
         8           Ga  tau(   8) = (  0.5555557  0.1111110  0.7495811  )
         9           Ga  tau(   9) = (  0.5555557  0.4444444  0.2495811  )
        10           Ga  tau(  10) = (  0.5555557  0.4444444  0.7495811  )
        11           Ga  tau(  11) = (  0.5555557  0.7777777  0.2495811  )
        12           Ga  tau(  12) = (  0.5555557  0.7777777  0.7495811  )
        13           Ga  tau(  13) = (  0.8888890  0.1111110  0.2495811  )
        14           Ga  tau(  14) = (  0.8888890  0.1111110  0.7495811  )
        15           Ga  tau(  15) = (  0.8888890  0.4444444  0.2495811  )
        16           Ga  tau(  16) = (  0.8888890  0.4444444  0.7495811  )
        17           Ga  tau(  17) = (  0.8888890  0.7777777  0.2495811  )
        18           Ga  tau(  18) = (  0.8888890  0.7777777  0.7495811  )
        19           Ga  tau(  19) = (  0.1111110  0.2222224  0.4995811  )
        20           Ga  tau(  20) = (  0.1111110  0.2222224  0.9995811  )
        21           Ga  tau(  21) = (  0.1111110  0.5555557  0.4995811  )
        22           Ga  tau(  22) = (  0.1111110  0.5555557  0.9995811  )
        23           Ga  tau(  23) = (  0.1111110  0.8888891  0.4995811  )
        24           Ga  tau(  24) = (  0.1111110  0.8888891  0.9995811  )
        25           Ga  tau(  25) = (  0.4444443  0.2222224  0.4995811  )
        26           Ga  tau(  26) = (  0.4444443  0.2222224  0.9995811  )
        27           Ga  tau(  27) = (  0.4444443  0.5555557  0.4995811  )
        28           Ga  tau(  28) = (  0.4444443  0.5555557  0.9995811  )
        29           Ga  tau(  29) = (  0.4444443  0.8888891  0.4995811  )
        30           Ga  tau(  30) = (  0.4444443  0.8888891  0.9995811  )
        31           Ga  tau(  31) = (  0.7777777  0.2222224  0.4995811  )
        32           Ga  tau(  32) = (  0.7777777  0.2222224  0.9995811  )
        33           Ga  tau(  33) = (  0.7777777  0.5555557  0.4995811  )
        34           Ga  tau(  34) = (  0.7777777  0.5555557  0.9995811  )
        35           Ga  tau(  35) = (  0.7777777  0.8888891  0.4995811  )
        36           Ga  tau(  36) = (  0.7777777  0.8888891  0.9995811  )
        37           N   tau(  37) = (  0.2222223  0.1111110  0.9379189  )
        38           N   tau(  38) = (  0.2222223  0.4444444  0.4379189  )
        39           N   tau(  39) = (  0.2222223  0.4444444  0.9379189  )
        40           N   tau(  40) = (  0.2222223  0.7777777  0.4379189  )
        41           N   tau(  41) = (  0.2222223  0.7777777  0.9379189  )
        42           N   tau(  42) = (  0.5555557  0.1111110  0.4379189  )
        43           N   tau(  43) = (  0.5555557  0.1111110  0.9379189  )
        44           N   tau(  44) = (  0.5555557  0.4444444  0.4379189  )
        45           N   tau(  45) = (  0.5555557  0.4444444  0.9379189  )
        46           N   tau(  46) = (  0.5555557  0.7777777  0.4379189  )
        47           N   tau(  47) = (  0.5555557  0.7777777  0.9379189  )
        48           N   tau(  48) = (  0.8888890  0.1111110  0.4379189  )
        49           N   tau(  49) = (  0.8888890  0.1111110  0.9379189  )
        50           N   tau(  50) = (  0.8888890  0.4444444  0.4379189  )
        51           N   tau(  51) = (  0.8888890  0.4444444  0.9379189  )
        52           N   tau(  52) = (  0.8888890  0.7777777  0.4379189  )
        53           N   tau(  53) = (  0.8888890  0.7777777  0.9379189  )
        54           N   tau(  54) = (  0.1111110  0.2222224  0.1879189  )
        55           N   tau(  55) = (  0.1111110  0.2222224  0.6879189  )
        56           N   tau(  56) = (  0.1111110  0.5555557  0.1879189  )
        57           N   tau(  57) = (  0.1111110  0.5555557  0.6879189  )
        58           N   tau(  58) = (  0.1111110  0.8888891  0.1879189  )
        59           N   tau(  59) = (  0.1111110  0.8888891  0.6879189  )
        60           N   tau(  60) = (  0.4444443  0.2222224  0.1879189  )
        61           N   tau(  61) = (  0.4444443  0.2222224  0.6879189  )
        62           N   tau(  62) = (  0.4444443  0.5555557  0.1879189  )
        63           N   tau(  63) = (  0.4444443  0.5555557  0.6879189  )
        64           N   tau(  64) = (  0.4444443  0.8888891  0.1879189  )
        65           N   tau(  65) = (  0.4444443  0.8888891  0.6879189  )
        66           N   tau(  66) = (  0.7777777  0.2222224  0.1879189  )
        67           N   tau(  67) = (  0.7777777  0.2222224  0.6879189  )
        68           N   tau(  68) = (  0.7777777  0.5555557  0.1879189  )
        69           N   tau(  69) = (  0.7777777  0.5555557  0.6879189  )
        70           N   tau(  70) = (  0.7777777  0.8888891  0.1879189  )
        71           N   tau(  71) = (  0.7777777  0.8888891  0.6879189  )

     number of k points=     4  Gaussian smearing, width (Ry)=  0.0100
                       cart. coord. in units 2pi/alat
        k(    1) = (   0.0000000   0.0000000   0.0000000), wk =   0.2500000
        k(    2) = (   0.0000000   0.0000000  -0.4601568), wk =   0.2500000
        k(    3) = (   0.0000000  -0.5773503   0.0000000), wk =   0.7500000
        k(    4) = (   0.0000000  -0.5773503  -0.4601568), wk =   0.7500000

                       cryst. coord.
        k(    1) = (   0.0000000   0.0000000   0.0000000), wk =   0.2500000
        k(    2) = (   0.0000000   0.0000000  -0.5000000), wk =   0.2500000
        k(    3) = (   0.0000000  -0.5000000   0.0000000), wk =   0.7500000
        k(    4) = (   0.0000000  -0.5000000  -0.5000000), wk =   0.7500000

     Dense  grid:   647327 G-vectors     FFT dimensions: ( 120, 120, 120)

     Smooth grid:   463355 G-vectors     FFT dimensions: ( 108, 108, 108)

     Dynamical RAM for                 wfc:      11.37 MB

     Dynamical RAM for     wfc (w. buffer):      34.10 MB

     Dynamical RAM for           str. fact:       0.66 MB

     Dynamical RAM for           local pot:       0.00 MB

     Dynamical RAM for          nlocal pot:      27.33 MB

     Dynamical RAM for                qrad:       3.00 MB

     Dynamical RAM for          rho,v,vnew:       2.31 MB

     Dynamical RAM for               rhoin:       0.77 MB

     Dynamical RAM for            rho*nmix:       5.27 MB

     Dynamical RAM for           G-vectors:       1.35 MB

     Dynamical RAM for          h,s,v(r/c):     109.13 MB

     Dynamical RAM for          <psi|beta>:       5.47 MB

     Dynamical RAM for                 psi:      45.47 MB

     Dynamical RAM for                hpsi:      45.47 MB

     Dynamical RAM for                spsi:      45.47 MB

     Dynamical RAM for      wfcinit/wfcrot:      32.26 MB

     Dynamical RAM for           addusdens:      36.71 MB

     Dynamical RAM for          addusforce:      48.37 MB

     Dynamical RAM for         addusstress:      33.17 MB

     Estimated static dynamical RAM per process >      72.70 MB

     Estimated max dynamical RAM per process >     328.98 MB

     Estimated total dynamical RAM >      19.12 GB

     Check: negative core charge=   -0.000003

     Initial potential from superposition of free atoms

     starting charge     642.8934, renormalised to     643.0000


     %%%%%%%%%%%%%%%%%%%%%%%%%%%%%%%%%%%%%%%%%%%%%%%%%%%%%%%%%%%%%%%%%%%%%%%%
     %                                                                      %
     % You are using vdW-DF, which was implemented by the Thonhauser group. %
     % Please cite the following two papers that made this development      %
     % possible and the two reviews that describe the various versions:     %
     %                                                                      %
     %   T. Thonhauser et al., PRL 115, 136402 (2015).                      %
     %   T. Thonhauser et al., PRB 76, 125112 (2007).                       %
     %   K. Berland et al., Rep. Prog. Phys. 78, 066501 (2015).             %
     %   D.C. Langreth et al., J. Phys.: Condens. Matter 21, 084203 (2009). %
     %                                                                      %
     % If you are calculating stress with vdW-DF, please also cite:         %
     %                                                                      %
     %   R. Sabatini et al., J. Phys.: Condens. Matter 24, 424209 (2012).   %
     %                                                                      %
     %%%%%%%%%%%%%%%%%%%%%%%%%%%%%%%%%%%%%%%%%%%%%%%%%%%%%%%%%%%%%%%%%%%%%%%%

     %%%%%%%%%%%%%%%%%%%%%%%%%%%%%%%%%%%%%%%%%%%%%%%%%%%%%%%%%%%%%%%%%%%%%%%%
     %                                                                      %
     %  vdW-DF NEWS:                                                        %
     %                                                                      %
     %  * vdW-DF3 is now available. DOI: 10.1021/acs.jctc.0c00471           %
     %    use with input_dft = 'vdW-DF3-opt1' or 'vdW-DF3-opt2'             %
     %                                                                      %
     %  * Unscreened and range-separated vdW-DF hybrid functionals          %
     %    DOI: 10.1063/1.4986522 and 10.1088/1361-648X/ac2ad2               %
     %    use with input_dft = 'vdW-DF-cx0' (etc) and 'vdW-DF-ahcx'         %
     %                                                                      %
     %%%%%%%%%%%%%%%%%%%%%%%%%%%%%%%%%%%%%%%%%%%%%%%%%%%%%%%%%%%%%%%%%%%%%%%%


     Carrying out vdW-DF run using the following parameters:
     Nqs    =  20  Npoints =  1024  r_max =  100.000
     q_mesh =  0.00001000  0.04494208  0.09755937  0.15916263
               0.23128650  0.31572767  0.41458969  0.53033537
               0.66584808  0.82450364  1.01025438  1.22772762
               1.48234092  1.78043706  2.12944203  2.53805004
               3.01644009  3.57652955  4.23227104  5.00000000


     -----------------------------------------------
     Non-local corr. energy    =      18.58471167 Ry
     -----------------------------------------------

     Starting wfcs are  464 randomized atomic wfcs
     Checking if some PAW data can be deallocated... 
       PAW data deallocated on   35 nodes for type:  1
       PAW data deallocated on   25 nodes for type:  2

     total cpu time spent up to now is        8.6 secs

     Self-consistent Calculation

     iteration #  1     ecut=    70.00 Ry     beta= 0.70
     Davidson diagonalization with overlap

---- Real-time Memory Report at c_bands before calling an iterative solver
           340 MiB given to the printing process from OS
             0 MiB allocation reported by mallinfo(arena+hblkhd)
       1970600 MiB available memory on the node where the printing process lives
------------------
     ethr =  1.00E-02,  avg # of iterations =  3.8


     -----------------------------------------------
     Non-local corr. energy    =      19.37302217 Ry
     -----------------------------------------------


     total cpu time spent up to now is       26.9 secs

     total energy              =  -11198.85298495 Ry
     estimated scf accuracy    <      23.32785712 Ry

     iteration #  2     ecut=    70.00 Ry     beta= 0.70
     Davidson diagonalization with overlap

---- Real-time Memory Report at c_bands before calling an iterative solver
           479 MiB given to the printing process from OS
             0 MiB allocation reported by mallinfo(arena+hblkhd)
       1970335 MiB available memory on the node where the printing process lives
------------------
     ethr =  3.63E-03,  avg # of iterations =  6.8


     -----------------------------------------------
     Non-local corr. energy    =      19.22265545 Ry
     -----------------------------------------------


     total cpu time spent up to now is       60.8 secs

     total energy              =  -11205.10866532 Ry
     estimated scf accuracy    <      39.74573376 Ry

     iteration #  3     ecut=    70.00 Ry     beta= 0.70
     Davidson diagonalization with overlap

---- Real-time Memory Report at c_bands before calling an iterative solver
           546 MiB given to the printing process from OS
             0 MiB allocation reported by mallinfo(arena+hblkhd)
       1970152 MiB available memory on the node where the printing process lives
------------------
     ethr =  3.63E-03,  avg # of iterations =  5.8


     -----------------------------------------------
     Non-local corr. energy    =      19.28982739 Ry
     -----------------------------------------------


     total cpu time spent up to now is       85.1 secs

     total energy              =  -11212.01922592 Ry
     estimated scf accuracy    <       7.93391790 Ry

     iteration #  4     ecut=    70.00 Ry     beta= 0.70
     Davidson diagonalization with overlap

---- Real-time Memory Report at c_bands before calling an iterative solver
           546 MiB given to the printing process from OS
             0 MiB allocation reported by mallinfo(arena+hblkhd)
       1970135 MiB available memory on the node where the printing process lives
------------------
     ethr =  1.23E-03,  avg # of iterations =  7.8


     -----------------------------------------------
     Non-local corr. energy    =      19.42434851 Ry
     -----------------------------------------------


     total cpu time spent up to now is      111.2 secs

     total energy              =  -11213.12713655 Ry
     estimated scf accuracy    <       0.40485999 Ry

     iteration #  5     ecut=    70.00 Ry     beta= 0.70
     Davidson diagonalization with overlap

---- Real-time Memory Report at c_bands before calling an iterative solver
           546 MiB given to the printing process from OS
             0 MiB allocation reported by mallinfo(arena+hblkhd)
       1970105 MiB available memory on the node where the printing process lives
------------------
     ethr =  6.30E-05,  avg # of iterations =  8.8


     -----------------------------------------------
     Non-local corr. energy    =      19.55632509 Ry
     -----------------------------------------------


     total cpu time spent up to now is      155.9 secs

     total energy              =  -11213.26141112 Ry
     estimated scf accuracy    <       0.16341763 Ry

     iteration #  6     ecut=    70.00 Ry     beta= 0.70
     Davidson diagonalization with overlap

---- Real-time Memory Report at c_bands before calling an iterative solver
           561 MiB given to the printing process from OS
             0 MiB allocation reported by mallinfo(arena+hblkhd)
       1970055 MiB available memory on the node where the printing process lives
------------------
     ethr =  2.54E-05,  avg # of iterations = 12.3


     -----------------------------------------------
     Non-local corr. energy    =      19.54738949 Ry
     -----------------------------------------------


     total cpu time spent up to now is      193.5 secs

     total energy              =  -11213.28157472 Ry
     estimated scf accuracy    <       0.04326694 Ry

     iteration #  7     ecut=    70.00 Ry     beta= 0.70
     Davidson diagonalization with overlap

---- Real-time Memory Report at c_bands before calling an iterative solver
           561 MiB given to the printing process from OS
             0 MiB allocation reported by mallinfo(arena+hblkhd)
       1970024 MiB available memory on the node where the printing process lives
------------------
     ethr =  6.73E-06,  avg # of iterations = 12.5


     -----------------------------------------------
     Non-local corr. energy    =      19.54488297 Ry
     -----------------------------------------------


     total cpu time spent up to now is      236.0 secs

     total energy              =  -11213.29193568 Ry
     estimated scf accuracy    <       0.01872415 Ry

     iteration #  8     ecut=    70.00 Ry     beta= 0.70
     Davidson diagonalization with overlap

---- Real-time Memory Report at c_bands before calling an iterative solver
           561 MiB given to the printing process from OS
             0 MiB allocation reported by mallinfo(arena+hblkhd)
       1970003 MiB available memory on the node where the printing process lives
------------------
     ethr =  2.91E-06,  avg # of iterations = 13.8


     -----------------------------------------------
     Non-local corr. energy    =      19.54554894 Ry
     -----------------------------------------------


     total cpu time spent up to now is      276.1 secs

     total energy              =  -11213.29522731 Ry
     estimated scf accuracy    <       0.00108820 Ry

     iteration #  9     ecut=    70.00 Ry     beta= 0.70
     Davidson diagonalization with overlap

---- Real-time Memory Report at c_bands before calling an iterative solver
           561 MiB given to the printing process from OS
             0 MiB allocation reported by mallinfo(arena+hblkhd)
       1969974 MiB available memory on the node where the printing process lives
------------------
     c_bands:  2 eigenvalues not converged
     ethr =  1.69E-07,  avg # of iterations = 19.8


     -----------------------------------------------
     Non-local corr. energy    =      19.54875547 Ry
     -----------------------------------------------


     total cpu time spent up to now is      332.7 secs

     total energy              =  -11213.29613184 Ry
     estimated scf accuracy    <       0.00063729 Ry

     iteration # 10     ecut=    70.00 Ry     beta= 0.70
     Davidson diagonalization with overlap

---- Real-time Memory Report at c_bands before calling an iterative solver
           577 MiB given to the printing process from OS
             0 MiB allocation reported by mallinfo(arena+hblkhd)
       1969926 MiB available memory on the node where the printing process lives
------------------
     ethr =  9.91E-08,  avg # of iterations = 10.8


     -----------------------------------------------
     Non-local corr. energy    =      19.54818253 Ry
     -----------------------------------------------


     total cpu time spent up to now is      364.1 secs

     total energy              =  -11213.29614278 Ry
     estimated scf accuracy    <       0.00011349 Ry

     iteration # 11     ecut=    70.00 Ry     beta= 0.70
     Davidson diagonalization with overlap

---- Real-time Memory Report at c_bands before calling an iterative solver
           577 MiB given to the printing process from OS
             0 MiB allocation reported by mallinfo(arena+hblkhd)
       1969919 MiB available memory on the node where the printing process lives
------------------
     ethr =  1.76E-08,  avg # of iterations =  6.0


     -----------------------------------------------
     Non-local corr. energy    =      19.54599415 Ry
     -----------------------------------------------


     total cpu time spent up to now is      405.5 secs

     total energy              =  -11213.29618999 Ry
     estimated scf accuracy    <       0.00016941 Ry

     iteration # 12     ecut=    70.00 Ry     beta= 0.70
     Davidson diagonalization with overlap

---- Real-time Memory Report at c_bands before calling an iterative solver
           579 MiB given to the printing process from OS
             0 MiB allocation reported by mallinfo(arena+hblkhd)
       1969917 MiB available memory on the node where the printing process lives
------------------
     ethr =  1.76E-08,  avg # of iterations = 11.5


     -----------------------------------------------
     Non-local corr. energy    =      19.54542333 Ry
     -----------------------------------------------


     total cpu time spent up to now is      439.2 secs

     total energy              =  -11213.29619753 Ry
     estimated scf accuracy    <       0.00004718 Ry

     iteration # 13     ecut=    70.00 Ry     beta= 0.70
     Davidson diagonalization with overlap

---- Real-time Memory Report at c_bands before calling an iterative solver
           579 MiB given to the printing process from OS
             0 MiB allocation reported by mallinfo(arena+hblkhd)
       1969913 MiB available memory on the node where the printing process lives
------------------
     ethr =  7.34E-09,  avg # of iterations =  9.8


     -----------------------------------------------
     Non-local corr. energy    =      19.54509578 Ry
     -----------------------------------------------


     total cpu time spent up to now is      469.0 secs

     total energy              =  -11213.29619516 Ry
     estimated scf accuracy    <       0.00002849 Ry

     iteration # 14     ecut=    70.00 Ry     beta= 0.70
     Davidson diagonalization with overlap

---- Real-time Memory Report at c_bands before calling an iterative solver
           579 MiB given to the printing process from OS
             0 MiB allocation reported by mallinfo(arena+hblkhd)
       1969911 MiB available memory on the node where the printing process lives
------------------
     ethr =  4.43E-09,  avg # of iterations =  9.8


     -----------------------------------------------
     Non-local corr. energy    =      19.54409952 Ry
     -----------------------------------------------


     total cpu time spent up to now is      500.2 secs

     total energy              =  -11213.29619483 Ry
     estimated scf accuracy    <       0.00001504 Ry

     iteration # 15     ecut=    70.00 Ry     beta= 0.70
     Davidson diagonalization with overlap

---- Real-time Memory Report at c_bands before calling an iterative solver
           579 MiB given to the printing process from OS
             0 MiB allocation reported by mallinfo(arena+hblkhd)
       1969858 MiB available memory on the node where the printing process lives
------------------
     ethr =  2.34E-09,  avg # of iterations =  6.0


     -----------------------------------------------
     Non-local corr. energy    =      19.54405591 Ry
     -----------------------------------------------


     total cpu time spent up to now is      530.7 secs

     total energy              =  -11213.29619988 Ry
     estimated scf accuracy    <       0.00000081 Ry

     iteration # 16     ecut=    70.00 Ry     beta= 0.70
     Davidson diagonalization with overlap

---- Real-time Memory Report at c_bands before calling an iterative solver
           579 MiB given to the printing process from OS
             0 MiB allocation reported by mallinfo(arena+hblkhd)
       1969897 MiB available memory on the node where the printing process lives
------------------
     ethr =  1.26E-10,  avg # of iterations = 12.0


     -----------------------------------------------
     Non-local corr. energy    =      19.54424814 Ry
     -----------------------------------------------


     total cpu time spent up to now is      573.3 secs

     total energy              =  -11213.29619988 Ry
     estimated scf accuracy    <       0.00000089 Ry

     iteration # 17     ecut=    70.00 Ry     beta= 0.70
     Davidson diagonalization with overlap

---- Real-time Memory Report at c_bands before calling an iterative solver
           579 MiB given to the printing process from OS
             0 MiB allocation reported by mallinfo(arena+hblkhd)
       1969896 MiB available memory on the node where the printing process lives
------------------
     ethr =  1.26E-10,  avg # of iterations =  4.0


     -----------------------------------------------
     Non-local corr. energy    =      19.54443547 Ry
     -----------------------------------------------


     total cpu time spent up to now is      590.6 secs

     total energy              =  -11213.29619982 Ry
     estimated scf accuracy    <       0.00000034 Ry

     iteration # 18     ecut=    70.00 Ry     beta= 0.70
     Davidson diagonalization with overlap

---- Real-time Memory Report at c_bands before calling an iterative solver
           579 MiB given to the printing process from OS
             0 MiB allocation reported by mallinfo(arena+hblkhd)
       1969886 MiB available memory on the node where the printing process lives
------------------
     ethr =  5.33E-11,  avg # of iterations =  6.5


     -----------------------------------------------
     Non-local corr. energy    =      19.54440376 Ry
     -----------------------------------------------


     total cpu time spent up to now is      623.3 secs

     End of self-consistent calculation

          k = 0.0000 0.0000 0.0000 ( 57971 PWs)   bands (ev):

    -6.9284  -6.6160  -6.5996  -6.5943  -6.5943  -6.5459  -6.5458  -6.5342
    -6.5052  -6.5052  -6.4915  -6.4845  -6.4845  -6.4681  -6.4676  -6.4398
    -6.4371  -6.4370  -6.4131  -6.4053  -6.4053  -6.4017  -6.3907  -6.3894
    -6.3851  -6.3851  -6.3823  -6.3822  -6.3785  -6.3785  -6.3585  -6.3576
    -6.3576  -6.3574  -6.3403  -5.5699  -5.5540  -5.5540  -5.4676  -5.4676
    -5.4476  -5.4297  -5.4297  -5.4093  -5.4093  -5.4056  -5.3888  -5.3888
    -5.3813  -5.3812  -5.3779  -5.3756  -5.3542  -5.3480  -5.3480  -5.3115
    -5.3054  -5.3054  -5.2974  -5.2974  -5.2963  -5.2963  -5.2845  -5.2833
    -5.2833  -5.2758  -5.2758  -5.2730  -5.2713  -5.2665  -5.2665  -5.2628
    -5.2617  -5.2617  -5.2590  -5.2590  -5.2513  -5.2513  -5.2504  -5.2496
    -5.2446  -5.2446  -5.2323  -5.2323  -5.2305  -5.2282  -5.2282  -5.2232
    -5.2232  -5.2229  -5.2163  -5.2107  -5.2107  -5.2058  -5.2053  -5.2053
    -5.2035  -5.2026  -5.1999  -5.1988  -5.1988  -5.1947  -5.1947  -5.1912
    -5.1912  -5.1822  -5.1822  -5.1800  -5.1764  -5.1713  -5.1713  -5.1660
    -5.1660  -5.1621  -5.1598  -5.1597  -5.1597  -5.1530  -5.1518  -5.1518
    -5.1478  -5.1478  -5.1473  -5.1459  -5.1422  -5.1422  -5.1391  -5.1391
    -5.1334  -5.1316  -5.1316  -5.1311  -5.1300  -5.1272  -5.1272  -5.1240
    -5.1198  -5.1198  -5.1191  -5.1178  -5.1178  -5.1138  -5.1138  -5.1119
    -5.1119  -5.1098  -5.1098  -5.1077  -5.1047  -5.0987  -5.0987  -5.0947
    -5.0947  -5.0943  -5.0930  -5.0930  -5.0881  -5.0862  -5.0862  -5.0819
    -5.0764  -5.0764  -5.0732  -5.0713  -5.0681  -5.0681  -5.0625  -5.0625
    -5.0598  -5.0560  -5.0560  -5.0544  -5.0544  -5.0468  -5.0468  -5.0449
    -5.0236  -5.0236  -5.0225  -5.0181  -5.0181  -4.8571  -4.8214  -4.5053
    -4.5053  -4.4866  -4.4866  -4.4658  -4.3713  -3.9787  -3.9787  -3.9525
    -3.9447  -3.9447  -3.9349  -3.9349  -3.9053  -3.9029  -3.9029  -3.8938
    -3.6539  -3.4832  -3.2007  -3.1622  -3.1622  -3.1317  -3.1317  -3.0995
    -3.0982  -3.0749  -3.0429  -3.0429  -3.0181  -3.0181  -2.9918   2.0367
     2.3962   2.7442   2.7890   2.7890   2.7891   2.9406   2.9407   2.9711
     2.9785   2.9785   3.0407   3.3704   3.3704   3.3821   3.3822   3.3907
     3.3980   3.3981   3.4208   3.4249   3.4250   3.4413   3.4588   3.5122
     3.6108   3.6108   3.8911   3.8911   3.9938   4.1182   4.1182   4.2273
     4.2273   4.2416   4.5866   4.8084   4.8084   4.8394   4.8394   4.8759
     4.8759   4.8819   4.9088   5.0521   5.1526   5.1527   5.9077   5.9199
     5.9199   6.0866   6.1808   6.1808   6.4258   6.4677   6.4726   6.4726
     6.5498   6.5498   6.5561   6.7101   6.7101   6.7156   6.7157   6.7413
     6.7519   6.7519   6.7687   6.8084   6.8085   7.0586   7.1170   7.1265
     7.1266   7.1362   7.1517   7.1753   7.1753   7.1802   7.1802   7.1927
     7.2766   7.2766   7.2785   7.3579   7.4846   7.4847   7.5309   7.5309
     7.5584   7.5740   7.5740   7.7885   7.7886   7.9457   7.9581   7.9910
     7.9946   7.9946   8.1228   8.1229   8.1894   8.1894   8.5565   8.6439
     8.6440  10.5601  11.2479  11.7868  11.7870  12.6171  12.6797  12.7831
    13.2945  13.2946  13.3049  13.3505  13.4148  13.4148  13.4497  13.4498
    13.4576  13.4595  13.4596  13.4693  13.4693  13.4801  13.7106  13.7106
    13.9229  14.1216  14.1777  14.1777  14.2327  14.2328  14.3149  14.3150
    14.3169  14.7303  14.8128  14.8533  14.8533  15.4365  15.4393  15.4393
    15.4505  15.4505  15.7076  15.9110  15.9267  15.9799  15.9799  16.1093
    16.1218  16.1218  16.1349  16.1423  16.1423  16.1634  16.1634  16.1757
    16.1757  16.1787  16.1787  16.1883  16.5678  16.5678  16.5997  16.8035
    16.8476  16.8477

     occupation numbers 
     1.0000   1.0000   1.0000   1.0000   1.0000   1.0000   1.0000   1.0000
     1.0000   1.0000   1.0000   1.0000   1.0000   1.0000   1.0000   1.0000
     1.0000   1.0000   1.0000   1.0000   1.0000   1.0000   1.0000   1.0000
     1.0000   1.0000   1.0000   1.0000   1.0000   1.0000   1.0000   1.0000
     1.0000   1.0000   1.0000   1.0000   1.0000   1.0000   1.0000   1.0000
     1.0000   1.0000   1.0000   1.0000   1.0000   1.0000   1.0000   1.0000
     1.0000   1.0000   1.0000   1.0000   1.0000   1.0000   1.0000   1.0000
     1.0000   1.0000   1.0000   1.0000   1.0000   1.0000   1.0000   1.0000
     1.0000   1.0000   1.0000   1.0000   1.0000   1.0000   1.0000   1.0000
     1.0000   1.0000   1.0000   1.0000   1.0000   1.0000   1.0000   1.0000
     1.0000   1.0000   1.0000   1.0000   1.0000   1.0000   1.0000   1.0000
     1.0000   1.0000   1.0000   1.0000   1.0000   1.0000   1.0000   1.0000
     1.0000   1.0000   1.0000   1.0000   1.0000   1.0000   1.0000   1.0000
     1.0000   1.0000   1.0000   1.0000   1.0000   1.0000   1.0000   1.0000
     1.0000   1.0000   1.0000   1.0000   1.0000   1.0000   1.0000   1.0000
     1.0000   1.0000   1.0000   1.0000   1.0000   1.0000   1.0000   1.0000
     1.0000   1.0000   1.0000   1.0000   1.0000   1.0000   1.0000   1.0000
     1.0000   1.0000   1.0000   1.0000   1.0000   1.0000   1.0000   1.0000
     1.0000   1.0000   1.0000   1.0000   1.0000   1.0000   1.0000   1.0000
     1.0000   1.0000   1.0000   1.0000   1.0000   1.0000   1.0000   1.0000
     1.0000   1.0000   1.0000   1.0000   1.0000   1.0000   1.0000   1.0000
     1.0000   1.0000   1.0000   1.0000   1.0000   1.0000   1.0000   1.0000
     1.0000   1.0000   1.0000   1.0000   1.0000   1.0000   1.0000   1.0000
     1.0000   1.0000   1.0000   1.0000   1.0000   1.0000   1.0000   1.0000
     1.0000   1.0000   1.0000   1.0000   1.0000   1.0000   1.0000   1.0000
     1.0000   1.0000   1.0000   1.0000   1.0000   1.0000   1.0000   1.0000
     1.0000   1.0000   1.0000   1.0000   1.0000   1.0000   1.0000   1.0000
     1.0000   1.0000   1.0000   1.0000   1.0000   1.0000   1.0000   1.0000
     1.0000   1.0000   1.0000   1.0000   1.0000   1.0000   1.0000   1.0000
     1.0000   1.0000   1.0000   1.0000   1.0000   1.0000   1.0000   1.0000
     1.0000   1.0000   1.0000   1.0000   1.0000   1.0000   1.0000   1.0000
     1.0000   1.0000   1.0000   1.0000   1.0000   1.0000   1.0000   1.0000
     1.0000   1.0000   1.0000   1.0000   1.0000   1.0000   1.0000   1.0000
     1.0000   1.0000   1.0000   1.0000   1.0000   1.0000   1.0000   1.0000
     1.0000   1.0000   1.0000   1.0000   1.0000   1.0000   1.0000   1.0000
     1.0000   1.0000   1.0000   1.0000   1.0000   1.0000   1.0000   1.0000
     1.0000   1.0000   1.0000   1.0000   1.0000   1.0000   1.0000   1.0000
     1.0000   1.0000   1.0000   1.0000   1.0000   1.0000   1.0000   1.0000
     1.0000   1.0000   1.0000   1.0000   1.0000   1.0000   1.0000   1.0000
     1.0000   1.0000   1.0000   1.0000   1.0000   1.0000   1.0000   1.0000
     1.0000   0.9997   0.0001   0.0000   0.0000   0.0000   0.0000   0.0000
     0.0000   0.0000   0.0000   0.0000   0.0000   0.0000   0.0000   0.0000
     0.0000   0.0000   0.0000   0.0000   0.0000   0.0000   0.0000   0.0000
     0.0000   0.0000   0.0000   0.0000   0.0000   0.0000   0.0000   0.0000
     0.0000   0.0000   0.0000   0.0000   0.0000   0.0000   0.0000   0.0000
     0.0000   0.0000   0.0000   0.0000   0.0000   0.0000   0.0000   0.0000
     0.0000   0.0000   0.0000   0.0000   0.0000   0.0000   0.0000   0.0000
     0.0000   0.0000   0.0000   0.0000   0.0000   0.0000   0.0000   0.0000
     0.0000   0.0000

          k = 0.0000 0.0000-0.4602 ( 58014 PWs)   bands (ev):

    -6.8167  -6.7983  -6.5768  -6.5768  -6.5528  -6.5312  -6.5312  -6.5202
    -6.5202  -6.5150  -6.4836  -6.4836  -6.4657  -6.4642  -6.4636  -6.4507
    -6.4477  -6.4476  -6.4391  -6.4051  -6.4051  -6.4035  -6.3988  -6.3988
    -6.3981  -6.3820  -6.3750  -6.3750  -6.3733  -6.3733  -6.3662  -6.3662
    -6.3612  -6.3543  -6.3439  -5.5697  -5.5536  -5.5536  -5.4670  -5.4670
    -5.4480  -5.4297  -5.4297  -5.4097  -5.4097  -5.4046  -5.3889  -5.3889
    -5.3802  -5.3802  -5.3748  -5.3628  -5.3527  -5.3489  -5.3489  -5.3075
    -5.3075  -5.2973  -5.2973  -5.2911  -5.2904  -5.2904  -5.2872  -5.2872
    -5.2738  -5.2738  -5.2733  -5.2717  -5.2717  -5.2678  -5.2668  -5.2668
    -5.2659  -5.2588  -5.2588  -5.2578  -5.2511  -5.2432  -5.2432  -5.2393
    -5.2389  -5.2360  -5.2360  -5.2333  -5.2333  -5.2288  -5.2288  -5.2283
    -5.2244  -5.2244  -5.2237  -5.2203  -5.2203  -5.2108  -5.2092  -5.2078
    -5.2078  -5.2042  -5.2042  -5.2039  -5.1970  -5.1970  -5.1953  -5.1900
    -5.1890  -5.1890  -5.1838  -5.1832  -5.1831  -5.1779  -5.1683  -5.1683
    -5.1668  -5.1660  -5.1660  -5.1600  -5.1600  -5.1577  -5.1577  -5.1538
    -5.1538  -5.1517  -5.1517  -5.1502  -5.1487  -5.1424  -5.1390  -5.1390
    -5.1358  -5.1358  -5.1331  -5.1308  -5.1308  -5.1242  -5.1242  -5.1220
    -5.1194  -5.1194  -5.1146  -5.1146  -5.1139  -5.1139  -5.1117  -5.1073
    -5.1065  -5.1065  -5.1036  -5.1036  -5.1033  -5.1016  -5.1013  -5.1013
    -5.0952  -5.0952  -5.0925  -5.0923  -5.0923  -5.0916  -5.0872  -5.0872
    -5.0846  -5.0773  -5.0773  -5.0756  -5.0723  -5.0723  -5.0684  -5.0681
    -5.0681  -5.0575  -5.0569  -5.0569  -5.0484  -5.0484  -5.0462  -5.0417
    -5.0417  -5.0274  -5.0274  -5.0245  -5.0215  -5.0215  -4.3897  -4.3896
    -4.3730  -4.3729  -4.3577  -4.3561  -4.3561  -4.3401  -4.3260  -4.3260
    -4.3155  -4.1996  -4.0627  -3.9236  -3.4016  -3.4016  -3.3536  -3.3536
    -3.3502  -3.3501  -3.3411  -3.3167  -3.3082  -3.3082  -3.2931  -3.2228
    -3.2006  -3.1411  -3.1411  -3.1256  -3.1256  -3.0996  -3.0932   2.2407
     2.9253   2.9414   2.9414   2.9423   2.9423   2.9513   2.9530   2.9653
     2.9653   2.9871   2.9872   2.9872   3.0116   3.0341   3.0495   3.0587
     3.0825   3.0825   3.2261   3.2261   3.2655   3.5280   4.0608   4.0608
     4.0908   4.0908   4.0994   4.0994   4.1084   4.1144   4.1145   4.1307
     4.1307   4.1362   4.1974   4.4369   4.4370   5.1783   5.2160   5.2160
     5.2264   5.2264   5.2477   5.2537   5.2537   5.2673   5.3647   5.3647
     5.5772   5.7230   5.7230   5.8176   5.8176   6.5237   6.5745   6.5990
     6.6170   6.6170   6.6299   6.6299   6.6382   6.6504   6.6504   6.6511
     6.6553   6.6553   6.6631   6.6910   6.6910   6.6927   6.8035   6.8755
     7.0400   7.0400   7.2363   7.5472   7.5473   7.5703   7.5824   7.5824
     7.5948   7.5948   7.6125   7.6127   7.6127   7.6262   7.6593   7.7098
     7.7170   7.7170   7.7214   7.7228   7.7229   7.7591   7.7592   7.7610
     7.7854   7.7854   7.8727   7.8728   8.3101   8.4029   8.4029   8.5706
     8.5707  10.8851  11.6877  11.7559  11.7560  12.0466  12.7268  12.7855
    12.9461  12.9461  12.9533  12.9533  12.9587  12.9600  12.9654  12.9654
    13.0872  13.3183  13.3183  13.8185  14.2607  14.2612  14.2613  14.2662
    14.2662  14.2724  14.2725  14.2889  14.3050  14.3051  14.5336  14.8383
    14.8383  14.9067  14.9067  15.1906  15.4330  15.4660  15.4689  15.4689
    15.4897  15.5406  15.5406  15.6363  15.6706  15.6783  15.6783  15.6815
    15.6815  15.6834  15.6834  15.6913  16.0321  16.0321  16.2928  16.5219
    16.5498  16.5585  16.5585  16.5706  16.5706  16.5750  16.5830  16.5830
    16.7963  16.7963

     occupation numbers 
     1.0000   1.0000   1.0000   1.0000   1.0000   1.0000   1.0000   1.0000
     1.0000   1.0000   1.0000   1.0000   1.0000   1.0000   1.0000   1.0000
     1.0000   1.0000   1.0000   1.0000   1.0000   1.0000   1.0000   1.0000
     1.0000   1.0000   1.0000   1.0000   1.0000   1.0000   1.0000   1.0000
     1.0000   1.0000   1.0000   1.0000   1.0000   1.0000   1.0000   1.0000
     1.0000   1.0000   1.0000   1.0000   1.0000   1.0000   1.0000   1.0000
     1.0000   1.0000   1.0000   1.0000   1.0000   1.0000   1.0000   1.0000
     1.0000   1.0000   1.0000   1.0000   1.0000   1.0000   1.0000   1.0000
     1.0000   1.0000   1.0000   1.0000   1.0000   1.0000   1.0000   1.0000
     1.0000   1.0000   1.0000   1.0000   1.0000   1.0000   1.0000   1.0000
     1.0000   1.0000   1.0000   1.0000   1.0000   1.0000   1.0000   1.0000
     1.0000   1.0000   1.0000   1.0000   1.0000   1.0000   1.0000   1.0000
     1.0000   1.0000   1.0000   1.0000   1.0000   1.0000   1.0000   1.0000
     1.0000   1.0000   1.0000   1.0000   1.0000   1.0000   1.0000   1.0000
     1.0000   1.0000   1.0000   1.0000   1.0000   1.0000   1.0000   1.0000
     1.0000   1.0000   1.0000   1.0000   1.0000   1.0000   1.0000   1.0000
     1.0000   1.0000   1.0000   1.0000   1.0000   1.0000   1.0000   1.0000
     1.0000   1.0000   1.0000   1.0000   1.0000   1.0000   1.0000   1.0000
     1.0000   1.0000   1.0000   1.0000   1.0000   1.0000   1.0000   1.0000
     1.0000   1.0000   1.0000   1.0000   1.0000   1.0000   1.0000   1.0000
     1.0000   1.0000   1.0000   1.0000   1.0000   1.0000   1.0000   1.0000
     1.0000   1.0000   1.0000   1.0000   1.0000   1.0000   1.0000   1.0000
     1.0000   1.0000   1.0000   1.0000   1.0000   1.0000   1.0000   1.0000
     1.0000   1.0000   1.0000   1.0000   1.0000   1.0000   1.0000   1.0000
     1.0000   1.0000   1.0000   1.0000   1.0000   1.0000   1.0000   1.0000
     1.0000   1.0000   1.0000   1.0000   1.0000   1.0000   1.0000   1.0000
     1.0000   1.0000   1.0000   1.0000   1.0000   1.0000   1.0000   1.0000
     1.0000   1.0000   1.0000   1.0000   1.0000   1.0000   1.0000   1.0000
     1.0000   1.0000   1.0000   1.0000   1.0000   1.0000   1.0000   1.0000
     1.0000   1.0000   1.0000   1.0000   1.0000   1.0000   1.0000   1.0000
     1.0000   1.0000   1.0000   1.0000   1.0000   1.0000   1.0000   1.0000
     1.0000   1.0000   1.0000   1.0000   1.0000   1.0000   1.0000   1.0000
     1.0000   1.0000   1.0000   1.0000   1.0000   1.0000   1.0000   1.0000
     1.0000   1.0000   1.0000   1.0000   1.0000   1.0000   1.0000   1.0000
     1.0000   1.0000   1.0000   1.0000   1.0000   1.0000   1.0000   1.0000
     1.0000   1.0000   1.0000   1.0000   1.0000   1.0000   1.0000   1.0000
     1.0000   1.0000   1.0000   1.0000   1.0000   1.0000   1.0000   1.0000
     1.0000   1.0000   1.0000   1.0000   1.0000   1.0000   1.0000   1.0000
     1.0000   1.0000   1.0000   1.0000   1.0000   1.0000   1.0000   1.0000
     1.0000   1.0000   1.0000   1.0000   1.0000   1.0000   1.0000   1.0000
     1.0000   0.5363   0.0000   0.0000   0.0000   0.0000   0.0000   0.0000
     0.0000   0.0000   0.0000   0.0000   0.0000   0.0000   0.0000   0.0000
     0.0000   0.0000   0.0000   0.0000   0.0000   0.0000   0.0000   0.0000
     0.0000   0.0000   0.0000   0.0000   0.0000   0.0000   0.0000   0.0000
     0.0000   0.0000   0.0000   0.0000   0.0000   0.0000   0.0000   0.0000
     0.0000   0.0000   0.0000   0.0000   0.0000   0.0000   0.0000   0.0000
     0.0000   0.0000   0.0000   0.0000   0.0000   0.0000   0.0000   0.0000
     0.0000   0.0000   0.0000   0.0000   0.0000   0.0000   0.0000   0.0000
     0.0000   0.0000

          k = 0.0000-0.5774 0.0000 ( 57942 PWs)   bands (ev):

    -6.7655  -6.7603  -6.6086  -6.5834  -6.5656  -6.5496  -6.5322  -6.5265
    -6.5186  -6.4965  -6.4941  -6.4902  -6.4871  -6.4755  -6.4620  -6.4368
    -6.4359  -6.4345  -6.4251  -6.4155  -6.4136  -6.4016  -6.4011  -6.3940
    -6.3882  -6.3864  -6.3816  -6.3753  -6.3690  -6.3676  -6.3661  -6.3660
    -6.3603  -6.3514  -6.3454  -5.5730  -5.5538  -5.5530  -5.4668  -5.4645
    -5.4462  -5.4218  -5.4216  -5.4126  -5.4079  -5.4052  -5.3973  -5.3956
    -5.3813  -5.3807  -5.3751  -5.3560  -5.3554  -5.3495  -5.3469  -5.3016
    -5.2988  -5.2926  -5.2899  -5.2897  -5.2876  -5.2840  -5.2823  -5.2780
    -5.2773  -5.2750  -5.2742  -5.2717  -5.2690  -5.2675  -5.2651  -5.2629
    -5.2605  -5.2578  -5.2541  -5.2524  -5.2515  -5.2500  -5.2499  -5.2468
    -5.2442  -5.2420  -5.2390  -5.2387  -5.2378  -5.2347  -5.2339  -5.2320
    -5.2300  -5.2299  -5.2262  -5.2228  -5.2192  -5.2182  -5.2169  -5.2131
    -5.2100  -5.2100  -5.2041  -5.2021  -5.2003  -5.2000  -5.1952  -5.1946
    -5.1926  -5.1886  -5.1870  -5.1851  -5.1809  -5.1753  -5.1743  -5.1688
    -5.1678  -5.1647  -5.1647  -5.1636  -5.1616  -5.1602  -5.1597  -5.1575
    -5.1545  -5.1497  -5.1489  -5.1484  -5.1462  -5.1441  -5.1406  -5.1386
    -5.1374  -5.1353  -5.1326  -5.1316  -5.1286  -5.1284  -5.1261  -5.1255
    -5.1228  -5.1218  -5.1206  -5.1198  -5.1162  -5.1155  -5.1153  -5.1131
    -5.1130  -5.1113  -5.1075  -5.1040  -5.1029  -5.1006  -5.0971  -5.0971
    -5.0951  -5.0946  -5.0916  -5.0867  -5.0835  -5.0821  -5.0797  -5.0788
    -5.0749  -5.0716  -5.0708  -5.0691  -5.0659  -5.0646  -5.0624  -5.0597
    -5.0592  -5.0554  -5.0526  -5.0525  -5.0519  -5.0479  -5.0448  -5.0423
    -5.0339  -5.0327  -5.0304  -5.0261  -5.0243  -5.0127  -4.7251  -4.7020
    -4.6178  -4.6038  -4.6003  -4.4926  -4.1440  -4.1377  -4.1306  -4.0443
    -3.8348  -3.8081  -3.8036  -3.7301  -3.6524  -3.4882  -3.4717  -3.4448
    -3.4439  -3.4282  -3.4130  -3.4120  -3.4071  -3.4010  -3.3952  -3.3832
    -3.1598  -3.1129  -3.0981  -2.9681  -2.9577  -2.9322  -2.9248   2.2500
     2.3671   2.3887   2.4343   2.4726   2.5584   2.7618   2.7745   2.7857
     2.7951   2.8016   2.8298   2.8395   2.8897   2.8986   2.9042   2.9715
     3.0295   3.0674   3.2508   3.6272   3.7675   3.8101   3.8407   3.8962
     3.9505   4.0215   4.0837   4.4336   4.7266   4.7357   4.7383   4.7460
     4.7578   4.7816   4.8030   4.8817   4.9484   5.0274   5.0881   5.1866
     5.3144   5.3597   5.3827   5.4300   5.7951   5.8114   5.8225   5.8387
     5.8456   5.8911   5.9441   5.9813   6.0521   6.2127   6.2334   6.3733
     6.4154   6.6120   6.6785   6.7071   6.7242   6.7450   6.7496   6.8100
     6.8434   6.8473   6.8560   6.8752   6.8901   6.9276   6.9406   6.9582
     6.9752   6.9832   6.9921   7.0166   7.0227   7.0548   7.0693   7.0868
     7.1108   7.1117   7.1211   7.1218   7.1252   7.1413   7.1527   7.1528
     7.1617   7.1690   7.2468   7.4919   7.6499   7.7082   7.7243   7.7578
     7.7893   7.8262   7.8415   7.8490   8.2399   8.3317   8.4043   8.4755
     8.6342  10.8473  11.3818  11.6115  12.0108  12.2103  13.0624  13.0869
    13.3190  13.4902  13.5054  13.5945  13.6433  13.6707  13.7947  13.8822
    13.9037  13.9589  13.9866  14.0019  14.0043  14.0133  14.0382  14.0488
    14.0990  14.1294  14.2247  14.2633  14.4204  14.5267  14.6202  14.6943
    14.7136  14.7358  14.7935  14.8183  14.9505  15.0201  15.2469  15.2476
    15.2991  15.3934  15.4463  15.6034  16.0266  16.0513  16.0822  16.0982
    16.1199  16.1533  16.1912  16.2240  16.2620  16.2628  16.2882  16.2900
    16.3250  16.3714  16.4285  16.4352  16.4491  16.4593  16.4607  16.5618
    16.5656  16.6453

     occupation numbers 
     1.0000   1.0000   1.0000   1.0000   1.0000   1.0000   1.0000   1.0000
     1.0000   1.0000   1.0000   1.0000   1.0000   1.0000   1.0000   1.0000
     1.0000   1.0000   1.0000   1.0000   1.0000   1.0000   1.0000   1.0000
     1.0000   1.0000   1.0000   1.0000   1.0000   1.0000   1.0000   1.0000
     1.0000   1.0000   1.0000   1.0000   1.0000   1.0000   1.0000   1.0000
     1.0000   1.0000   1.0000   1.0000   1.0000   1.0000   1.0000   1.0000
     1.0000   1.0000   1.0000   1.0000   1.0000   1.0000   1.0000   1.0000
     1.0000   1.0000   1.0000   1.0000   1.0000   1.0000   1.0000   1.0000
     1.0000   1.0000   1.0000   1.0000   1.0000   1.0000   1.0000   1.0000
     1.0000   1.0000   1.0000   1.0000   1.0000   1.0000   1.0000   1.0000
     1.0000   1.0000   1.0000   1.0000   1.0000   1.0000   1.0000   1.0000
     1.0000   1.0000   1.0000   1.0000   1.0000   1.0000   1.0000   1.0000
     1.0000   1.0000   1.0000   1.0000   1.0000   1.0000   1.0000   1.0000
     1.0000   1.0000   1.0000   1.0000   1.0000   1.0000   1.0000   1.0000
     1.0000   1.0000   1.0000   1.0000   1.0000   1.0000   1.0000   1.0000
     1.0000   1.0000   1.0000   1.0000   1.0000   1.0000   1.0000   1.0000
     1.0000   1.0000   1.0000   1.0000   1.0000   1.0000   1.0000   1.0000
     1.0000   1.0000   1.0000   1.0000   1.0000   1.0000   1.0000   1.0000
     1.0000   1.0000   1.0000   1.0000   1.0000   1.0000   1.0000   1.0000
     1.0000   1.0000   1.0000   1.0000   1.0000   1.0000   1.0000   1.0000
     1.0000   1.0000   1.0000   1.0000   1.0000   1.0000   1.0000   1.0000
     1.0000   1.0000   1.0000   1.0000   1.0000   1.0000   1.0000   1.0000
     1.0000   1.0000   1.0000   1.0000   1.0000   1.0000   1.0000   1.0000
     1.0000   1.0000   1.0000   1.0000   1.0000   1.0000   1.0000   1.0000
     1.0000   1.0000   1.0000   1.0000   1.0000   1.0000   1.0000   1.0000
     1.0000   1.0000   1.0000   1.0000   1.0000   1.0000   1.0000   1.0000
     1.0000   1.0000   1.0000   1.0000   1.0000   1.0000   1.0000   1.0000
     1.0000   1.0000   1.0000   1.0000   1.0000   1.0000   1.0000   1.0000
     1.0000   1.0000   1.0000   1.0000   1.0000   1.0000   1.0000   1.0000
     1.0000   1.0000   1.0000   1.0000   1.0000   1.0000   1.0000   1.0000
     1.0000   1.0000   1.0000   1.0000   1.0000   1.0000   1.0000   1.0000
     1.0000   1.0000   1.0000   1.0000   1.0000   1.0000   1.0000   1.0000
     1.0000   1.0000   1.0000   1.0000   1.0000   1.0000   1.0000   1.0000
     1.0000   1.0000   1.0000   1.0000   1.0000   1.0000   1.0000   1.0000
     1.0000   1.0000   1.0000   1.0000   1.0000   1.0000   1.0000   1.0000
     1.0000   1.0000   1.0000   1.0000   1.0000   1.0000   1.0000   1.0000
     1.0000   1.0000   1.0000   1.0000   1.0000   1.0000   1.0000   1.0000
     1.0000   1.0000   1.0000   1.0000   1.0000   1.0000   1.0000   1.0000
     1.0000   1.0000   1.0000   1.0000   1.0000   1.0000   1.0000   1.0000
     1.0000   1.0000   1.0000   1.0000   1.0000   1.0000   1.0000   1.0000
     1.0000   0.6860   0.0000   0.0000   0.0000   0.0000   0.0000   0.0000
     0.0000   0.0000   0.0000   0.0000   0.0000   0.0000   0.0000   0.0000
     0.0000   0.0000   0.0000   0.0000   0.0000   0.0000   0.0000   0.0000
     0.0000   0.0000   0.0000   0.0000   0.0000   0.0000   0.0000   0.0000
     0.0000   0.0000   0.0000   0.0000   0.0000   0.0000   0.0000   0.0000
     0.0000   0.0000   0.0000   0.0000   0.0000   0.0000   0.0000   0.0000
     0.0000   0.0000   0.0000   0.0000   0.0000   0.0000   0.0000   0.0000
     0.0000   0.0000   0.0000   0.0000   0.0000   0.0000   0.0000   0.0000
     0.0000   0.0000

          k = 0.0000-0.5774-0.4602 ( 57848 PWs)   bands (ev):

    -6.6916  -6.6873  -6.6674  -6.6440  -6.5834  -6.5518  -6.5392  -6.5279
    -6.5062  -6.5036  -6.4976  -6.4852  -6.4797  -6.4725  -6.4525  -6.4515
    -6.4480  -6.4424  -6.4124  -6.4110  -6.4062  -6.3994  -6.3981  -6.3963
    -6.3956  -6.3864  -6.3819  -6.3811  -6.3768  -6.3755  -6.3683  -6.3672
    -6.3606  -6.3515  -6.3464  -5.5728  -5.5534  -5.5526  -5.4662  -5.4642
    -5.4461  -5.4225  -5.4214  -5.4125  -5.4082  -5.4048  -5.3982  -5.3956
    -5.3810  -5.3800  -5.3744  -5.3561  -5.3542  -5.3493  -5.3444  -5.3009
    -5.2995  -5.2894  -5.2888  -5.2863  -5.2856  -5.2841  -5.2818  -5.2815
    -5.2773  -5.2758  -5.2718  -5.2706  -5.2684  -5.2653  -5.2642  -5.2619
    -5.2587  -5.2583  -5.2577  -5.2544  -5.2537  -5.2526  -5.2505  -5.2492
    -5.2459  -5.2444  -5.2431  -5.2395  -5.2388  -5.2373  -5.2344  -5.2315
    -5.2305  -5.2285  -5.2258  -5.2232  -5.2225  -5.2187  -5.2171  -5.2104
    -5.2102  -5.2078  -5.2076  -5.2070  -5.2046  -5.2022  -5.1969  -5.1959
    -5.1923  -5.1917  -5.1905  -5.1878  -5.1846  -5.1796  -5.1736  -5.1711
    -5.1682  -5.1671  -5.1606  -5.1579  -5.1578  -5.1558  -5.1545  -5.1516
    -5.1494  -5.1489  -5.1475  -5.1439  -5.1437  -5.1413  -5.1386  -5.1359
    -5.1349  -5.1337  -5.1335  -5.1312  -5.1288  -5.1278  -5.1238  -5.1227
    -5.1220  -5.1205  -5.1184  -5.1170  -5.1131  -5.1118  -5.1081  -5.1080
    -5.1064  -5.1045  -5.1032  -5.1004  -5.0968  -5.0967  -5.0954  -5.0913
    -5.0894  -5.0868  -5.0858  -5.0847  -5.0828  -5.0778  -5.0759  -5.0757
    -5.0729  -5.0706  -5.0682  -5.0675  -5.0656  -5.0636  -5.0612  -5.0609
    -5.0566  -5.0542  -5.0531  -5.0468  -5.0449  -5.0447  -5.0386  -5.0357
    -5.0332  -5.0306  -5.0301  -5.0285  -5.0171  -5.0169  -5.0149  -4.9594
    -4.6030  -4.5723  -4.5690  -4.4914  -3.8714  -3.8616  -3.8474  -3.8293
    -3.7639  -3.7300  -3.7259  -3.7157  -3.7003  -3.6891  -3.6779  -3.6434
    -3.5922  -3.5496  -3.4976  -3.4526  -3.4456  -3.3125  -3.1759  -3.1669
    -3.1454  -3.1053  -3.1033  -3.0921  -3.0713  -3.0664  -3.0588   2.2318
     2.2982   2.3861   2.6619   2.6646   2.6692   2.6890   2.6900   2.7295
     2.7663   2.7963   3.0476   3.0895   3.1429   3.1693   3.1923   3.2180
     3.2299   3.2600   3.2765   3.3327   3.3530   3.3667   3.3878   3.3892
     3.5406   3.5452   3.5766   4.3277   4.7610   4.7801   4.8249   5.1388
     5.1532   5.1702   5.1747   5.1863   5.2326   5.2393   5.3183   5.4810
     5.4884   5.4899   5.5411   5.6572   5.6708   5.7073   5.8711   5.8932
     5.8981   5.9048   5.9221   5.9223   5.9586   6.0500   6.1342   6.1685
     6.3142   6.3419   6.3653   6.3812   6.4126   6.4203   6.4225   6.4569
     6.5101   6.5173   6.5560   6.6038   6.6067   6.6284   6.6355   6.6435
     6.6742   6.8448   7.0436   7.1403   7.1800   7.2516   7.2820   7.2855
     7.2875   7.2876   7.3147   7.3445   7.3860   7.4007   7.4105   7.4179
     7.4380   7.4702   7.4704   7.4862   7.6368   7.7741   7.8019   7.8045
     7.9254   7.9726   8.0098   8.0264   8.0335   8.2546   8.2734   8.3041
     8.6032  11.0000  11.2466  11.6191  12.4043  12.6217  12.6657  12.7081
    12.9538  13.0432  13.3454  13.4192  13.5211  13.6241  13.7810  13.7954
    13.8277  13.8394  13.8428  13.8559  13.8574  13.8758  13.9042  13.9372
    13.9817  14.0925  14.3708  14.7184  15.0138  15.0298  15.0335  15.0424
    15.0447  15.0476  15.0644  15.0681  15.2449  15.2666  15.3628  15.6318
    15.7093  15.7128  15.7209  15.7245  15.7307  15.8106  15.8126  15.8556
    15.8929  15.9030  16.0210  16.0745  16.1415  16.2306  16.2485  16.3385
    16.3467  16.3605  16.4201  16.4441  16.4690  16.4700  16.4745  16.4756
    16.4805  16.4824

     occupation numbers 
     1.0000   1.0000   1.0000   1.0000   1.0000   1.0000   1.0000   1.0000
     1.0000   1.0000   1.0000   1.0000   1.0000   1.0000   1.0000   1.0000
     1.0000   1.0000   1.0000   1.0000   1.0000   1.0000   1.0000   1.0000
     1.0000   1.0000   1.0000   1.0000   1.0000   1.0000   1.0000   1.0000
     1.0000   1.0000   1.0000   1.0000   1.0000   1.0000   1.0000   1.0000
     1.0000   1.0000   1.0000   1.0000   1.0000   1.0000   1.0000   1.0000
     1.0000   1.0000   1.0000   1.0000   1.0000   1.0000   1.0000   1.0000
     1.0000   1.0000   1.0000   1.0000   1.0000   1.0000   1.0000   1.0000
     1.0000   1.0000   1.0000   1.0000   1.0000   1.0000   1.0000   1.0000
     1.0000   1.0000   1.0000   1.0000   1.0000   1.0000   1.0000   1.0000
     1.0000   1.0000   1.0000   1.0000   1.0000   1.0000   1.0000   1.0000
     1.0000   1.0000   1.0000   1.0000   1.0000   1.0000   1.0000   1.0000
     1.0000   1.0000   1.0000   1.0000   1.0000   1.0000   1.0000   1.0000
     1.0000   1.0000   1.0000   1.0000   1.0000   1.0000   1.0000   1.0000
     1.0000   1.0000   1.0000   1.0000   1.0000   1.0000   1.0000   1.0000
     1.0000   1.0000   1.0000   1.0000   1.0000   1.0000   1.0000   1.0000
     1.0000   1.0000   1.0000   1.0000   1.0000   1.0000   1.0000   1.0000
     1.0000   1.0000   1.0000   1.0000   1.0000   1.0000   1.0000   1.0000
     1.0000   1.0000   1.0000   1.0000   1.0000   1.0000   1.0000   1.0000
     1.0000   1.0000   1.0000   1.0000   1.0000   1.0000   1.0000   1.0000
     1.0000   1.0000   1.0000   1.0000   1.0000   1.0000   1.0000   1.0000
     1.0000   1.0000   1.0000   1.0000   1.0000   1.0000   1.0000   1.0000
     1.0000   1.0000   1.0000   1.0000   1.0000   1.0000   1.0000   1.0000
     1.0000   1.0000   1.0000   1.0000   1.0000   1.0000   1.0000   1.0000
     1.0000   1.0000   1.0000   1.0000   1.0000   1.0000   1.0000   1.0000
     1.0000   1.0000   1.0000   1.0000   1.0000   1.0000   1.0000   1.0000
     1.0000   1.0000   1.0000   1.0000   1.0000   1.0000   1.0000   1.0000
     1.0000   1.0000   1.0000   1.0000   1.0000   1.0000   1.0000   1.0000
     1.0000   1.0000   1.0000   1.0000   1.0000   1.0000   1.0000   1.0000
     1.0000   1.0000   1.0000   1.0000   1.0000   1.0000   1.0000   1.0000
     1.0000   1.0000   1.0000   1.0000   1.0000   1.0000   1.0000   1.0000
     1.0000   1.0000   1.0000   1.0000   1.0000   1.0000   1.0000   1.0000
     1.0000   1.0000   1.0000   1.0000   1.0000   1.0000   1.0000   1.0000
     1.0000   1.0000   1.0000   1.0000   1.0000   1.0000   1.0000   1.0000
     1.0000   1.0000   1.0000   1.0000   1.0000   1.0000   1.0000   1.0000
     1.0000   1.0000   1.0000   1.0000   1.0000   1.0000   1.0000   1.0000
     1.0000   1.0000   1.0000   1.0000   1.0000   1.0000   1.0000   1.0000
     1.0000   1.0000   1.0000   1.0000   1.0000   1.0000   1.0000   1.0000
     1.0000   1.0000   1.0000   1.0000   1.0000   1.0000   1.0000   1.0000
     1.0000   1.0000   1.0000   1.0000   1.0000   1.0000   1.0000   1.0000
     1.0000   0.1352   0.0001   0.0000   0.0000   0.0000   0.0000   0.0000
     0.0000   0.0000   0.0000   0.0000   0.0000   0.0000   0.0000   0.0000
     0.0000   0.0000   0.0000   0.0000   0.0000   0.0000   0.0000   0.0000
     0.0000   0.0000   0.0000   0.0000   0.0000   0.0000   0.0000   0.0000
     0.0000   0.0000   0.0000   0.0000   0.0000   0.0000   0.0000   0.0000
     0.0000   0.0000   0.0000   0.0000   0.0000   0.0000   0.0000   0.0000
     0.0000   0.0000   0.0000   0.0000   0.0000   0.0000   0.0000   0.0000
     0.0000   0.0000   0.0000   0.0000   0.0000   0.0000   0.0000   0.0000
     0.0000   0.0000

     the Fermi energy is    10.8939 ev

!    total energy              =  -11213.29619988 Ry
     total all-electron energy =   -144024.681936 Ry
     estimated scf accuracy    <       0.00000002 Ry
     smearing contrib. (-TS)   =      -0.00374117 Ry
     internal energy E=F+TS    =  -11213.29245870 Ry

     The total energy is F=E-TS. E is the sum of the following terms:
     one-electron contribution =   -3404.36035757 Ry
     hartree contribution      =    2376.65269619 Ry
     xc contribution           =   -1632.03402013 Ry
     ewald contribution        =   -4089.42191395 Ry
     one-center paw contrib.   =   -4464.12886324 Ry
      -> PAW hartree energy AE =     287.62072748 Ry
      -> PAW hartree energy PS =    -284.59027322 Ry
      -> PAW xc energy AE      =    -313.78146523 Ry
      -> PAW xc energy PS      =      79.32188085 Ry
      -> total E_H with PAW    =    2379.68315045 Ry
      -> total E_XC with PAW   =   -1866.49360450 Ry

     convergence has been achieved in  18 iterations


     -----------------------------------------------
     Non-local corr. energy    =      19.54440376 Ry
     -----------------------------------------------


     Forces acting on atoms (cartesian axes, Ry/au):

     atom    1 type  1   force =     0.00000000    0.00000000    0.00634462
     atom    2 type  1   force =     0.00000000    0.00000000    0.00341571
     atom    3 type  1   force =     0.00047193    0.00446011   -0.00108020
     atom    4 type  1   force =     0.00115886    0.00497719    0.00096338
     atom    5 type  1   force =     0.00409853   -0.00182135   -0.00108020
     atom    6 type  1   force =     0.00488980   -0.00148500    0.00096338
     atom    7 type  1   force =     0.00362660   -0.00263876   -0.00108020
     atom    8 type  1   force =     0.00373095   -0.00349219    0.00096338
     atom    9 type  1   force =    -0.00047193    0.00446011   -0.00108020
     atom   10 type  1   force =    -0.00115886    0.00497719    0.00096338
     atom   11 type  1   force =     0.00000000    0.00000000   -0.00028437
     atom   12 type  1   force =     0.00000000    0.00000000    0.00112795
     atom   13 type  1   force =    -0.00362660   -0.00263876   -0.00108020
     atom   14 type  1   force =    -0.00373095   -0.00349219    0.00096338
     atom   15 type  1   force =     0.00000000    0.00000000   -0.00043164
     atom   16 type  1   force =     0.00000000    0.00000000    0.00139261
     atom   17 type  1   force =    -0.00409853   -0.00182135   -0.00108020
     atom   18 type  1   force =    -0.00488980   -0.00148500    0.00096338
     atom   19 type  1   force =     0.00894515   -0.00516449   -0.00401599
     atom   20 type  1   force =     0.00020921   -0.00012079   -0.00678955
     atom   21 type  1   force =    -0.00471472   -0.00272204    0.00455664
     atom   22 type  1   force =    -0.00104125   -0.00060117   -0.00065895
     atom   23 type  1   force =     0.00000000    0.01032897   -0.00401599
     atom   24 type  1   force =     0.00000000    0.00024158   -0.00678955
     atom   25 type  1   force =    -0.00894515   -0.00516449   -0.00401599
     atom   26 type  1   force =    -0.00020921   -0.00012079   -0.00678955
     atom   27 type  1   force =     0.00000000    0.00190896    0.00308771
     atom   28 type  1   force =     0.00000000    0.00133207   -0.00041730
     atom   29 type  1   force =     0.00165321   -0.00095448    0.00308771
     atom   30 type  1   force =     0.00115360   -0.00066603   -0.00041730
     atom   31 type  1   force =     0.00000000    0.00544409    0.00455664
     atom   32 type  1   force =     0.00000000    0.00120233   -0.00065895
     atom   33 type  1   force =     0.00471472   -0.00272204    0.00455664
     atom   34 type  1   force =     0.00104125   -0.00060117   -0.00065895
     atom   35 type  1   force =    -0.00165321   -0.00095448    0.00308771
     atom   36 type  1   force =    -0.00115360   -0.00066603   -0.00041730
     atom   37 type  2   force =     0.00000000    0.00000000    0.00064233
     atom   38 type  2   force =     0.00273980   -0.00095309   -0.00238751
     atom   39 type  2   force =     0.00005500   -0.00180230    0.00063744
     atom   40 type  2   force =     0.00054450    0.00284929   -0.00238751
     atom   41 type  2   force =    -0.00153334    0.00094878    0.00063744
     atom   42 type  2   force =    -0.00219530   -0.00189620   -0.00238751
     atom   43 type  2   force =    -0.00158834    0.00085352    0.00063744
     atom   44 type  2   force =    -0.00273980   -0.00095309   -0.00238751
     atom   45 type  2   force =    -0.00005500   -0.00180230    0.00063744
     atom   46 type  2   force =     0.00000000    0.00000000   -0.00062688
     atom   47 type  2   force =     0.00000000    0.00000000   -0.00005737
     atom   48 type  2   force =     0.00219530   -0.00189620   -0.00238751
     atom   49 type  2   force =     0.00158834    0.00085352    0.00063744
     atom   50 type  2   force =     0.00000000    0.00000000   -0.00020678
     atom   51 type  2   force =     0.00000000    0.00000000    0.00013058
     atom   52 type  2   force =    -0.00054450    0.00284929   -0.00238751
     atom   53 type  2   force =     0.00153334    0.00094878    0.00063744
     atom   54 type  2   force =     0.00225751   -0.00130337    0.00758887
     atom   55 type  2   force =     0.00307847   -0.00177735   -0.00273066
     atom   56 type  2   force =     0.00007373    0.00004257    0.00078817
     atom   57 type  2   force =     0.00000087    0.00000050   -0.00136828
     atom   58 type  2   force =     0.00000000    0.00260675    0.00758887
     atom   59 type  2   force =     0.00000000    0.00355471   -0.00273066
     atom   60 type  2   force =    -0.00225751   -0.00130337    0.00758887
     atom   61 type  2   force =    -0.00307847   -0.00177735   -0.00273066
     atom   62 type  2   force =     0.00000000   -0.00196259    0.00087129
     atom   63 type  2   force =     0.00000000   -0.00143192   -0.00099376
     atom   64 type  2   force =    -0.00169965    0.00098129    0.00087129
     atom   65 type  2   force =    -0.00124008    0.00071596   -0.00099376
     atom   66 type  2   force =     0.00000000   -0.00008514    0.00078817
     atom   67 type  2   force =     0.00000000   -0.00000101   -0.00136828
     atom   68 type  2   force =    -0.00007373    0.00004257    0.00078817
     atom   69 type  2   force =    -0.00000087    0.00000050   -0.00136828
     atom   70 type  2   force =     0.00169965    0.00098129    0.00087129
     atom   71 type  2   force =     0.00124008    0.00071596   -0.00099376
     The non-local contrib.  to forces
     atom    1 type  1   force =     0.00000000    0.00000000    0.29257318
     atom    2 type  1   force =     0.00000000    0.00000000   -0.01822662
     atom    3 type  1   force =    -0.00305565   -0.02930730    0.00898731
     atom    4 type  1   force =    -0.00478372   -0.02915676   -0.00723241
     atom    5 type  1   force =    -0.02690869    0.01200738    0.00898731
     atom    6 type  1   force =    -0.02764236    0.01043556   -0.00723241
     atom    7 type  1   force =    -0.02385304    0.01729992    0.00898731
     atom    8 type  1   force =    -0.02285864    0.01872121   -0.00723241
     atom    9 type  1   force =     0.00305565   -0.02930730    0.00898731
     atom   10 type  1   force =     0.00478372   -0.02915676   -0.00723241
     atom   11 type  1   force =     0.00000000   -0.00000000    0.00006658
     atom   12 type  1   force =     0.00000000    0.00000000   -0.00713706
     atom   13 type  1   force =     0.02385304    0.01729992    0.00898731
     atom   14 type  1   force =     0.02285864    0.01872121   -0.00723241
     atom   15 type  1   force =     0.00000000    0.00000000    0.00150095
     atom   16 type  1   force =     0.00000000    0.00000000   -0.00904576
     atom   17 type  1   force =     0.02690869    0.01200738    0.00898731
     atom   18 type  1   force =     0.02764236    0.01043556   -0.00723241
     atom   19 type  1   force =     0.15828940   -0.09138843   -0.04986989
     atom   20 type  1   force =     0.00276196   -0.00159462    0.04557762
     atom   21 type  1   force =     0.01707416    0.00985777   -0.01929517
     atom   22 type  1   force =     0.00693649    0.00400478    0.00361263
     atom   23 type  1   force =     0.00000000    0.18277685   -0.04986989
     atom   24 type  1   force =    -0.00000000    0.00318924    0.04557762
     atom   25 type  1   force =    -0.15828940   -0.09138843   -0.04986989
     atom   26 type  1   force =    -0.00276196   -0.00159462    0.04557762
     atom   27 type  1   force =     0.00000000   -0.01621776   -0.02020955
     atom   28 type  1   force =     0.00000000   -0.00682194    0.00323470
     atom   29 type  1   force =    -0.01404499    0.00810888   -0.02020955
     atom   30 type  1   force =    -0.00590797    0.00341097    0.00323470
     atom   31 type  1   force =     0.00000000   -0.01971554   -0.01929517
     atom   32 type  1   force =     0.00000000   -0.00800957    0.00361263
     atom   33 type  1   force =    -0.01707416    0.00985777   -0.01929517
     atom   34 type  1   force =    -0.00693649    0.00400478    0.00361263
     atom   35 type  1   force =     0.01404499    0.00810888   -0.02020955
     atom   36 type  1   force =     0.00590797    0.00341097    0.00323470
     atom   37 type  2   force =     0.00000000    0.00000000    0.01225720
     atom   38 type  2   force =     0.01305156   -0.01581248    0.00536197
     atom   39 type  2   force =     0.00356247   -0.00880158    0.01303539
     atom   40 type  2   force =    -0.00716823    0.01920922    0.00536197
     atom   41 type  2   force =    -0.00584116    0.00748598    0.01303539
     atom   42 type  2   force =    -0.02021979   -0.00339674    0.00536197
     atom   43 type  2   force =    -0.00940363    0.00131560    0.01303539
     atom   44 type  2   force =    -0.01305156   -0.01581248    0.00536197
     atom   45 type  2   force =    -0.00356247   -0.00880158    0.01303539
     atom   46 type  2   force =     0.00000000   -0.00000000    0.01436656
     atom   47 type  2   force =     0.00000000   -0.00000000    0.01370109
     atom   48 type  2   force =     0.02021979   -0.00339674    0.00536197
     atom   49 type  2   force =     0.00940363    0.00131560    0.01303539
     atom   50 type  2   force =     0.00000000    0.00000000    0.01638431
     atom   51 type  2   force =     0.00000000    0.00000000    0.01452788
     atom   52 type  2   force =     0.00716823    0.01920922    0.00536197
     atom   53 type  2   force =     0.00584116    0.00748598    0.01303539
     atom   54 type  2   force =     0.02931961   -0.01692769    0.04328546
     atom   55 type  2   force =     0.02594973   -0.01498208   -0.01216873
     atom   56 type  2   force =     0.00332336    0.00191874    0.02099432
     atom   57 type  2   force =     0.00339360    0.00195929    0.00535797
     atom   58 type  2   force =     0.00000000    0.03385538    0.04328546
     atom   59 type  2   force =     0.00000000    0.02996417   -0.01216873
     atom   60 type  2   force =    -0.02931961   -0.01692769    0.04328546
     atom   61 type  2   force =    -0.02594973   -0.01498208   -0.01216873
[...]
     atom   40 type  2   force =     0.00000000    0.00000000    0.00000000
     atom   41 type  2   force =     0.00000000    0.00000000    0.00000000
     atom   42 type  2   force =     0.00000000    0.00000000    0.00000000
     atom   43 type  2   force =     0.00000000    0.00000000    0.00000000
     atom   44 type  2   force =     0.00000000    0.00000000    0.00000000
     atom   45 type  2   force =     0.00000000    0.00000000    0.00000000
     atom   46 type  2   force =     0.00000000    0.00000000    0.00000000
     atom   47 type  2   force =     0.00000000    0.00000000    0.00000000
     atom   48 type  2   force =     0.00000000    0.00000000    0.00000000
     atom   49 type  2   force =     0.00000000    0.00000000    0.00000000
     atom   50 type  2   force =     0.00000000    0.00000000    0.00000000
     atom   51 type  2   force =     0.00000000    0.00000000    0.00000000
     atom   52 type  2   force =     0.00000000    0.00000000    0.00000000
     atom   53 type  2   force =     0.00000000    0.00000000    0.00000000
     atom   54 type  2   force =     0.00000000    0.00000000    0.00000000
     atom   55 type  2   force =     0.00000000    0.00000000    0.00000000
     atom   56 type  2   force =     0.00000000    0.00000000    0.00000000
     atom   57 type  2   force =     0.00000000    0.00000000    0.00000000
     atom   58 type  2   force =     0.00000000    0.00000000    0.00000000
     atom   59 type  2   force =     0.00000000    0.00000000    0.00000000
     atom   60 type  2   force =     0.00000000    0.00000000    0.00000000
     atom   61 type  2   force =     0.00000000    0.00000000    0.00000000
     atom   62 type  2   force =     0.00000000    0.00000000    0.00000000
     atom   63 type  2   force =     0.00000000    0.00000000    0.00000000
     atom   64 type  2   force =     0.00000000    0.00000000    0.00000000
     atom   65 type  2   force =     0.00000000    0.00000000    0.00000000
     atom   66 type  2   force =     0.00000000    0.00000000    0.00000000
     atom   67 type  2   force =     0.00000000    0.00000000    0.00000000
     atom   68 type  2   force =     0.00000000    0.00000000    0.00000000
     atom   69 type  2   force =     0.00000000    0.00000000    0.00000000
     atom   70 type  2   force =     0.00000000    0.00000000    0.00000000
     atom   71 type  2   force =     0.00000000    0.00000000    0.00000000
     The SCF correction term to forces
     atom    1 type  1   force =    -0.00000000    0.00000000   -0.00000235
     atom    2 type  1   force =    -0.00000000    0.00000000    0.00001035
     atom    3 type  1   force =     0.00000468   -0.00000055   -0.00001328
     atom    4 type  1   force =     0.00000891    0.00003350    0.00002853
     atom    5 type  1   force =     0.00000186    0.00000433   -0.00001328
     atom    6 type  1   force =     0.00003347   -0.00000904    0.00002853
     atom    7 type  1   force =    -0.00000282   -0.00000378   -0.00001328
     atom    8 type  1   force =     0.00002456   -0.00002447    0.00002853
     atom    9 type  1   force =    -0.00000468   -0.00000055   -0.00001328
     atom   10 type  1   force =    -0.00000891    0.00003350    0.00002853
     atom   11 type  1   force =     0.00000000   -0.00000000   -0.00000614
     atom   12 type  1   force =     0.00000000    0.00000000   -0.00002547
     atom   13 type  1   force =     0.00000282   -0.00000378   -0.00001328
     atom   14 type  1   force =    -0.00002456   -0.00002447    0.00002853
     atom   15 type  1   force =    -0.00000000    0.00000000    0.00000530
     atom   16 type  1   force =    -0.00000000    0.00000000    0.00000299
     atom   17 type  1   force =    -0.00000186    0.00000433   -0.00001328
     atom   18 type  1   force =    -0.00003347   -0.00000904    0.00002853
     atom   19 type  1   force =    -0.00000281    0.00000162    0.00001440
     atom   20 type  1   force =     0.00001408   -0.00000813   -0.00007163
     atom   21 type  1   force =    -0.00002056   -0.00001187   -0.00001230
     atom   22 type  1   force =    -0.00002125   -0.00001227    0.00001766
     atom   23 type  1   force =    -0.00000000   -0.00000325    0.00001440
     atom   24 type  1   force =    -0.00000000    0.00001626   -0.00007163
     atom   25 type  1   force =     0.00000281    0.00000162    0.00001440
     atom   26 type  1   force =    -0.00001408   -0.00000813   -0.00007163
     atom   27 type  1   force =    -0.00000000   -0.00000395    0.00000304
     atom   28 type  1   force =    -0.00000000   -0.00000846    0.00002989
     atom   29 type  1   force =    -0.00000342    0.00000197    0.00000304
     atom   30 type  1   force =    -0.00000733    0.00000423    0.00002989
     atom   31 type  1   force =     0.00000000    0.00002374   -0.00001230
     atom   32 type  1   force =     0.00000000    0.00002454    0.00001766
     atom   33 type  1   force =     0.00002056   -0.00001187   -0.00001230
     atom   34 type  1   force =     0.00002125   -0.00001227    0.00001766
     atom   35 type  1   force =     0.00000342    0.00000197    0.00000304
     atom   36 type  1   force =     0.00000733    0.00000423    0.00002989
     atom   37 type  2   force =     0.00000000    0.00000000    0.00000057
     atom   38 type  2   force =    -0.00000137    0.00000184   -0.00000674
     atom   39 type  2   force =     0.00000071   -0.00000537    0.00000135
     atom   40 type  2   force =     0.00000091   -0.00000210   -0.00000674
     atom   41 type  2   force =    -0.00000430    0.00000329    0.00000135
     atom   42 type  2   force =     0.00000228    0.00000026   -0.00000674
     atom   43 type  2   force =    -0.00000500    0.00000207    0.00000135
     atom   44 type  2   force =     0.00000137    0.00000184   -0.00000674
     atom   45 type  2   force =    -0.00000071   -0.00000537    0.00000135
     atom   46 type  2   force =     0.00000000   -0.00000000   -0.00000210
     atom   47 type  2   force =     0.00000000   -0.00000000    0.00000167
     atom   48 type  2   force =    -0.00000228    0.00000026   -0.00000674
     atom   49 type  2   force =     0.00000500    0.00000207    0.00000135
     atom   50 type  2   force =    -0.00000000    0.00000000   -0.00000401
     atom   51 type  2   force =    -0.00000000    0.00000000    0.00000186
     atom   52 type  2   force =    -0.00000091   -0.00000210   -0.00000674
     atom   53 type  2   force =     0.00000430    0.00000329    0.00000135
     atom   54 type  2   force =     0.00000409   -0.00000236    0.00000194
     atom   55 type  2   force =     0.00000034   -0.00000020    0.00000789
     atom   56 type  2   force =    -0.00000039   -0.00000022    0.00000167
     atom   57 type  2   force =    -0.00000066   -0.00000038    0.00000084
     atom   58 type  2   force =    -0.00000000    0.00000473    0.00000194
     atom   59 type  2   force =     0.00000000    0.00000039    0.00000789
     atom   60 type  2   force =    -0.00000409   -0.00000236    0.00000194
     atom   61 type  2   force =    -0.00000034   -0.00000020    0.00000789
     atom   62 type  2   force =     0.00000000   -0.00000458    0.00000108
     atom   63 type  2   force =     0.00000000    0.00000043    0.00000156
     atom   64 type  2   force =    -0.00000397    0.00000229    0.00000108
     atom   65 type  2   force =     0.00000037   -0.00000021    0.00000156
     atom   66 type  2   force =    -0.00000000    0.00000045    0.00000167
     atom   67 type  2   force =    -0.00000000    0.00000076    0.00000084
     atom   68 type  2   force =     0.00000039   -0.00000022    0.00000167
     atom   69 type  2   force =     0.00000066   -0.00000038    0.00000084
     atom   70 type  2   force =     0.00000397    0.00000229    0.00000108
     atom   71 type  2   force =    -0.00000037   -0.00000021    0.00000156

     Total force =     0.003924     Total SCF correction =     0.000199


     Computing stress (Cartesian axis) and pressure



     -----------------------------------------------
     Non-local corr. energy    =      19.54375628 Ry
     -----------------------------------------------

          total   stress  (Ry/bohr**3)                   (kbar)     P=        3.91
   0.00002566   0.00000000  -0.00000000            3.77        0.00       -0.00
  -0.00000000   0.00002566  -0.00000000           -0.00        3.77       -0.00
   0.00000000  -0.00000000   0.00002844            0.00       -0.00        4.18

     kinetic stress (kbar)  18156.35      0.00      0.00
                                0.00  18156.35     -0.00
                                0.00     -0.00  18146.60

     local   stress (kbar)   5250.12     -0.07      0.00
                               -0.07   5250.03      0.01
                                0.00      0.01   3724.88

     nonloc. stress (kbar)    170.35     -0.00      0.00
                               -0.00    170.35      0.00
                                0.00      0.00    182.83

     hartree stress (kbar)  19645.15     -0.00      0.00
                               -0.00  19645.15     -0.00
                                0.00     -0.00  20346.64

     exc-cor stress (kbar)   5249.65      0.00     -0.00
                                0.00   5249.65      0.00
                               -0.00      0.00   5249.71

     corecor stress (kbar) -14093.58     -0.00     -0.00
                               -0.00 -14093.58     -0.00
                               -0.00     -0.00 -14093.00

     ewald   stress (kbar) -34535.81      0.09     -0.00
                                0.09 -34535.69      0.00
                               -0.00      0.00 -33714.25

     hubbard stress (kbar)      0.00      0.00      0.00
                                0.00      0.00      0.00
                                0.00      0.00      0.00

     DFT-D   stress (kbar)      0.00      0.00      0.00
                                0.00      0.00      0.00
                                0.00      0.00      0.00

     XDM     stress (kbar)      0.00      0.00      0.00
                                0.00      0.00      0.00
                                0.00      0.00      0.00

     dft-nl  stress (kbar)    161.53     -0.00     -0.00
                               -0.00    161.53     -0.00
                               -0.00     -0.00    160.77

     TS-vdW  stress (kbar)      0.00      0.00      0.00
                                0.00      0.00      0.00
                                0.00      0.00      0.00

     MDB     stress (kbar)      0.00      0.00      0.00
                                0.00      0.00      0.00
                                0.00      0.00      0.00

     3D-RISM stress (kbar)      0.00      0.00      0.00
                                0.00      0.00      0.00
                                0.00      0.00      0.00

     Energy error            =      2.7E-05 Ry
     Gradient error          =      9.7E-04 Ry/Bohr

     bfgs converged in   8 scf cycles and   7 bfgs steps
     (criteria: energy <  1.0E-04 Ry, force <  1.0E-03 Ry/Bohr)

     End of BFGS Geometry Optimization

     Final energy             =  -11213.2989485098 Ry

     File ./GaN.bfgs deleted, as requested
Begin final coordinates

ATOMIC_POSITIONS (angstrom)
Ga            1.6222756606        0.9366198184        2.6638665004
Ga            1.6222756606        0.9366198184        7.9346850844
Ga            0.0010997276        3.7537179946        2.6402114149
Ga            0.0025197073        3.7481542787        7.9245526838
Ga           -1.6154563461        6.5536752475        2.6402114149
Ga           -1.6195646756        6.5576868440        7.9245526838
Ga            4.8725422126        0.9320502723        2.6402114149
Ga            4.8670139035        0.9336023918        7.9245526838
Ga            3.2434515936        3.7537179946        2.6402114149
Ga            3.2420316139        3.7481542787        7.9245526838
Ga            1.6222756606        6.5563425246        2.6397954979
Ga            1.6222756606        6.5563425246        7.9313743042
Ga            8.1056543598        0.9320502723        2.6402114149
Ga            8.1111826689        0.9336023918        7.9245526838
Ga            6.4890982862        3.7464811715        2.6396856780
Ga            6.4890982862        3.7464811715        7.9341259345
Ga            4.8600076673        6.5536752475        2.6402114149
Ga            4.8641159968        6.5576868440        7.9245526838
Ga            0.0331834325        1.8540828484        5.2627438044
Ga            0.0022473609        1.8719437977       10.5710408363
Ga           -1.6272122803        4.6802539369        5.2908361013
Ga           -1.6234693883        4.6824148966       10.5708789665
Ga           -3.2445503819        7.5312843488        5.2627438044
Ga           -3.2445503819        7.4955624503       10.5710408363
Ga            3.2113610550        1.8540828484        5.2627438044
Ga            3.2422971266        1.8719437977       10.5710408363
Ga            1.6222722437        4.6861591287        5.2873509281
Ga            1.6222722437        4.6844206405       10.5714743772
Ga            0.0026440278        7.4914374882        5.2873509281
Ga            0.0011384529        7.4923067322       10.5714743772
Ga            6.4890948693        1.8789421720        5.2908361013
Ga            6.4890948693        1.8746202525       10.5708789665
Ga            4.8717567678        4.6802539369        5.2908361013
Ga            4.8680138758        4.6824148966       10.5708789665
Ga            3.2419004597        7.4914374882        5.2873509281
Ga            3.2434060346        7.4923067322       10.5714743772
N             1.6222756606        0.9366198184        9.9229958448
N             0.0052977675        3.7437060874        4.6302766314
N             0.0001719956        3.7439372082        9.9202062331
N            -1.6220278921        6.5623168103        4.6302766314
N            -1.6243906215        6.5577622013        9.9202062331
N             4.8617726267        0.9334206168        4.6302766314
N             4.8645356691        0.9377441050        9.9202062331
N             3.2392535537        3.7437060874        4.6302766314
N             3.2443793256        3.7439372082        9.9202062331
N             1.6222756606        6.5563425246        4.6308288948
N             1.6222756606        6.5563425246        9.9193379437
N             8.1164239457        0.9334206168        4.6302766314
N             8.1136609033        0.9377441050        9.9202062331
N             6.4890982862        3.7464811715        4.6310332236
N             6.4890982862        3.7464811715        9.9214732208
N             4.8665792133        6.5623168103        4.6302766314
N             4.8689419427        6.5577622013        9.9202062331
N             0.0046900106        1.8705335332        2.0050845375
N             0.0066053322        1.8694277218        7.2648033345
N            -1.6229914822        4.6826908158        1.9862728951
N            -1.6230530288        4.6826552819        7.2782181186
N            -3.2445503819        7.4983829793        2.0050845375
N            -3.2445503819        7.5005946021        7.2648033345
N             3.2398544769        1.8705335332        2.0050845375
N             3.2379391553        1.8694277218        7.2648033345
N             1.6222722437        4.6844818949        1.9850301462
N             1.6222722437        4.6855723103        7.2764786365
N             0.0011915007        7.4922761051        1.9850301462
N             0.0021358282        7.4917308973        7.2764786365
N             6.4890948693        1.8740684140        1.9862728951
N             6.4890948693        1.8741394820        7.2782181186
N             4.8675359697        4.6826908158        1.9862728951
N             4.8675975163        4.6826552819        7.2782181186
N             3.2433529868        7.4922761051        1.9850301462
N             3.2424086593        7.4917308973        7.2764786365
End final coordinates



     Writing all to output data dir ./GaN.save/
 
     init_run     :      7.65s CPU      8.14s WALL (       1 calls)
     electrons    :   3484.31s CPU   3534.74s WALL (       8 calls)
     update_pot   :      8.55s CPU      8.61s WALL (       7 calls)
     forces       :     20.10s CPU     20.38s WALL (       8 calls)
     stress       :    291.80s CPU    293.88s WALL (       8 calls)

     Called by init_run:
     wfcinit      :      3.65s CPU      3.76s WALL (       1 calls)
     wfcinit:atom :      0.04s CPU      0.05s WALL (       2 calls)
     wfcinit:wfcr :      3.46s CPU      3.53s WALL (       2 calls)
     potinit      :      1.93s CPU      2.24s WALL (       1 calls)
     hinit0       :      0.19s CPU      0.20s WALL (       1 calls)

     Called by electrons:
     c_bands      :   3188.04s CPU   3234.68s WALL (     110 calls)
     sum_band     :    191.80s CPU    193.51s WALL (     110 calls)
     v_of_rho     :     50.02s CPU     50.79s WALL (     117 calls)
     v_h          :      0.77s CPU      0.78s WALL (     117 calls)
     v_xc         :     55.91s CPU     56.74s WALL (     133 calls)
     newd         :      8.70s CPU      8.81s WALL (     117 calls)
     PAW_pot      :     50.98s CPU     51.27s WALL (     124 calls)
     mix_rho      :      2.15s CPU      2.23s WALL (     110 calls)
     vdW_kernel   :      0.93s CPU      1.19s WALL (       1 calls)

     Called by c_bands:
     init_us_2    :     13.69s CPU     13.92s WALL (     488 calls)
     init_us_2:cp :     13.68s CPU     13.91s WALL (     488 calls)
     cegterg      :   2295.81s CPU   2338.46s WALL (     220 calls)

     Called by sum_band:
     sum_band:wei :      0.10s CPU      0.10s WALL (     110 calls)
     sum_band:loo :    174.28s CPU    175.65s WALL (     110 calls)
     sum_band:buf :      3.31s CPU      3.44s WALL (     220 calls)
     sum_band:ini :      6.23s CPU      6.32s WALL (     220 calls)
     sum_band:cal :     35.55s CPU     35.75s WALL (     234 calls)
     sum_band:bec :      0.91s CPU      0.93s WALL (     234 calls)
     addusdens    :     11.20s CPU     11.45s WALL (     110 calls)
     addusd:skk   :      0.91s CPU      0.93s WALL (     220 calls)
     addusd:dgemm :      7.25s CPU      7.44s WALL (     220 calls)
     addusd:qvan2 :      2.46s CPU      2.50s WALL (     220 calls)

     Called by *egterg:
     cdiaghg      :   1137.19s CPU   1148.43s WALL (    1731 calls)
     cegterg:over :    156.69s CPU    160.59s WALL (    1527 calls)
     cegterg:upda :     93.53s CPU     96.77s WALL (    1527 calls)
     cegterg:last :     36.26s CPU     36.47s WALL (     224 calls)
     h_psi        :    732.17s CPU    742.36s WALL (    1749 calls)
     s_psi        :     90.40s CPU     90.86s WALL (    1749 calls)
     g_psi        :      1.93s CPU      1.96s WALL (    1527 calls)

     Called by h_psi:
     h_psi:calbec :    104.65s CPU    105.27s WALL (    1749 calls)
     vloc_psi     :    531.07s CPU    535.17s WALL (    1749 calls)
     add_vuspsi   :     90.97s CPU     91.55s WALL (    1749 calls)

     General routines
     calbec       :    157.75s CPU    158.66s WALL (    2063 calls)
     fft          :     27.33s CPU     27.58s WALL (    8715 calls)
     ffts         :      1.20s CPU      1.21s WALL (     227 calls)
     fftw         :    626.84s CPU    631.81s WALL (  529244 calls)
     interpolate  :      1.11s CPU      1.12s WALL (     117 calls)
 
     Parallel routines

     PAW routines
     PAW_pot      :     50.98s CPU     51.27s WALL (     124 calls)
     PAW_symme    :      0.21s CPU      0.22s WALL (     234 calls)
 
     PWSCF        :      1h 3m CPU      1h 4m WALL

 
   This run was terminated on:   9:58:44  23Mar2024            

=------------------------------------------------------------------------------=
   JOB DONE.
=------------------------------------------------------------------------------=
