
     Program PWSCF v.7.1 starts on 28Mar2024 at  6:44:33 

     This program is part of the open-source Quantum ESPRESSO suite
     for quantum simulation of materials; please cite
         "P. Giannozzi et al., J. Phys.:Condens. Matter 21 395502 (2009);
         "P. Giannozzi et al., J. Phys.:Condens. Matter 29 465901 (2017);
         "P. Giannozzi et al., J. Chem. Phys. 152 154105 (2020);
          URL http://www.quantum-espresso.org", 
     in publications or presentations arising from this work. More details at
     http://www.quantum-espresso.org/quote

     Parallel version (MPI & OpenMP), running on      20 processor cores
     Number of MPI processes:                20
     Threads/MPI process:                     1

     MPI processes distributed on     1 nodes
     1964941 MiB available memory on the printing compute node when the environment starts
 
     Reading input from espresso.pwi
Warning: card &CELL ignored
Warning: card    CELL_DYNAMICS    = 'BFGS' ignored
Warning: card / ignored

     Current dimensions of program PWSCF are:
     Max number of different atomic species (ntypx) = 10
     Max number of k-points (npk) =  40000
     Max angular momentum in pseudopotentials (lmaxx) =  4
     file Pb.pbe-dn-kjpaw_psl.1.0.0.UPF: wavefunction(s)  6S 6P 5D renormalized
     file I.pbe-dn-kjpaw_psl.1.0.0.UPF: wavefunction(s)  5S 5P renormalized

     **************************************************************************
     Initializing libbeef V0.1.2 with the BEEF-vdW functional.
     Citation: Wellendorff et al., PRB 85, 235149 (2012).
     **************************************************************************


     IMPORTANT: XC functional enforced from input :
     Exchange-correlation= BEEF-VDW
                           (   1   4  43  14   2   0   0)
     Any further DFT definition will be discarded
     Please, verify this is what you really want

 
     R & G space division:  proc/nbgrp/npool/nimage =      20
     Subspace diagonalization in iterative solution of the eigenvalue problem:
     a serial algorithm will be used

 
     Parallelization info
     --------------------
     sticks:   dense  smooth     PW     G-vecs:    dense   smooth      PW
     Min         381     306     80                42326    30292    4074
     Max         383     307     81                42331    30298    4079
     Sum        7639    6121   1615               846533   605897   81527
 
     Using Slab Decomposition
 


     bravais-lattice index     =            4
     lattice parameter (alat)  =      17.8060  a.u.
     unit-cell volume          =    7656.2263 (a.u.)^3
     number of atoms/cell      =           23
     number of atomic types    =            2
     number of electrons       =       368.00
     number of Kohn-Sham states=          221
     kinetic-energy cutoff     =      70.0000  Ry
     charge density cutoff     =     350.0000  Ry
     scf convergence threshold =      1.0E-07
     mixing beta               =       0.7000
     number of iterations used =            8  plain     mixing
     Exchange-correlation= BEEF-VDW
                           (   1   4  43  14   2   0   0)

     celldm(1)=  17.806016  celldm(2)=   0.000000  celldm(3)=   1.565971
     celldm(4)=   0.000000  celldm(5)=   0.000000  celldm(6)=   0.000000

     crystal axes: (cart. coord. in units of alat)
               a(1) = (   1.000000   0.000000   0.000000 )  
               a(2) = (  -0.500000   0.866025   0.000000 )  
               a(3) = (   0.000000   0.000000   1.565971 )  

     reciprocal axes: (cart. coord. in units 2 pi/alat)
               b(1) = (  1.000000  0.577350 -0.000000 )  
               b(2) = (  0.000000  1.154701  0.000000 )  
               b(3) = (  0.000000 -0.000000  0.638581 )  


     PseudoPot. # 1 for Pb read from file:
     /trace/group/acmegroup/atimmins/packages/espresso/pseudo/psl_1.0.0/pslibrary.1.0.0/pbe/PSEUDOPOTENTIALS/Pb.pbe-dn-kjpaw_psl.1.0.0.UPF
     MD5 check sum: 39ab5b8a6bbd56b7735ad9f188aac93a
     Pseudo is Projector augmented-wave + core cor, Zval = 14.0
     Generated using 'atomic' code by A. Dal Corso  v.7.1
     Shape of augmentation charge: PSQ
     Using radial grid of 1281 points,  6 beta functions with: 
                l(1) =   0
                l(2) =   0
                l(3) =   1
                l(4) =   1
                l(5) =   2
                l(6) =   2
     Q(r) pseudized with 0 coefficients 


     PseudoPot. # 2 for I  read from file:
     /trace/group/acmegroup/atimmins/packages/espresso/pseudo/psl_1.0.0/pslibrary.1.0.0/pbe/PSEUDOPOTENTIALS/I.pbe-dn-kjpaw_psl.1.0.0.UPF
     MD5 check sum: bfa8781bc1224d19af3f3980e3fab11e
     Pseudo is Projector augmented-wave + core cor, Zval = 17.0
     Generated using 'atomic' code by A. Dal Corso  v.7.1
     Shape of augmentation charge: PSQ
     Using radial grid of 1247 points,  6 beta functions with: 
                l(1) =   0
                l(2) =   0
                l(3) =   1
                l(4) =   1
                l(5) =   2
                l(6) =   2
     Q(r) pseudized with 0 coefficients 


     atomic species   valence    mass     pseudopotential
        Pb            14.00   207.20000     Pb( 1.00)
        I             17.00   126.90447     I ( 1.00)

     No symmetry found


                                    s                        frac. trans.

      isym =  1     identity                                     

 cryst.   s( 1) = (     1          0          0      )
                  (     0          1          0      )
                  (     0          0          1      )

 cart.    s( 1) = (  1.0000000  0.0000000  0.0000000 )
                  (  0.0000000  1.0000000  0.0000000 )
                  (  0.0000000  0.0000000  1.0000000 )


     point group C_1 (1)    
     there are  1 classes
     the character table:

       E    
A      1.00

     the symmetry operations in each class and the name of the first element:

     E        1
          identity                                               

   Cartesian axes

     site n.     atom                  positions (alat units)
         1           Pb  tau(   1) = (   0.2500170   0.4329745   1.5659650  )
         2           Pb  tau(   2) = (   0.2500068   0.4329836   0.7829793  )
         3           Pb  tau(   3) = (   0.0000153   0.8659852   1.5659567  )
         4           Pb  tau(   4) = (   0.0000051   0.8659943   0.7829710  )
         5           Pb  tau(   5) = (   0.7500170   0.4329726   1.5659715  )
         6           Pb  tau(   6) = (   0.7500068   0.4329816   0.7829858  )
         7           Pb  tau(   7) = (   0.5000153   0.8659833   1.5659633  )
         8           Pb  tau(   8) = (   0.5000051   0.8659923   0.7829776  )
         9           I   tau(   9) = (   0.2500209   0.1443009   1.3648506  )
        10           I   tau(  10) = (   0.0000091   0.5773207   0.5818567  )
        11           I   tau(  11) = (   0.0000193   0.5773116   1.3648424  )
        12           I   tau(  12) = (   0.7500107   0.1443080   0.5818714  )
        13           I   tau(  13) = (   0.7500209   0.1442990   1.3648571  )
        14           I   tau(  14) = (   0.5000091   0.5773187   0.5818632  )
        15           I   tau(  15) = (   0.5000193   0.5773097   1.3648489  )
        16           I   tau(  16) = (  -0.0000034   0.2886595   0.2011110  )
        17           I   tau(  17) = (   0.0000068   0.2886504   0.9840967  )
        18           I   tau(  18) = (  -0.2500051   0.7216702   0.2011027  )
        19           I   tau(  19) = (  -0.2499949   0.7216611   0.9840884  )
        20           I   tau(  20) = (   0.4999966   0.2886575   0.2011175  )
        21           I   tau(  21) = (   0.5000068   0.2886485   0.9841032  )
        22           I   tau(  22) = (   0.2499949   0.7216682   0.2011092  )
        23           I   tau(  23) = (   0.2500051   0.7216592   0.9840949  )

   Crystallographic axes

     site n.     atom                  positions (cryst. coord.)
         1           Pb  tau(   1) = (  0.4999949  0.4999559  0.9999959  )
         2           Pb  tau(   2) = (  0.4999900  0.4999663  0.4999959  )
         3           Pb  tau(   3) = (  0.4999921  0.9999536  0.9999906  )
         4           Pb  tau(   4) = (  0.4999871  0.9999640  0.4999906  )
         5           Pb  tau(   5) = (  0.9999938  0.4999537  1.0000001  )
         6           Pb  tau(   6) = (  0.9999888  0.4999641  0.5000001  )
         7           Pb  tau(   7) = (  0.9999910  0.9999514  0.9999948  )
         8           Pb  tau(   8) = (  0.9999860  0.9999618  0.4999948  )
         9           I   tau(   9) = (  0.3333331  0.1666243  0.8715680  )
        10           I   tau(  10) = (  0.3333253  0.6666325  0.3715628  )
        11           I   tau(  11) = (  0.3333303  0.6666220  0.8715628  )
        12           I   tau(  12) = (  0.8333270  0.1666326  0.3715722  )
        13           I   tau(  13) = (  0.8333320  0.1666221  0.8715722  )
        14           I   tau(  14) = (  0.8333242  0.6666303  0.3715669  )
        15           I   tau(  15) = (  0.8333292  0.6666198  0.8715669  )
        16           I   tau(  16) = (  0.1666542  0.3333152  0.1284257  )
        17           I   tau(  17) = (  0.1666592  0.3333048  0.6284257  )
        18           I   tau(  18) = (  0.1666514  0.8333129  0.1284204  )
        19           I   tau(  19) = (  0.1666564  0.8333025  0.6284204  )
        20           I   tau(  20) = (  0.6666531  0.3333130  0.1284299  )
        21           I   tau(  21) = (  0.6666581  0.3333026  0.6284299  )
        22           I   tau(  22) = (  0.6666503  0.8333107  0.1284246  )
        23           I   tau(  23) = (  0.6666553  0.8333003  0.6284246  )

     number of k points=     4  Gaussian smearing, width (Ry)=  0.0100
                       cart. coord. in units 2pi/alat
        k(    1) = (   0.0000000   0.0000000   0.0000000), wk =   0.5000000
        k(    2) = (   0.0000000  -0.5773503   0.0000000), wk =   0.5000000
        k(    3) = (   0.5000000  -0.2886751   0.0000000), wk =   0.5000000
        k(    4) = (  -0.5000000  -0.2886751   0.0000000), wk =   0.5000000

                       cryst. coord.
        k(    1) = (   0.0000000   0.0000000   0.0000000), wk =   0.5000000
        k(    2) = (   0.0000000  -0.5000000   0.0000000), wk =   0.5000000
        k(    3) = (   0.5000000  -0.5000000   0.0000000), wk =   0.5000000
        k(    4) = (  -0.5000000  -0.0000000   0.0000000), wk =   0.5000000

     Dense  grid:   846533 G-vectors     FFT dimensions: ( 108, 108, 180)

     Smooth grid:   605897 G-vectors     FFT dimensions: (  96,  96, 150)

     Dynamical RAM for                 wfc:      12.77 MB

     Dynamical RAM for     wfc (w. buffer):      63.84 MB

     Dynamical RAM for           str. fact:       1.29 MB

     Dynamical RAM for           local pot:       0.00 MB

     Dynamical RAM for          nlocal pot:      23.92 MB

     Dynamical RAM for                qrad:       3.00 MB

     Dynamical RAM for          rho,v,vnew:       4.34 MB

     Dynamical RAM for               rhoin:       1.45 MB

     Dynamical RAM for            rho*nmix:      10.33 MB

     Dynamical RAM for           G-vectors:       2.65 MB

     Dynamical RAM for          h,s,v(r/c):      35.77 MB

     Dynamical RAM for          <psi|beta>:       1.40 MB

     Dynamical RAM for                 psi:      51.07 MB

     Dynamical RAM for                hpsi:      51.07 MB

     Dynamical RAM for                spsi:      51.07 MB

     Dynamical RAM for      wfcinit/wfcrot:      26.65 MB

     Dynamical RAM for           addusdens:     129.83 MB

     Dynamical RAM for          addusforce:     148.30 MB

     Dynamical RAM for         addusstress:     129.83 MB

     Estimated static dynamical RAM per process >     106.43 MB

     Estimated max dynamical RAM per process >     307.14 MB

     Estimated total dynamical RAM >       6.00 GB

     Atomic positions and unit cell read from directory:
     ./PbI2.save/
     Atomic positions from file used, from input discarded
 

     Check: negative core charge=   -0.000001

     The initial density is read from file :
     ./PbI2.save/charge-density



     %%%%%%%%%%%%%%%%%%%%%%%%%%%%%%%%%%%%%%%%%%%%%%%%%%%%%%%%%%%%%%%%%%%%%%%%
     %                                                                      %
     % You are using vdW-DF, which was implemented by the Thonhauser group. %
     % Please cite the following two papers that made this development      %
     % possible and the two reviews that describe the various versions:     %
     %                                                                      %
     %   T. Thonhauser et al., PRL 115, 136402 (2015).                      %
     %   T. Thonhauser et al., PRB 76, 125112 (2007).                       %
     %   K. Berland et al., Rep. Prog. Phys. 78, 066501 (2015).             %
     %   D.C. Langreth et al., J. Phys.: Condens. Matter 21, 084203 (2009). %
     %                                                                      %
     % If you are calculating stress with vdW-DF, please also cite:         %
     %                                                                      %
     %   R. Sabatini et al., J. Phys.: Condens. Matter 24, 424209 (2012).   %
     %                                                                      %
     %%%%%%%%%%%%%%%%%%%%%%%%%%%%%%%%%%%%%%%%%%%%%%%%%%%%%%%%%%%%%%%%%%%%%%%%

     %%%%%%%%%%%%%%%%%%%%%%%%%%%%%%%%%%%%%%%%%%%%%%%%%%%%%%%%%%%%%%%%%%%%%%%%
     %                                                                      %
     %  vdW-DF NEWS:                                                        %
     %                                                                      %
     %  * vdW-DF3 is now available. DOI: 10.1021/acs.jctc.0c00471           %
     %    use with input_dft = 'vdW-DF3-opt1' or 'vdW-DF3-opt2'             %
     %                                                                      %
     %  * Unscreened and range-separated vdW-DF hybrid functionals          %
     %    DOI: 10.1063/1.4986522 and 10.1088/1361-648X/ac2ad2               %
     %    use with input_dft = 'vdW-DF-cx0' (etc) and 'vdW-DF-ahcx'         %
     %                                                                      %
     %%%%%%%%%%%%%%%%%%%%%%%%%%%%%%%%%%%%%%%%%%%%%%%%%%%%%%%%%%%%%%%%%%%%%%%%


     Carrying out vdW-DF run using the following parameters:
     Nqs    =  20  Npoints =  1024  r_max =  100.000
     q_mesh =  0.00001000  0.04494208  0.09755937  0.15916263
               0.23128650  0.31572767  0.41458969  0.53033537
               0.66584808  0.82450364  1.01025438  1.22772762
               1.48234092  1.78043706  2.12944203  2.53805004
               3.01644009  3.57652955  4.23227104  5.00000000


     -----------------------------------------------
     Non-local corr. energy    =      10.94106830 Ry
     -----------------------------------------------

     Starting wfcs from file
     Checking if some PAW data can be deallocated... 
       PAW data deallocated on   15 nodes for type:  1
       PAW data deallocated on    5 nodes for type:  2

     total cpu time spent up to now is        8.0 secs

     Self-consistent Calculation

     iteration #  1     ecut=    70.00 Ry     beta= 0.70
     Davidson diagonalization with overlap

---- Real-time Memory Report at c_bands before calling an iterative solver
           363 MiB given to the printing process from OS
             0 MiB allocation reported by mallinfo(arena+hblkhd)
       1961290 MiB available memory on the node where the printing process lives
------------------
     ethr =  1.00E-05,  avg # of iterations =  1.0

     Threshold (ethr) on eigenvalues was too large:
     Diagonalizing with lowered threshold

     Davidson diagonalization with overlap

---- Real-time Memory Report at c_bands before calling an iterative solver
           458 MiB given to the printing process from OS
             0 MiB allocation reported by mallinfo(arena+hblkhd)
       1960766 MiB available memory on the node where the printing process lives
------------------
     ethr =  4.60E-13,  avg # of iterations =  8.0


     -----------------------------------------------
     Non-local corr. energy    =      10.94106816 Ry
     -----------------------------------------------


     total cpu time spent up to now is       44.6 secs

     End of self-consistent calculation

          k = 0.0000 0.0000 0.0000 ( 75645 PWs)   bands (ev):

   -41.4740 -41.4740 -41.4714 -41.4714 -41.4701 -41.4701 -41.4701 -41.4700
   -41.4695 -41.4695 -41.4694 -41.4686 -41.4686 -41.4675 -41.4674 -41.4674
   -41.4660 -41.4660 -41.4659 -41.4659 -41.4659 -41.4649 -41.4649 -41.4649
   -41.4646 -41.4590 -41.4590 -41.4589 -41.4586 -41.4586 -41.4586 -41.4581
   -41.4581 -41.4580 -41.4564 -41.4564 -41.4564 -41.4562 -41.4562 -41.4561
   -41.1020 -41.1019 -41.1019 -41.1002 -41.1002 -41.1001 -41.0857 -41.0857
   -41.0857 -41.0680 -41.0680 -41.0679 -41.0665 -41.0664 -41.0664 -40.8476
   -40.8475 -40.8475 -40.8432 -40.8432 -40.8431 -40.8186 -40.8185 -40.8185
   -40.7951 -40.7951 -40.7951 -40.7910 -40.7909 -40.7909 -40.0452 -40.0452
   -40.0229 -40.0228 -40.0151 -13.6099 -13.6099 -13.5993 -13.5897 -13.5897
   -13.5831 -13.5831 -13.5794 -13.5744 -13.5744 -13.5703 -13.5698 -13.5672
   -13.5672 -13.5633 -13.5633 -13.5628 -13.5611 -13.5562 -13.5562 -13.1228
   -13.1228 -13.1034 -13.1034 -13.1024 -12.8115 -12.8114 -12.7898 -12.7884
   -12.7830 -12.7829 -12.7040 -12.7040 -12.7036 -12.6832 -12.6831 -12.6797
   -12.6753 -12.6548 -12.6547  -8.7673  -8.3392  -8.3084  -8.2978  -8.2978
    -8.2056  -8.1978  -8.1978  -8.1677  -7.8849  -7.8849  -7.7802  -7.5824
    -7.5824  -6.8123  -4.3204  -4.3194  -4.3193  -3.8246  -3.8033  -3.3507
    -3.3246  -3.3244   0.2677   0.2677   0.2705   0.9882   1.0677   1.0678
     1.2120   1.2120   1.2592   1.2606   1.2633   1.2633   1.7091   1.8025
     1.8027   1.9333   1.9373   1.9591   1.9591   2.0242   2.0242   2.1037
     2.1037   2.1118   2.1458   2.1494   2.1495   2.1766   2.2042   2.2042
     2.2353   2.2353   2.3541   2.6411   2.6411   2.6841   2.7349   2.7951
     2.7951   2.8335   2.8336   3.0082   3.2480   3.2484   3.2989   5.0361
     5.3168   6.0017   6.0373   6.0373   6.0520   6.1524   6.1524   6.6474
     6.6474   6.7070   6.7071   6.7451   6.7701   6.7701   6.9264   7.0778
     7.0778   7.1021   7.1022   7.3560   7.5069   7.5950   7.5951   8.6569
     8.6933   8.6933   9.0679   9.6807   9.6808   9.7272   9.7728  10.2603
    10.4691  10.6916  10.6916  10.7560  10.7561

     occupation numbers 
     1.0000   1.0000   1.0000   1.0000   1.0000   1.0000   1.0000   1.0000
     1.0000   1.0000   1.0000   1.0000   1.0000   1.0000   1.0000   1.0000
     1.0000   1.0000   1.0000   1.0000   1.0000   1.0000   1.0000   1.0000
     1.0000   1.0000   1.0000   1.0000   1.0000   1.0000   1.0000   1.0000
     1.0000   1.0000   1.0000   1.0000   1.0000   1.0000   1.0000   1.0000
     1.0000   1.0000   1.0000   1.0000   1.0000   1.0000   1.0000   1.0000
     1.0000   1.0000   1.0000   1.0000   1.0000   1.0000   1.0000   1.0000
     1.0000   1.0000   1.0000   1.0000   1.0000   1.0000   1.0000   1.0000
     1.0000   1.0000   1.0000   1.0000   1.0000   1.0000   1.0000   1.0000
     1.0000   1.0000   1.0000   1.0000   1.0000   1.0000   1.0000   1.0000
     1.0000   1.0000   1.0000   1.0000   1.0000   1.0000   1.0000   1.0000
     1.0000   1.0000   1.0000   1.0000   1.0000   1.0000   1.0000   1.0000
     1.0000   1.0000   1.0000   1.0000   1.0000   1.0000   1.0000   1.0000
     1.0000   1.0000   1.0000   1.0000   1.0000   1.0000   1.0000   1.0000
     1.0000   1.0000   1.0000   1.0000   1.0000   1.0000   1.0000   1.0000
     1.0000   1.0000   1.0000   1.0000   1.0000   1.0000   1.0000   1.0000
     1.0000   1.0000   1.0000   1.0000   1.0000   1.0000   1.0000   1.0000
     1.0000   1.0000   1.0000   1.0000   1.0000   1.0000   1.0000   1.0000
     1.0000   1.0000   1.0000   1.0000   1.0000   1.0000   1.0000   1.0000
     1.0000   1.0000   1.0000   1.0000   1.0000   1.0000   1.0000   1.0000
     1.0000   1.0000   1.0000   1.0000   1.0000   1.0000   1.0000   1.0000
     1.0000   1.0000   1.0000   1.0000   1.0000   1.0000   1.0000   1.0000
     1.0000   1.0000   1.0000   1.0000   1.0000   1.0000   1.0000   0.9954
     0.3769   0.0000   0.0000   0.0000   0.0000   0.0000   0.0000   0.0000
     0.0000   0.0000   0.0000   0.0000   0.0000   0.0000   0.0000   0.0000
     0.0000   0.0000   0.0000   0.0000   0.0000   0.0000   0.0000   0.0000
     0.0000   0.0000   0.0000   0.0000   0.0000   0.0000   0.0000   0.0000
     0.0000   0.0000   0.0000   0.0000   0.0000

          k = 0.0000-0.5774 0.0000 ( 75730 PWs)   bands (ev):

   -41.4740 -41.4740 -41.4714 -41.4714 -41.4701 -41.4701 -41.4701 -41.4700
   -41.4695 -41.4695 -41.4694 -41.4686 -41.4686 -41.4675 -41.4674 -41.4674
   -41.4660 -41.4659 -41.4659 -41.4659 -41.4659 -41.4649 -41.4649 -41.4649
   -41.4646 -41.4590 -41.4590 -41.4589 -41.4586 -41.4586 -41.4586 -41.4581
   -41.4580 -41.4580 -41.4564 -41.4564 -41.4564 -41.4562 -41.4562 -41.4561
   -41.1020 -41.1019 -41.1019 -41.1002 -41.1002 -41.1001 -41.0857 -41.0857
   -41.0857 -41.0680 -41.0679 -41.0679 -41.0665 -41.0664 -41.0664 -40.8476
   -40.8475 -40.8475 -40.8432 -40.8432 -40.8431 -40.8185 -40.8185 -40.8185
   -40.7951 -40.7951 -40.7951 -40.7910 -40.7909 -40.7909 -40.0452 -40.0452
   -40.0229 -40.0228 -40.0151 -13.6059 -13.6048 -13.5913 -13.5882 -13.5882
   -13.5878 -13.5827 -13.5788 -13.5778 -13.5772 -13.5746 -13.5686 -13.5682
   -13.5664 -13.5660 -13.5651 -13.5637 -13.5602 -13.5586 -13.5566 -13.1226
   -13.1225 -13.1034 -13.1033 -13.1023 -12.8118 -12.8096 -12.7901 -12.7896
   -12.7832 -12.7831 -12.7040 -12.7027 -12.7026 -12.6844 -12.6835 -12.6773
   -12.6765 -12.6571 -12.6550  -8.5751  -8.5673  -8.3238  -8.3157  -8.2515
    -8.2449  -8.1848  -8.1803  -8.0735  -7.9958  -7.8886  -7.7174  -7.6424
    -7.5788  -6.8182  -4.3084  -4.3078  -4.0463  -4.0381  -3.7334  -3.5218
    -3.3126  -3.1673   0.5681   0.5800   0.7268   0.7444   0.8768   0.8998
     1.1218   1.1797   1.2202   1.2431   1.3140   1.4093   1.5276   1.5309
     1.5638   1.5760   1.5859   1.6677   1.8128   1.8232   1.8765   1.8772
     2.0321   2.1010   2.1255   2.1732   2.1782   2.2440   2.2471   2.4916
     2.4977   2.5390   2.5815   2.6070   2.6179   2.6182   2.6348   2.6764
     2.7081   2.8891   3.0253   3.0500   3.1043   3.2194   3.3651   5.1755
     5.8870   5.9052   6.2479   6.4543   6.4694   6.5258   6.5411   6.5865
     6.6070   6.6453   6.7147   6.7154   6.7340   6.8707   6.9606   6.9887
     7.1134   7.1566   7.2805   7.3968   7.4612   7.5501   7.5891   9.1807
     9.2818   9.3852   9.6144   9.6384   9.7235   9.7621   9.8340  10.1626
    10.2359  10.3515  10.3789  10.4115  10.4718

     occupation numbers 
     1.0000   1.0000   1.0000   1.0000   1.0000   1.0000   1.0000   1.0000
     1.0000   1.0000   1.0000   1.0000   1.0000   1.0000   1.0000   1.0000
     1.0000   1.0000   1.0000   1.0000   1.0000   1.0000   1.0000   1.0000
     1.0000   1.0000   1.0000   1.0000   1.0000   1.0000   1.0000   1.0000
     1.0000   1.0000   1.0000   1.0000   1.0000   1.0000   1.0000   1.0000
     1.0000   1.0000   1.0000   1.0000   1.0000   1.0000   1.0000   1.0000
     1.0000   1.0000   1.0000   1.0000   1.0000   1.0000   1.0000   1.0000
     1.0000   1.0000   1.0000   1.0000   1.0000   1.0000   1.0000   1.0000
     1.0000   1.0000   1.0000   1.0000   1.0000   1.0000   1.0000   1.0000
     1.0000   1.0000   1.0000   1.0000   1.0000   1.0000   1.0000   1.0000
     1.0000   1.0000   1.0000   1.0000   1.0000   1.0000   1.0000   1.0000
     1.0000   1.0000   1.0000   1.0000   1.0000   1.0000   1.0000   1.0000
     1.0000   1.0000   1.0000   1.0000   1.0000   1.0000   1.0000   1.0000
     1.0000   1.0000   1.0000   1.0000   1.0000   1.0000   1.0000   1.0000
     1.0000   1.0000   1.0000   1.0000   1.0000   1.0000   1.0000   1.0000
     1.0000   1.0000   1.0000   1.0000   1.0000   1.0000   1.0000   1.0000
     1.0000   1.0000   1.0000   1.0000   1.0000   1.0000   1.0000   1.0000
     1.0000   1.0000   1.0000   1.0000   1.0000   1.0000   1.0000   1.0000
     1.0000   1.0000   1.0000   1.0000   1.0000   1.0000   1.0000   1.0000
     1.0000   1.0000   1.0000   1.0000   1.0000   1.0000   1.0000   1.0000
     1.0000   1.0000   1.0000   1.0000   1.0000   1.0000   1.0000   1.0000
     1.0000   1.0000   1.0000   1.0000   1.0000   1.0000   1.0000   1.0000
     1.0000   1.0000   1.0000   1.0000   1.0000   1.0000   1.0000   0.8760
     0.0000   0.0000   0.0000   0.0000   0.0000   0.0000   0.0000   0.0000
     0.0000   0.0000   0.0000   0.0000   0.0000   0.0000   0.0000   0.0000
     0.0000   0.0000   0.0000   0.0000   0.0000   0.0000   0.0000   0.0000
     0.0000   0.0000   0.0000   0.0000   0.0000   0.0000   0.0000   0.0000
     0.0000   0.0000   0.0000   0.0000   0.0000

          k = 0.5000-0.2887 0.0000 ( 75730 PWs)   bands (ev):

   -41.4740 -41.4740 -41.4714 -41.4714 -41.4701 -41.4701 -41.4701 -41.4700
   -41.4695 -41.4695 -41.4694 -41.4686 -41.4686 -41.4674 -41.4674 -41.4674
   -41.4660 -41.4660 -41.4659 -41.4659 -41.4659 -41.4649 -41.4649 -41.4649
   -41.4646 -41.4590 -41.4590 -41.4589 -41.4586 -41.4586 -41.4586 -41.4581
   -41.4581 -41.4580 -41.4564 -41.4564 -41.4564 -41.4562 -41.4562 -41.4561
   -41.1020 -41.1019 -41.1019 -41.1002 -41.1002 -41.1001 -41.0857 -41.0857
   -41.0857 -41.0680 -41.0680 -41.0679 -41.0665 -41.0664 -41.0664 -40.8476
   -40.8475 -40.8475 -40.8432 -40.8432 -40.8431 -40.8185 -40.8185 -40.8185
   -40.7951 -40.7951 -40.7951 -40.7910 -40.7909 -40.7909 -40.0452 -40.0452
   -40.0229 -40.0228 -40.0151 -13.6059 -13.6048 -13.5913 -13.5882 -13.5882
   -13.5878 -13.5827 -13.5787 -13.5778 -13.5772 -13.5746 -13.5686 -13.5683
   -13.5664 -13.5659 -13.5651 -13.5638 -13.5602 -13.5585 -13.5567 -13.1226
   -13.1225 -13.1034 -13.1033 -13.1023 -12.8118 -12.8096 -12.7901 -12.7896
   -12.7833 -12.7831 -12.7040 -12.7028 -12.7026 -12.6845 -12.6835 -12.6773
   -12.6765 -12.6572 -12.6549  -8.5751  -8.5673  -8.3238  -8.3157  -8.2515
    -8.2449  -8.1848  -8.1803  -8.0735  -7.9959  -7.8886  -7.7174  -7.6423
    -7.5789  -6.8182  -4.3084  -4.3078  -4.0462  -4.0381  -3.7334  -3.5218
    -3.3124  -3.1674   0.5680   0.5800   0.7268   0.7444   0.8768   0.8998
     1.1217   1.1798   1.2202   1.2431   1.3140   1.4092   1.5276   1.5310
     1.5638   1.5760   1.5859   1.6677   1.8128   1.8232   1.8765   1.8772
     2.0321   2.1010   2.1255   2.1732   2.1782   2.2440   2.2471   2.4915
     2.4976   2.5391   2.5815   2.6070   2.6179   2.6182   2.6348   2.6764
     2.7081   2.8890   3.0253   3.0500   3.1043   3.2197   3.3651   5.1756
     5.8870   5.9051   6.2479   6.4542   6.4693   6.5258   6.5411   6.5865
     6.6069   6.6453   6.7147   6.7155   6.7339   6.8707   6.9606   6.9887
     7.1133   7.1567   7.2806   7.3969   7.4613   7.5501   7.5890   9.1807
     9.2819   9.3852   9.6144   9.6384   9.7235   9.7621   9.8340  10.1626
    10.2359  10.3515  10.3788  10.4115  10.4718

     occupation numbers 
     1.0000   1.0000   1.0000   1.0000   1.0000   1.0000   1.0000   1.0000
     1.0000   1.0000   1.0000   1.0000   1.0000   1.0000   1.0000   1.0000
     1.0000   1.0000   1.0000   1.0000   1.0000   1.0000   1.0000   1.0000
     1.0000   1.0000   1.0000   1.0000   1.0000   1.0000   1.0000   1.0000
     1.0000   1.0000   1.0000   1.0000   1.0000   1.0000   1.0000   1.0000
     1.0000   1.0000   1.0000   1.0000   1.0000   1.0000   1.0000   1.0000
     1.0000   1.0000   1.0000   1.0000   1.0000   1.0000   1.0000   1.0000
     1.0000   1.0000   1.0000   1.0000   1.0000   1.0000   1.0000   1.0000
     1.0000   1.0000   1.0000   1.0000   1.0000   1.0000   1.0000   1.0000
     1.0000   1.0000   1.0000   1.0000   1.0000   1.0000   1.0000   1.0000
     1.0000   1.0000   1.0000   1.0000   1.0000   1.0000   1.0000   1.0000
     1.0000   1.0000   1.0000   1.0000   1.0000   1.0000   1.0000   1.0000
     1.0000   1.0000   1.0000   1.0000   1.0000   1.0000   1.0000   1.0000
     1.0000   1.0000   1.0000   1.0000   1.0000   1.0000   1.0000   1.0000
     1.0000   1.0000   1.0000   1.0000   1.0000   1.0000   1.0000   1.0000
     1.0000   1.0000   1.0000   1.0000   1.0000   1.0000   1.0000   1.0000
     1.0000   1.0000   1.0000   1.0000   1.0000   1.0000   1.0000   1.0000
     1.0000   1.0000   1.0000   1.0000   1.0000   1.0000   1.0000   1.0000
     1.0000   1.0000   1.0000   1.0000   1.0000   1.0000   1.0000   1.0000
     1.0000   1.0000   1.0000   1.0000   1.0000   1.0000   1.0000   1.0000
     1.0000   1.0000   1.0000   1.0000   1.0000   1.0000   1.0000   1.0000
     1.0000   1.0000   1.0000   1.0000   1.0000   1.0000   1.0000   1.0000
     1.0000   1.0000   1.0000   1.0000   1.0000   1.0000   1.0000   0.8758
     0.0000   0.0000   0.0000   0.0000   0.0000   0.0000   0.0000   0.0000
     0.0000   0.0000   0.0000   0.0000   0.0000   0.0000   0.0000   0.0000
     0.0000   0.0000   0.0000   0.0000   0.0000   0.0000   0.0000   0.0000
     0.0000   0.0000   0.0000   0.0000   0.0000   0.0000   0.0000   0.0000
     0.0000   0.0000   0.0000   0.0000   0.0000

          k =-0.5000-0.2887 0.0000 ( 75730 PWs)   bands (ev):

   -41.4740 -41.4740 -41.4714 -41.4714 -41.4701 -41.4701 -41.4701 -41.4700
   -41.4695 -41.4695 -41.4694 -41.4686 -41.4686 -41.4674 -41.4674 -41.4674
   -41.4660 -41.4660 -41.4659 -41.4659 -41.4659 -41.4649 -41.4649 -41.4649
   -41.4646 -41.4590 -41.4590 -41.4589 -41.4586 -41.4586 -41.4586 -41.4581
   -41.4580 -41.4580 -41.4564 -41.4564 -41.4564 -41.4562 -41.4562 -41.4561
   -41.1020 -41.1019 -41.1019 -41.1002 -41.1002 -41.1001 -41.0857 -41.0857
   -41.0857 -41.0680 -41.0680 -41.0679 -41.0665 -41.0664 -41.0664 -40.8476
   -40.8475 -40.8475 -40.8432 -40.8432 -40.8431 -40.8185 -40.8185 -40.8185
   -40.7951 -40.7951 -40.7951 -40.7910 -40.7909 -40.7909 -40.0452 -40.0452
   -40.0229 -40.0228 -40.0151 -13.6059 -13.6048 -13.5913 -13.5882 -13.5882
   -13.5878 -13.5827 -13.5787 -13.5778 -13.5772 -13.5746 -13.5686 -13.5682
   -13.5664 -13.5660 -13.5651 -13.5637 -13.5602 -13.5586 -13.5567 -13.1226
   -13.1225 -13.1034 -13.1033 -13.1023 -12.8117 -12.8097 -12.7901 -12.7896
   -12.7833 -12.7830 -12.7039 -12.7028 -12.7026 -12.6845 -12.6834 -12.6772
   -12.6765 -12.6572 -12.6549  -8.5751  -8.5673  -8.3238  -8.3157  -8.2515
    -8.2449  -8.1848  -8.1803  -8.0735  -7.9958  -7.8886  -7.7174  -7.6423
    -7.5789  -6.8182  -4.3084  -4.3078  -4.0462  -4.0381  -3.7334  -3.5218
    -3.3125  -3.1674   0.5680   0.5800   0.7268   0.7444   0.8768   0.8998
     1.1218   1.1797   1.2202   1.2431   1.3140   1.4092   1.5276   1.5310
     1.5638   1.5760   1.5859   1.6677   1.8128   1.8232   1.8765   1.8772
     2.0321   2.1010   2.1255   2.1732   2.1782   2.2440   2.2471   2.4916
     2.4977   2.5391   2.5815   2.6070   2.6179   2.6182   2.6348   2.6764
     2.7081   2.8891   3.0253   3.0500   3.1043   3.2196   3.3651   5.1756
     5.8870   5.9052   6.2479   6.4542   6.4693   6.5258   6.5411   6.5865
     6.6069   6.6453   6.7147   6.7154   6.7339   6.8707   6.9606   6.9887
     7.1134   7.1566   7.2806   7.3968   7.4613   7.5501   7.5890   9.1807
     9.2819   9.3852   9.6144   9.6384   9.7235   9.7621   9.8340  10.1626
    10.2359  10.3515  10.3788  10.4115  10.4718

     occupation numbers 
     1.0000   1.0000   1.0000   1.0000   1.0000   1.0000   1.0000   1.0000
     1.0000   1.0000   1.0000   1.0000   1.0000   1.0000   1.0000   1.0000
     1.0000   1.0000   1.0000   1.0000   1.0000   1.0000   1.0000   1.0000
     1.0000   1.0000   1.0000   1.0000   1.0000   1.0000   1.0000   1.0000
     1.0000   1.0000   1.0000   1.0000   1.0000   1.0000   1.0000   1.0000
     1.0000   1.0000   1.0000   1.0000   1.0000   1.0000   1.0000   1.0000
     1.0000   1.0000   1.0000   1.0000   1.0000   1.0000   1.0000   1.0000
     1.0000   1.0000   1.0000   1.0000   1.0000   1.0000   1.0000   1.0000
     1.0000   1.0000   1.0000   1.0000   1.0000   1.0000   1.0000   1.0000
     1.0000   1.0000   1.0000   1.0000   1.0000   1.0000   1.0000   1.0000
     1.0000   1.0000   1.0000   1.0000   1.0000   1.0000   1.0000   1.0000
     1.0000   1.0000   1.0000   1.0000   1.0000   1.0000   1.0000   1.0000
     1.0000   1.0000   1.0000   1.0000   1.0000   1.0000   1.0000   1.0000
     1.0000   1.0000   1.0000   1.0000   1.0000   1.0000   1.0000   1.0000
     1.0000   1.0000   1.0000   1.0000   1.0000   1.0000   1.0000   1.0000
     1.0000   1.0000   1.0000   1.0000   1.0000   1.0000   1.0000   1.0000
     1.0000   1.0000   1.0000   1.0000   1.0000   1.0000   1.0000   1.0000
     1.0000   1.0000   1.0000   1.0000   1.0000   1.0000   1.0000   1.0000
     1.0000   1.0000   1.0000   1.0000   1.0000   1.0000   1.0000   1.0000
     1.0000   1.0000   1.0000   1.0000   1.0000   1.0000   1.0000   1.0000
     1.0000   1.0000   1.0000   1.0000   1.0000   1.0000   1.0000   1.0000
     1.0000   1.0000   1.0000   1.0000   1.0000   1.0000   1.0000   1.0000
     1.0000   1.0000   1.0000   1.0000   1.0000   1.0000   1.0000   0.8759
     0.0000   0.0000   0.0000   0.0000   0.0000   0.0000   0.0000   0.0000
     0.0000   0.0000   0.0000   0.0000   0.0000   0.0000   0.0000   0.0000
     0.0000   0.0000   0.0000   0.0000   0.0000   0.0000   0.0000   0.0000
     0.0000   0.0000   0.0000   0.0000   0.0000   0.0000   0.0000   0.0000
     0.0000   0.0000   0.0000   0.0000   0.0000

     the Fermi energy is     5.2867 ev

!    total energy              =  -15624.93234243 Ry
     total all-electron energy =   -547996.874900 Ry
     estimated scf accuracy    <          1.8E-09 Ry
     smearing contrib. (-TS)   =      -0.00356263 Ry
     internal energy E=F+TS    =  -15624.92877980 Ry

     The total energy is F=E-TS. E is the sum of the following terms:
     one-electron contribution =   -2959.62400355 Ry
     hartree contribution      =    1644.59124787 Ry
     xc contribution           =   -1080.64522334 Ry
     ewald contribution        =   -2283.08554630 Ry
     one-center paw contrib.   =  -10946.16525449 Ry
      -> PAW hartree energy AE =     192.58948739 Ry
      -> PAW hartree energy PS =    -193.06833860 Ry
      -> PAW xc energy AE      =   -1596.91210996 Ry
      -> PAW xc energy PS      =      66.67109232 Ry
      -> total E_H with PAW    =    1644.11239666 Ry
      -> total E_XC with PAW   =   -2610.88624098 Ry

     convergence has been achieved in   1 iterations


     -----------------------------------------------
     Non-local corr. energy    =      10.94106816 Ry
     -----------------------------------------------


     Forces acting on atoms (cartesian axes, Ry/au):

     atom    1 type  1   force =     0.00000208   -0.00010377    0.00026745
     atom    2 type  1   force =    -0.00000160    0.00091982   -0.00071340
     atom    3 type  1   force =    -0.00008978    0.00005340    0.00026627
     atom    4 type  1   force =     0.00080319   -0.00046343   -0.00071276
     atom    5 type  1   force =     0.00000144   -0.00000058    0.00064954
     atom    6 type  1   force =     0.00000459   -0.00000204   -0.00000843
     atom    7 type  1   force =     0.00009259    0.00005235    0.00026693
     atom    8 type  1   force =    -0.00079900   -0.00046069   -0.00071326
     atom    9 type  2   force =     0.00000841   -0.00000178    0.00061999
     atom   10 type  2   force =    -0.00033790   -0.00016778   -0.00033354
     atom   11 type  2   force =     0.00002425    0.00002019    0.00020053
     atom   12 type  2   force =    -0.00003127    0.00037994   -0.00033443
     atom   13 type  2   force =    -0.00000548   -0.00003060    0.00020179
     atom   14 type  2   force =     0.00034022   -0.00020434   -0.00034757
     atom   15 type  2   force =    -0.00002133    0.00001200    0.00020784
     atom   16 type  2   force =    -0.00000413    0.00000486    0.00009336
     atom   17 type  2   force =    -0.00021502    0.00012921    0.00023136
     atom   18 type  2   force =     0.00000802   -0.00000643    0.00009813
     atom   19 type  2   force =     0.00003270   -0.00024226    0.00020905
     atom   20 type  2   force =     0.00000811   -0.00000223    0.00010006
     atom   21 type  2   force =     0.00021921    0.00009382    0.00020695
     atom   22 type  2   force =    -0.00000537    0.00000268    0.00031461
     atom   23 type  2   force =    -0.00003392    0.00001765   -0.00077048
     The non-local contrib.  to forces
     atom    1 type  1   force =     0.00000362   -0.00311647    0.00295599
     atom    2 type  1   force =    -0.00000206   -0.04767422    0.07393880
     atom    3 type  1   force =    -0.00265351    0.00152589    0.00296597
     atom    4 type  1   force =    -0.04114086    0.02376783    0.07395973
     atom    5 type  1   force =     0.00000052   -0.00000766   -0.01901607
     atom    6 type  1   force =    -0.00001576    0.00002670   -0.11517802
     atom    7 type  1   force =     0.00267691    0.00153628    0.00296117
     atom    8 type  1   force =     0.04120606    0.02380951    0.07396015
     atom    9 type  2   force =    -0.00000300    0.00001114    0.25168177
     atom   10 type  2   force =    -0.06550492   -0.03778605    0.18704373
     atom   11 type  2   force =    -0.00537674   -0.00309733    0.25474064
     atom   12 type  2   force =    -0.00003064    0.07560926    0.18705101
     atom   13 type  2   force =    -0.00000393    0.00621239    0.25474364
     atom   14 type  2   force =     0.06551351   -0.03782809    0.18703346
     atom   15 type  2   force =     0.00536962   -0.00309866    0.25473970
     atom   16 type  2   force =     0.00751176   -0.00433358   -0.24324615
     atom   17 type  2   force =     0.04075761   -0.02353020   -0.22009610
     atom   18 type  2   force =     0.00000575    0.00868160   -0.24324927
     atom   19 type  2   force =     0.00001330    0.04705102   -0.22010490
     atom   20 type  2   force =    -0.00751484   -0.00434117   -0.24324572
     atom   21 type  2   force =    -0.04075339   -0.02354133   -0.22011484
     atom   22 type  2   force =    -0.00001246    0.00001363   -0.24563369
     atom   23 type  2   force =    -0.00005389    0.00007592   -0.07926269
     The ionic contribution  to forces
     atom    1 type  1   force =    -0.00004858   -0.02543818    2.30048563
     atom    2 type  1   force =     0.00010515   -2.23650999   -9.31475019
     atom    3 type  1   force =    -0.02328284    0.01344534    2.30084078
     atom    4 type  1   force =    -1.94045642    1.11935031   -9.31383328
     atom    5 type  1   force =     0.00010822    0.00008225    2.54734188
     atom    6 type  1   force =     0.00038437   -0.00024393   -0.53172716
     atom    7 type  1   force =     0.02268556    0.01313872    2.30054609
     atom    8 type  1   force =     1.93902602    1.11831891   -9.31436714
     atom    9 type  2   force =     0.00025386   -0.00026954  -14.23540931
     atom   10 type  2   force =     3.53760339    2.04122346  -12.64984788
     atom   11 type  2   force =     0.65602438    0.37832554  -15.34946489
     atom   12 type  2   force =     0.00071004   -4.08315165  -12.65073551
     atom   13 type  2   force =     0.00001436   -0.75727215  -15.34904334
     atom   14 type  2   force =    -3.53816568    2.04241311  -12.64947602
     atom   15 type  2   force =    -0.65607617    0.37838337  -15.34965660
     atom   16 type  2   force =     1.93103616   -1.11470948   20.99132381
     atom   17 type  2   force =    -1.52803795    0.88379121    9.25287167
     atom   18 type  2   force =    -0.00002411    2.22998332   20.99063113
     atom   19 type  2   force =    -0.00069243   -1.76500373    9.25248927
     atom   20 type  2   force =    -1.93118285   -1.11479145   20.99073201
     atom   21 type  2   force =     1.52761636    0.88429910    9.25294484
     atom   22 type  2   force =     0.00021207   -0.00075653   19.49733434
     atom   23 type  2   force =     0.00218709   -0.00460799    7.03076989
     The local contribution  to forces
     atom    1 type  1   force =     0.00004431    0.02837700   -2.30302856
     atom    2 type  1   force =    -0.00013785    2.28597697    9.24158740
     atom    3 type  1   force =     0.02578013   -0.01487946   -2.30339470
     atom    4 type  1   force =     1.98312220   -1.14400174    9.24064118
     atom    5 type  1   force =    -0.00010881   -0.00007461   -2.52789024
     atom    6 type  1   force =    -0.00035383    0.00021130    0.64480036
     atom    7 type  1   force =    -0.02520757   -0.01458346   -2.30309469
     atom    8 type  1   force =    -1.98180696   -1.14300255    9.24118524
     atom    9 type  2   force =    -0.00026077    0.00026336   13.98971661
     atom   10 type  2   force =    -3.47381022   -2.00448982   12.46653408
     atom   11 type  2   force =    -0.65084648   -0.37535547   15.10035007
     atom   12 type  2   force =    -0.00061993    4.00955049   12.46741639
     atom   13 type  2   force =     0.00000046    0.75129393   15.09992473
     atom   14 type  2   force =     3.47436112   -2.00556749   12.46619397
     atom   15 type  2   force =     0.65090548   -0.37539963   15.10053306
     atom   16 type  2   force =    -1.93830204    1.11890117  -20.75329009
     atom   17 type  2   force =     1.48818692   -0.86078867   -9.03733528
     atom   18 type  2   force =     0.00000837   -2.23838141  -20.75260688
     atom   19 type  2   force =     0.00062567    1.71896687   -9.03690663
     atom   20 type  2   force =     1.93844915    1.11900071  -20.75271119
     atom   21 type  2   force =    -1.48776449   -0.86122087   -9.03734803
     atom   22 type  2   force =    -0.00019020    0.00073721  -19.25649716
     atom   23 type  2   force =    -0.00207636    0.00450749   -6.95394654
     The core correction contribution to forces
     atom    1 type  1   force =    -0.00000009    0.00007508   -0.00007635
     atom    2 type  1   force =    -0.00000026   -0.00084646   -0.00142798
     atom    3 type  1   force =     0.00006443   -0.00003723   -0.00007634
     atom    4 type  1   force =    -0.00073707    0.00042527   -0.00142988
     atom    5 type  1   force =     0.00000009    0.00000008    0.00029512
     atom    6 type  1   force =     0.00000031   -0.00000049    0.00213661
     atom    7 type  1   force =    -0.00006475   -0.00003730   -0.00007638
     atom    8 type  1   force =     0.00073467    0.00042416   -0.00142887
     atom    9 type  2   force =    -0.00000094    0.00000240   -0.00529927
     atom   10 type  2   force =     0.00140254    0.00080755   -0.00400846
     atom   11 type  2   force =     0.00022758    0.00013400   -0.00534561
     atom   12 type  2   force =     0.00000055   -0.00161906   -0.00400872
     atom   13 type  2   force =    -0.00000079   -0.00026266   -0.00534554
     atom   14 type  2   force =    -0.00140257    0.00080825   -0.00400807
     atom   15 type  2   force =    -0.00022873    0.00013374   -0.00534574
     atom   16 type  2   force =    -0.00025848    0.00014980    0.00538165
     atom   17 type  2   force =    -0.00108604    0.00062720    0.00479665
     atom   18 type  2   force =    -0.00000041   -0.00030183    0.00538247
     atom   19 type  2   force =    -0.00000020   -0.00125661    0.00479659
     atom   20 type  2   force =     0.00025950    0.00015086    0.00538187
     atom   21 type  2   force =     0.00108619    0.00062750    0.00479694
     atom   22 type  2   force =    -0.00000072    0.00000209    0.00517907
     atom   23 type  2   force =     0.00000194   -0.00000105    0.00171374
     The Hubbard contrib.    to forces
     atom    1 type  1   force =     0.00000000    0.00000000    0.00000000
     atom    2 type  1   force =     0.00000000    0.00000000    0.00000000
     atom    3 type  1   force =     0.00000000    0.00000000    0.00000000
     atom    4 type  1   force =     0.00000000    0.00000000    0.00000000
     atom    5 type  1   force =     0.00000000    0.00000000    0.00000000
     atom    6 type  1   force =     0.00000000    0.00000000    0.00000000
     atom    7 type  1   force =     0.00000000    0.00000000    0.00000000
     atom    8 type  1   force =     0.00000000    0.00000000    0.00000000
     atom    9 type  2   force =     0.00000000    0.00000000    0.00000000
     atom   10 type  2   force =     0.00000000    0.00000000    0.00000000
     atom   11 type  2   force =     0.00000000    0.00000000    0.00000000
     atom   12 type  2   force =     0.00000000    0.00000000    0.00000000
     atom   13 type  2   force =     0.00000000    0.00000000    0.00000000
     atom   14 type  2   force =     0.00000000    0.00000000    0.00000000
     atom   15 type  2   force =     0.00000000    0.00000000    0.00000000
     atom   16 type  2   force =     0.00000000    0.00000000    0.00000000
     atom   17 type  2   force =     0.00000000    0.00000000    0.00000000
     atom   18 type  2   force =     0.00000000    0.00000000    0.00000000
     atom   19 type  2   force =     0.00000000    0.00000000    0.00000000
     atom   20 type  2   force =     0.00000000    0.00000000    0.00000000
     atom   21 type  2   force =     0.00000000    0.00000000    0.00000000
     atom   22 type  2   force =     0.00000000    0.00000000    0.00000000
     atom   23 type  2   force =     0.00000000    0.00000000    0.00000000
     The SCF correction term to forces
     atom    1 type  1   force =     0.00000066    0.00000002   -0.00000687
     atom    2 type  1   force =     0.00003126   -0.00002525    0.00000094
     atom    3 type  1   force =    -0.00000014    0.00000009   -0.00000705
     atom    4 type  1   force =     0.00001318   -0.00000387    0.00001186
     atom    5 type  1   force =    -0.00000074    0.00000059   -0.00001876
     atom    6 type  1   force =    -0.00001266    0.00000560    0.00002217
     atom    7 type  1   force =     0.00000029   -0.00000066   -0.00000687
     atom    8 type  1   force =     0.00003906   -0.00000949   -0.00000025
     atom    9 type  2   force =     0.00001712   -0.00000791   -0.00000742
     atom   10 type  2   force =    -0.00003085    0.00007830    0.00000738
     atom   11 type  2   force =    -0.00000664    0.00001468   -0.00001728
     atom   12 type  2   force =    -0.00009344   -0.00000789    0.00000479
     atom   13 type  2   force =    -0.00001773   -0.00000089   -0.00001532
     atom   14 type  2   force =     0.00003168   -0.00002889   -0.00002853
     atom   15 type  2   force =     0.00000633   -0.00000559   -0.00000021
     atom   16 type  2   force =     0.00000631   -0.00000184   -0.00001347
     atom   17 type  2   force =    -0.00003771    0.00003088    0.00005681
     atom   18 type  2   force =     0.00001626    0.00001311    0.00000307
     atom   19 type  2   force =     0.00008420    0.00000142   -0.00000289
     atom   20 type  2   force =    -0.00000500   -0.00001996    0.00000547
     atom   21 type  2   force =     0.00003238   -0.00006936   -0.00000957
     atom   22 type  2   force =    -0.00001621    0.00000751   -0.00000557
     atom   23 type  2   force =    -0.00009485    0.00004451    0.00001751

     Total force =     0.002663     Total SCF correction =     0.000237


     Computing stress (Cartesian axis) and pressure



     -----------------------------------------------
     Non-local corr. energy    =      10.94106816 Ry
     -----------------------------------------------

          total   stress  (Ry/bohr**3)                   (kbar)     P=       13.02
   0.00008436  -0.00000000  -0.00000000           12.41       -0.00       -0.00
  -0.00000000   0.00008435   0.00000001           -0.00       12.41        0.00
  -0.00000000   0.00000001   0.00009691           -0.00        0.00       14.26

     kinetic stress (kbar)  14469.55      0.00     -0.00
                                0.00  14469.55      0.00
                               -0.00      0.00  14481.63

     local   stress (kbar)  -8782.25      0.02     -0.00
                                0.02  -8782.16      0.07
                               -0.00      0.07   2213.69

     nonloc. stress (kbar)  -1168.15      0.00     -0.00
                                0.00  -1168.14      0.00
                               -0.00      0.00  -1170.94

     hartree stress (kbar)  12199.84     -0.00     -0.00
                               -0.00  12199.81     -0.03
                               -0.00     -0.03   7199.17

     exc-cor stress (kbar)   6605.78      0.00      0.00
                                0.00   6605.78     -0.00
                                0.00     -0.00   6604.07

     corecor stress (kbar) -10770.09     -0.00      0.00
                               -0.00 -10770.09     -0.00
                                0.00     -0.00 -10770.04

     ewald   stress (kbar) -12621.30     -0.02      0.01
                               -0.02 -12621.38     -0.05
                                0.01     -0.05 -18624.04

     hubbard stress (kbar)      0.00      0.00      0.00
                                0.00      0.00      0.00
                                0.00      0.00      0.00

     DFT-D   stress (kbar)      0.00      0.00      0.00
                                0.00      0.00      0.00
                                0.00      0.00      0.00

     XDM     stress (kbar)      0.00      0.00      0.00
                                0.00      0.00      0.00
                                0.00      0.00      0.00

     dft-nl  stress (kbar)     79.04     -0.00     -0.00
                               -0.00     79.04      0.00
                               -0.00      0.00     80.71

     TS-vdW  stress (kbar)      0.00      0.00      0.00
                                0.00      0.00      0.00
                                0.00      0.00      0.00

     MDB     stress (kbar)      0.00      0.00      0.00
                                0.00      0.00      0.00
                                0.00      0.00      0.00

     3D-RISM stress (kbar)      0.00      0.00      0.00
                                0.00      0.00      0.00
                                0.00      0.00      0.00



     -----------------------------------------------
     Non-local corr. energy    =      10.94106816 Ry
     -----------------------------------------------



     -----------------------------------------------
     Non-local corr. energy    =      10.94106816 Ry
     -----------------------------------------------



     -----------------------------------------------
     Non-local corr. energy    =      10.94106816 Ry
     -----------------------------------------------



     -----------------------------------------------
     Non-local corr. energy    =      10.94106816 Ry
     -----------------------------------------------



     -----------------------------------------------
     Non-local corr. energy    =      10.94106816 Ry
     -----------------------------------------------



     -----------------------------------------------
     Non-local corr. energy    =      10.94106816 Ry
     -----------------------------------------------



     -----------------------------------------------
     Non-local corr. energy    =      10.94106816 Ry
     -----------------------------------------------



     -----------------------------------------------
     Non-local corr. energy    =      10.94106816 Ry
     -----------------------------------------------



     -----------------------------------------------
     Non-local corr. energy    =      10.94106816 Ry
     -----------------------------------------------



     -----------------------------------------------
     Non-local corr. energy    =      10.94106816 Ry
     -----------------------------------------------



     -----------------------------------------------
     Non-local corr. energy    =      10.94106816 Ry
     -----------------------------------------------



     -----------------------------------------------
     Non-local corr. energy    =      10.94106816 Ry
     -----------------------------------------------



     -----------------------------------------------
     Non-local corr. energy    =      10.94106816 Ry
     -----------------------------------------------



     -----------------------------------------------
     Non-local corr. energy    =      10.94106816 Ry
     -----------------------------------------------



     -----------------------------------------------
     Non-local corr. energy    =      10.94106816 Ry
     -----------------------------------------------



     -----------------------------------------------
     Non-local corr. energy    =      10.94106816 Ry
     -----------------------------------------------



     -----------------------------------------------
     Non-local corr. energy    =      10.94106816 Ry
     -----------------------------------------------



     -----------------------------------------------
     Non-local corr. energy    =      10.94106816 Ry
     -----------------------------------------------



     -----------------------------------------------
     Non-local corr. energy    =      10.94106816 Ry
     -----------------------------------------------



     -----------------------------------------------
     Non-local corr. energy    =      10.94106816 Ry
     -----------------------------------------------



     -----------------------------------------------
     Non-local corr. energy    =      10.94106816 Ry
     -----------------------------------------------



     -----------------------------------------------
     Non-local corr. energy    =      10.94106816 Ry
     -----------------------------------------------



     -----------------------------------------------
     Non-local corr. energy    =      10.94106816 Ry
     -----------------------------------------------



     -----------------------------------------------
     Non-local corr. energy    =      10.94106816 Ry
     -----------------------------------------------



     -----------------------------------------------
     Non-local corr. energy    =      10.94106816 Ry
     -----------------------------------------------



     -----------------------------------------------
     Non-local corr. energy    =      10.94106816 Ry
     -----------------------------------------------



     -----------------------------------------------
     Non-local corr. energy    =      10.94106816 Ry
     -----------------------------------------------



     -----------------------------------------------
     Non-local corr. energy    =      10.94106816 Ry
     -----------------------------------------------



     -----------------------------------------------
     Non-local corr. energy    =      10.94106816 Ry
     -----------------------------------------------



     -----------------------------------------------
     Non-local corr. energy    =      10.94106816 Ry
     -----------------------------------------------



     -----------------------------------------------
     Non-local corr. energy    =      10.94106816 Ry
     -----------------------------------------------



     -----------------------------------------------
     Non-local corr. energy    =      10.94106816 Ry
     -----------------------------------------------



     -----------------------------------------------
     Non-local corr. energy    =      10.94106816 Ry
     -----------------------------------------------



     -----------------------------------------------
     Non-local corr. energy    =      10.94106816 Ry
     -----------------------------------------------

 BEEFens 2000 ensemble energies
             -0.922133765854159E+01
             -0.926983901570990E+02
             -0.421680596491452E+02
              0.324013233728660E+02
             -0.708749455237268E+02
             -0.867576334777856E+02
              0.445570720757210E+02
              0.152182516565745E+00
              0.750237490083846E+02
             -0.473921503069312E+01
              0.384233183744798E+02
              0.390902060663120E+01
             -0.296393468982879E+01
             -0.242040830864141E+01
              0.478495137933479E+02
             -0.361085982203772E+02
             -0.708322436943026E+02
             -0.228382238466903E+02
              0.204583656791819E+02
             -0.457155845851162E+00
              0.104371954703988E+03
              0.871148628075737E+02
             -0.536513381616218E+02
              0.185633989043266E+02
             -0.111818265182122E+03
              0.917802750370593E+02
              0.314134121937691E+02
              0.828747445130059E+02
              0.558479450273207E+02
             -0.259503680374386E+02
              0.204559171073104E+02
             -0.365056567281147E+02
              0.152288179095272E+02
              0.555451616122438E+02
              0.598450648043660E+02
             -0.259523894664933E+02
              0.131899824568046E+03
             -0.531208322872002E+02
             -0.353166472525629E+02
              0.527383807197361E+02
              0.232550313071676E+02
              0.401369778285485E+02
             -0.774561933703282E+02
             -0.504911453435636E+01
              0.743223570389027E+02
              0.971277653022447E+02
             -0.986202160136719E+02
              0.630617014149703E+01
              0.341826934587887E+02
              0.220690799927999E+02
              0.385369590791809E+02
              0.846700351618530E+02
             -0.550399981313885E+02
             -0.534088482367347E+02
             -0.743465318634757E+02
             -0.107803628906078E+02
             -0.633837562811988E+02
              0.817671111633422E+01
             -0.914976001415766E+01
             -0.503415718394975E+02
              0.820929111152229E+02
              0.832564932095114E+02
             -0.228596671121524E+02
             -0.628288734453100E+02
             -0.381478740846334E+02
             -0.243913847096560E+01
              0.605478407674283E+02
             -0.853296490641247E+01
             -0.604714959240699E+02
              0.558632419727885E+02
             -0.103756332835364E+03
              0.917865798832262E+02
             -0.106207868419443E+03
             -0.465168299366906E+02
             -0.152281185124737E+02
             -0.969925429485320E+01
              0.550849593580995E+01
              0.733129837572721E+02
              0.461061909103304E+02
             -0.772467187260693E+02
             -0.102557251718333E+03
             -0.534801648711009E+02
             -0.397331717037106E+02
              0.603315101120916E+01
             -0.126668630298772E+02
             -0.371864199411000E+02
              0.454246401435627E+02
             -0.389576649076494E+02
              0.151506550405043E+03
             -0.694938809306245E+02
              0.151654258128874E+02
              0.158763134947776E+02
              0.226726443152415E+02
              0.525509831117922E+02
              0.375106732675017E+02
              0.356365311335487E+02
             -0.584451667139778E+02
              0.346888797848174E+02
              0.849479540953757E+01
             -0.112346978178869E+01
              0.685457604461886E+02
             -0.810610574052293E+02
              0.137166094653071E+03
             -0.322437390163514E+02
             -0.146334925072758E+03
              0.800384306080184E+01
              0.134327337011072E+02
             -0.401417522596198E+02
             -0.769830822116608E+02
             -0.387050182150684E+02
             -0.285715912826075E+02
              0.976853682727096E+00
             -0.607157371835640E+02
              0.332364717190262E+01
              0.658304552638418E+01
              0.140189422778418E+02
              0.132078078017982E+03
              0.156368716903746E+02
             -0.800959137528548E+02
             -0.600897503503681E+02
             -0.189317162501049E+02
             -0.520096566836581E+02
              0.883600516930220E+02
             -0.561158269903250E+02
              0.267262097304916E+01
             -0.111562217694549E+02
              0.145711533195724E+02
              0.520757212726741E+02
             -0.567018962225562E+02
             -0.111472491074836E+03
             -0.203353727329391E+02
             -0.233159254854694E+02
             -0.167855769463438E+02
              0.563835414395091E+02
             -0.979450463692690E+02
             -0.110707313081567E+03
             -0.144984260608315E+02
             -0.242276832809956E+02
             -0.395430511733827E+01
              0.302928955148226E+02
              0.669028430155048E+02
              0.339168197891779E+02
             -0.329903188035309E+02
             -0.350150132850959E+02
             -0.101282002975264E+03
             -0.762924006988851E+01
             -0.482017844727293E+02
             -0.302348994813997E+02
              0.840251421632308E+02
             -0.648258893461911E+02
             -0.220964800566740E+02
              0.781892445811038E+02
             -0.106823472238880E+02
             -0.203495362310789E+02
              0.132453211731203E+02
              0.311415862277120E+02
             -0.501195244372394E+02
              0.293364567180233E+02
              0.196163217974769E+02
              0.460257787764584E+02
             -0.474069595297624E+02
             -0.386179727821510E+02
              0.586800808075075E+02
             -0.488534030949415E+01
             -0.229476946734603E+02
             -0.199415190941902E+02
             -0.277240051985568E+02
             -0.372824391737296E+02
             -0.875540062186375E+02
             -0.110606177241427E+03
             -0.348083413264013E+02
             -0.344913397975031E+02
             -0.403393261329102E+02
             -0.674356633705344E+02
             -0.348398001564569E+02
              0.599578120380422E+02
              0.259083501280356E+02
              0.849062096472627E+02
             -0.361476130318641E+02
              0.290856975756782E+02
              0.157501934519928E+02
             -0.894950157456457E+02
             -0.212293285799428E+02
              0.479152886525824E+02
             -0.143840193239556E+03
              0.311855819579218E+02
              0.241267809914139E+02
              0.916686639763426E+02
             -0.283276455808387E+02
              0.792534223664477E+02
              0.121270645410822E+03
              0.100627009915682E+03
             -0.566475410132928E+02
             -0.308567006844499E+02
             -0.173223468936965E+02
              0.402877871888466E+02
              0.206326397063766E+02
             -0.218076825838177E+02
              0.587401328263341E+02
              0.116842676783433E+03
             -0.408374209396199E+02
             -0.287441848571052E+02
              0.193203267125111E+02
             -0.664213804090247E+02
             -0.572457867287475E+02
              0.508807983358527E+01
              0.172644287359481E+01
             -0.106845088140885E+02
              0.100270882913609E+03
              0.316425141968843E+02
             -0.166207763875433E+02
             -0.650144938325639E+01
             -0.131855592777848E+03
             -0.141413318970262E+02
             -0.300443224325177E+02
             -0.367642656961215E+01
              0.655943292439434E+02
             -0.348707376485277E+01
              0.914655142658969E+02
             -0.591761299068333E+02
             -0.597650680973497E+02
              0.603627229489898E+02
              0.794929778442894E+02
              0.105665751356380E+03
             -0.602982539274306E+02
             -0.338154150396979E+02
              0.628393183491495E+02
              0.692914408170772E+02
             -0.777454573646480E+02
             -0.197754760329250E+02
              0.833917572497753E+02
              0.540552611144735E+02
              0.325731713696164E+02
              0.299781227375129E+02
             -0.215880023891368E+02
             -0.472927391059909E+01
              0.347580721213214E+02
             -0.365060234510757E+02
             -0.463053026430457E+02
              0.111266903146329E+02
             -0.213045523155702E+02
              0.314970236857856E+02
             -0.537673019831992E+02
              0.646160935883158E+02
             -0.944656139812594E+01
              0.634860303826408E+02
             -0.232664672420026E+02
             -0.781251154941094E+02
             -0.823353954515198E+00
              0.204449628910390E+02
              0.171807353775366E+02
              0.761019683891021E+01
              0.909575938546016E+01
              0.148483196330715E+02
              0.119159248973603E+03
             -0.878186924665389E+02
              0.195031699657107E+02
             -0.465564757397752E+01
              0.203434183790580E+01
              0.476120574763019E+02
              0.346535416935257E+02
             -0.361291440766051E+02
              0.103880848931798E+02
             -0.607666257366310E+02
             -0.198662586911538E+02
             -0.129772797161351E+01
             -0.131657939473543E+03
              0.316382711160871E+02
              0.646452260339607E+02
              0.327994297005277E+02
              0.477636709886771E+02
             -0.283607430221493E+02
              0.277378805855355E+02
              0.708565971942184E+02
             -0.542626151218903E+02
              0.319073786813204E+02
              0.884707294847387E+02
             -0.121365760990257E+02
              0.562741072275755E+02
             -0.172552941895915E+02
             -0.238159563449377E+02
             -0.534029016432140E+01
             -0.617810345264936E+02
              0.359019222054496E+02
              0.336665897173721E+02
              0.659534943355772E+02
             -0.362404911686588E+02
              0.587490952161666E+02
              0.117458900984725E+03
              0.631417871341296E+02
             -0.536934978543042E+02
             -0.207280442223780E+02
             -0.102795021351583E+03
              0.970762316020631E+01
              0.139291773075925E+02
             -0.327826526913114E+01
             -0.202334552226871E+02
              0.153576269413711E+02
              0.740989068490089E+02
             -0.843082103362008E+00
              0.342044296141215E+02
              0.333332788212397E+02
             -0.164901451834569E+02
             -0.106386941857286E+03
              0.393337015311247E+02
             -0.703097155371502E+00
              0.553640256633043E+02
             -0.148930279030229E+02
             -0.203473148877425E+02
             -0.240647221752185E+02
              0.155105293758585E+02
              0.478051839961358E+01
              0.277728109368508E+02
              0.287270764137927E+02
             -0.771381577900938E+02
              0.417245383698960E+02
              0.504673425086038E+02
              0.408234644208708E+02
              0.789184660708163E+02
              0.317459522243231E+02
              0.913339550493671E+02
             -0.273973415574890E+02
             -0.308687321149221E+02
              0.448635501762334E+02
              0.451559428210228E+02
              0.128071998654934E+01
              0.719564565237528E+01
              0.487725622698782E+02
              0.373390873860752E+02
             -0.235797645100181E+02
             -0.462260292613695E+01
             -0.808185427233212E+01
             -0.820230901438120E+01
             -0.859613267702274E+02
             -0.271758641321930E+02
              0.413677851801773E+02
              0.237501242473214E+02
              0.349572705250833E+02
             -0.656874520335049E+02
             -0.933361103630516E+02
              0.232238188008180E+02
              0.917994902410585E+02
              0.475865202306785E+02
             -0.470463198395970E+02
             -0.918836980210494E+02
             -0.502154894532634E+01
              0.301678226014592E+02
              0.304100712724593E+02
             -0.119102998531821E+02
              0.802866228637382E+02
              0.246068111936858E+02
             -0.561788409947467E+02
              0.613527312674634E+02
              0.329507504575491E+02
              0.458408458457225E+01
             -0.192103968414645E+02
             -0.407146313232601E+02
             -0.626289584204258E+02
              0.201059523894187E+02
             -0.125459372514062E+02
             -0.405125405111771E+02
              0.305707095808295E+01
             -0.375135458447546E+02
              0.229041445503037E+02
             -0.996825058822540E+02
              0.236084624614812E+02
             -0.108333027676387E+02
             -0.474128019268861E+01
              0.303788900975156E+02
              0.289684940878303E+02
              0.127101286264498E+03
              0.326589983509490E+01
             -0.413107139345752E+02
             -0.941114117264833E+02
              0.488533959547028E+02
             -0.510789884661790E+01
              0.340161433559522E+02
              0.205034314264971E+02
             -0.120320909770275E+02
              0.776968211929291E+02
              0.640733989467277E+02
             -0.161276024969359E+02
              0.674937270089293E+02
             -0.845913086391987E+02
              0.203867887943322E+02
              0.493615040567129E+02
             -0.603487999176167E+02
             -0.783165410458078E+02
             -0.857480688663807E+02
             -0.847350639134119E+02
              0.809159125460686E+02
             -0.655101210443624E+02
             -0.106163995015930E+02
              0.404893946275200E+02
             -0.328791140860475E+02
              0.130172884398042E+02
              0.205232697504151E+02
              0.453077227127450E+02
             -0.730616740496873E+02
              0.515934700913435E+02
             -0.253920783140250E+02
             -0.107979223028141E+03
              0.398452120533005E+02
             -0.259691017066536E+02
             -0.604438347407536E+02
             -0.282162799483012E+02
              0.507342810772185E+02
              0.393018014817465E+02
              0.136296798904971E+02
              0.236594117728170E+02
             -0.148096623635433E+01
              0.209143929759150E+02
             -0.663915107812369E+02
              0.121959203646423E+02
             -0.141365881518036E+02
             -0.543492395452385E+02
              0.152587638064202E+02
             -0.827503201840670E+01
              0.778647562219260E+02
              0.129175686476042E+02
              0.867808939661303E+02
              0.120951641368540E+02
              0.244529727555956E+02
             -0.235164420361677E+02
             -0.214136612139439E+02
              0.497576450824850E+02
              0.192644937331854E+02
             -0.431340661952777E+02
              0.973505174059699E+02
              0.719263809619115E+02
              0.726882973430114E+02
              0.487811084766041E+02
             -0.176086658939087E+02
             -0.120606235478107E+03
             -0.872979030864803E+01
             -0.336845016296995E+02
             -0.461894491427229E+02
              0.515979579118370E+02
             -0.112766559963160E+03
              0.480470093693752E+02
              0.388028997534644E+02
             -0.384342049178830E+02
             -0.642654500262506E+01
             -0.157188911691176E+02
             -0.344063788422719E+02
              0.366237268583741E+02
              0.451591384057674E+02
             -0.652742420921982E+01
             -0.265003881571252E+02
              0.101576447498537E+02
             -0.112714286017962E+01
             -0.706803669368887E+02
             -0.493986518999176E+02
             -0.375319062180824E+01
             -0.550566462611307E+02
             -0.295743599700006E+02
              0.180673156838674E+01
             -0.916626056402319E+02
             -0.480120469679923E+02
              0.294819280559520E+01
             -0.116321579275184E+03
              0.152288632851532E+02
             -0.111544463085216E+03
              0.606652421325181E+02
             -0.483072160702784E+02
              0.647221956213462E+02
             -0.230029501205003E+02
             -0.920796177119311E+02
             -0.507507914235298E+01
             -0.494469166615809E+02
             -0.273114978512798E+02
              0.178692597509684E+02
             -0.102730442268596E+03
              0.175207830333699E+02
              0.499950735554435E+02
             -0.986505943303393E+02
             -0.115468664131647E+02
             -0.912388226924560E+02
             -0.101642590380613E+03
             -0.651060667818668E+02
             -0.980579127237127E+01
             -0.500667775606718E+02
              0.495598161286466E+02
              0.551464971829569E+02
             -0.406100533460769E+02
              0.280832180376230E+02
             -0.394775721339103E+02
              0.352283094165866E+02
             -0.532052090222469E+02
             -0.532953511781240E+02
              0.498835915045193E+02
              0.379753185456154E+02
              0.144480140454257E+02
              0.553432948290206E+02
              0.122599613328026E+03
             -0.200101956975908E+02
              0.378531135102136E+02
             -0.107966805199426E+03
             -0.994905693291938E+02
             -0.479249766765668E+01
              0.107211749838689E+02
              0.312095704103106E+02
             -0.800904438465150E+02
              0.155578861963445E+02
              0.965701859124061E+02
             -0.763849592823377E+02
             -0.140693060591582E+02
             -0.105913793955705E+03
             -0.108497097463530E+02
              0.566407559272511E+01
             -0.734486124656547E+02
              0.225270192252956E+02
             -0.109059803294221E+03
             -0.468375325803362E+01
             -0.805897968193722E+01
              0.105638852934741E+02
             -0.665529489139601E+02
              0.495940821577939E+02
             -0.808279610814020E+01
             -0.925246428166599E+01
              0.862128037023513E+01
              0.339870797854741E+02
              0.699426090968059E+02
             -0.193617958424518E+02
              0.533159846258713E+02
              0.913364545188797E+02
              0.173137473347645E+02
             -0.367124612860846E+01
              0.280379469742916E+02
              0.838473493356642E+01
             -0.110193822478665E+02
              0.422595443677615E+02
             -0.120931222871909E+02
             -0.599981572138147E+02
              0.333930367519050E+02
             -0.426386872377337E+02
             -0.342715157487568E+02
             -0.540829423008667E+00
             -0.780061834651972E+02
             -0.198491830159395E+02
             -0.855077637190338E+02
             -0.466923852194074E+01
             -0.230525997180446E+02
              0.429688417595286E+02
             -0.909721799957288E+02
              0.835295997563310E+01
              0.269270994820181E+01
             -0.735226660513121E+02
              0.430963876211376E+02
              0.813410110039064E+02
              0.215376159211853E+02
             -0.703672658118379E+02
             -0.777776444124504E+02
              0.104628636919837E+03
              0.789394210379476E+02
              0.340841457690833E+02
             -0.260649643765591E+02
             -0.488151658233906E+02
              0.459801617188382E+02
              0.193803215142833E+02
              0.904534797477474E+02
              0.829064745680162E+02
              0.703201248463938E+02
              0.367740318174901E+02
             -0.145942225765494E+03
             -0.392535726287192E+02
              0.185776308833670E+02
             -0.308196780722328E+02
              0.844916957938387E+02
              0.362978039997760E+02
             -0.335492915562058E+02
             -0.102063653803777E+02
              0.979287255850414E+02
              0.951660776407027E+01
             -0.107271091361256E+02
             -0.165614937661979E+03
              0.405871624482513E+02
             -0.361143253531095E+02
              0.743385397998248E+02
             -0.640092575817991E+02
             -0.989457837481581E+01
              0.258918440345042E+02
             -0.562401251243788E+02
             -0.931200188258252E+02
              0.423829900531996E+01
              0.317876964854824E+02
             -0.378097546529455E+01
             -0.244027387351163E+02
             -0.135529453697327E+02
             -0.559369656541099E+02
             -0.105770934438182E+03
              0.128000395443684E+01
             -0.397489178385243E+02
             -0.978600189036487E+01
             -0.423241627945589E+02
              0.168996108089950E+03
              0.354951078917983E+02
             -0.569204809958022E+02
             -0.534145977917716E+02
              0.225505668028076E+02
              0.411740621672790E+02
              0.648735228321896E+02
             -0.464964165436368E+02
             -0.102383608834277E+03
             -0.297823793367621E+02
             -0.557876477078232E+02
              0.572665820638367E+02
              0.655511714639605E+02
              0.881596078765415E+01
              0.255056342064936E+02
              0.446566184211998E+02
              0.540861375318161E+02
             -0.102876297057881E+03
             -0.217594459512316E+02
              0.679802776664144E+01
             -0.154486791069566E+02
             -0.447403016568940E+02
              0.191982658735054E+01
             -0.171887982823774E+02
             -0.413158470221379E+02
             -0.416418901822964E+02
              0.171482126334681E+02
             -0.129043277158821E+03
             -0.657990982873136E+02
             -0.558762610261974E+02
              0.115836559509449E+03
             -0.203164534631172E+02
             -0.120242755289160E+02
              0.125235895750125E+03
             -0.614752003506986E+02
              0.760551608199901E+02
             -0.479293228397486E+02
             -0.144958707397097E+01
              0.225549425538605E+01
             -0.104889494625192E+02
             -0.574809904190141E+02
              0.162069464274203E+02
              0.893509041859153E+01
             -0.443516764334215E+02
              0.403686294782801E+02
             -0.438686728909518E+02
             -0.122735169386912E+02
              0.121780241712606E+02
              0.557473825975660E+01
             -0.289003200583578E+02
             -0.221323809435636E+02
              0.579709121168386E+02
              0.133944094347519E+02
              0.234810207342782E+02
             -0.518691254647827E+02
             -0.459913852177164E+01
             -0.194180966862577E+02
             -0.193327015042166E+02
              0.990348238518692E+01
             -0.505628228256530E+02
             -0.361393570771450E+02
             -0.287193103217054E+02
             -0.248581673984938E+01
              0.601703086995709E+02
              0.113943726455737E+03
              0.204447390471455E+01
              0.628453918758946E+02
             -0.624900953469574E+01
             -0.556719705328922E+02
              0.260932449774418E+01
             -0.554525167393315E+02
             -0.314406676584259E+02
              0.228722130350882E+02
              0.102431214781820E+03
              0.383906024519547E+01
             -0.571709206584669E+02
              0.459973947538749E+02
              0.156611473578560E+02
              0.224530001188191E+01
             -0.231121265141867E+02
[...]
              0.527331031957603E+02
              0.239638041608267E+02
              0.389797582231674E+02
             -0.213663908829119E+01
              0.119774092163444E+03
              0.200925012180605E+02
             -0.184972660776872E+02
              0.220094793791043E+01
             -0.121643669959498E+02
              0.983940957083927E+02
             -0.566084343454986E+01
              0.211823791213905E+02
              0.709647094278733E+02
              0.155564985049175E+02
             -0.559546732911606E+02
             -0.815985224815080E+02
              0.802624158091362E+00
             -0.917774149012340E+02
              0.311597478655655E+02
             -0.185538849716061E+02
             -0.431704845356851E+02
              0.387488736500367E+02
              0.148569744860545E+02
              0.349481930486904E+02
              0.309187956808060E+01
              0.557165114220470E+02
             -0.910166949971168E+02
             -0.835734797202690E+01
             -0.794157822833755E+02
              0.143185127988855E+02
              0.429982003056725E+02
             -0.800525199122364E+01
             -0.299017066881834E+02
              0.639829817785932E+02
             -0.296185273082111E+02
              0.208455854697406E+02
             -0.185497494045796E+02
              0.456547855895454E+02
              0.551197187489132E+02
             -0.237915111995212E+02
              0.473969983948414E+02
              0.182065094660007E+02
             -0.489068896954282E+02
             -0.292421142300324E+02
              0.788926591338443E+02
              0.374054915956264E+02
             -0.359701988834294E+01
             -0.106735013024800E+02
              0.115952391142815E+03
              0.695473122098618E+02
              0.254767392071241E+02
             -0.743967104236383E+02
              0.116378655185797E+03
             -0.526595410483010E+02
             -0.652657050125996E+02
             -0.101084339484927E+03
              0.487330883061362E+02
             -0.924692855267364E+02
              0.400707985336430E+02
              0.658744285726095E+02
              0.487783502867281E+02
              0.103896688926319E+02
              0.291160827919435E+02
             -0.728727517697611E+02
             -0.258803861154536E+02
             -0.235731883163874E+02
              0.352343831267384E+02
              0.786192543333420E+02
              0.775058416201311E+02
              0.593679217117167E+02
             -0.146743401169986E+02
              0.210718767260624E+02
              0.292954883072912E+01
             -0.232940850627533E+02
              0.347471967853093E+02
              0.332884883244749E+02
             -0.474626054184025E+02
             -0.480402998962644E+02
             -0.220404567079303E+02
              0.510831801003258E+02
              0.259776247296262E+02
             -0.347449023238258E+02
             -0.605773775471146E+02
             -0.831876139976381E+02
              0.171106150246608E+01
              0.236676428077071E+02
             -0.321971914425520E+02
              0.118185286769813E+03
              0.112753006305684E+01
             -0.137360301612554E+03
              0.344576005111818E+02
              0.567035722448371E+02
             -0.205603931010834E+02
              0.217244644184950E+01
             -0.310727372665433E+02
              0.527305047486550E+02
              0.259737901209153E+02
             -0.693838406367903E+02
              0.823924951042735E+02
              0.562741065543275E+01
             -0.329443326905814E+02
             -0.405494706476268E+02
              0.165159199128668E+03
              0.738731915726206E+02
             -0.185033828248970E+02
              0.407177683375377E+02
             -0.804671470266911E+02
             -0.174717663937389E+02
             -0.715196708231938E+02
              0.276170777642366E+02
              0.513246553501659E+02
              0.564796056504119E+02
             -0.247657202110852E+02
              0.428987971159324E+01
              0.703647885230735E+02
              0.225158323220450E+02
              0.419704008472082E+02
              0.170802390086769E+02
             -0.945301033236319E+01
              0.153114125985638E+00
             -0.130702498348757E+02
              0.145564321690527E+02
              0.492270781088700E+01
             -0.638891900326533E+02
              0.979753301634623E+02
              0.377303405851007E+02
             -0.693901811296199E+02
             -0.509891455254865E+02
             -0.719882077548834E+02
             -0.311759749809783E+02
             -0.226112812484167E+02
             -0.569222569613764E+02
             -0.562211739158146E+02
              0.677319891107866E+02
              0.538737187366647E+02
             -0.748699486373096E+01
              0.808281384600730E+02
              0.116202184706076E+02
             -0.129972733041042E+03
              0.697627302763475E+02
              0.119067178489836E+02
              0.548254250282673E+02
              0.740982714467324E+01
              0.623451107804539E+01
              0.111879923925551E+02
              0.296520348166520E+02
             -0.541938728846711E+02
             -0.255839426161654E+02
             -0.513074164265785E+02
             -0.423765941034565E+02
              0.176998984095588E+02
             -0.471025902836122E+02
              0.226616153331292E+02
              0.311268324084648E+02
             -0.288668933241844E+02
             -0.184388082565628E+02
              0.123456558208517E+01
              0.808201939843151E+02
              0.121686908531536E+02
              0.775940713083271E+02
              0.278143918424514E+02
             -0.102511336747650E+03
             -0.340110635953198E+02
              0.349570656852023E+02
              0.806403120726404E+02
              0.133293016964165E+02
              0.331621082946247E+02
              0.742273498640247E+02
             -0.429968428187436E+02
             -0.660257844599665E+02
              0.915095175360113E+02
              0.532531522561646E+01
             -0.967229078613466E+02
              0.353720475616676E+02
              0.612140234787564E+02
             -0.156542332567501E+02
             -0.637312293391755E+02
              0.132331836393149E+02
              0.278809282270913E+01
             -0.309569455877200E+02
              0.118589423312967E+02
             -0.103106177118722E+02
              0.143853109267974E+03
              0.418692499917434E+02
             -0.609316193513056E+02
              0.179696844444897E+02
              0.875926619503265E+02
             -0.592174584582052E+02
             -0.154937631614005E+02
             -0.560419947264799E+02
              0.448999431223806E+02
              0.141731461194298E+02
              0.296820480786736E+02
              0.537858740649466E+01
              0.101719851117909E+03
             -0.579524323151943E+02
             -0.457221060874099E+02
             -0.441107421797515E+02
              0.387983290684155E+02
              0.101090255876802E+03
             -0.168814223608728E+02
              0.413525499744637E+02
             -0.587371779963671E+02
              0.112847878386870E+02
             -0.187886713257521E+02
              0.413505053693666E+01
             -0.228115455706062E+02
             -0.185727481300310E+02
             -0.182746236291644E+02
              0.150244745052977E+02
              0.293092902607664E+02
             -0.641150745017105E+02
              0.474625525227369E+02
             -0.763740666754038E+02
              0.575790845020025E+02
             -0.608964700318781E+02
              0.987738679096691E+02
              0.542617057420702E+02
              0.624490752649519E+02
              0.155156761310132E+02
              0.181975990142794E+02
             -0.136455968875678E+03
              0.220700685042559E+02
              0.497804937324577E+01
              0.129642812577599E+02
             -0.222632135013214E+02
              0.105450055060089E+03
             -0.244993323070606E+02
             -0.435796178566444E+02
             -0.102031951478545E+03
             -0.354171717438834E+02
             -0.489528014842481E+02
             -0.426041563342031E+02
             -0.957196191771129E+01
             -0.232942265701736E+02
             -0.296716999828705E+02
             -0.454443770294695E+02
              0.347667590900421E+02
              0.109626126996988E+03
              0.925992014514439E+02
             -0.164653106415078E+02
             -0.111304318772554E+03
             -0.474668844843289E+02
              0.227790616701632E+02
              0.227802822691147E+02
              0.363607927814343E+02
              0.255783527811250E+02
              0.450049823787577E+01
              0.108695082050093E+03
             -0.264139082876437E+02
              0.534363327301755E+02
              0.275206438129636E+02
             -0.370689450047538E+02
             -0.177605967995902E+02
              0.492581578948030E+02
             -0.263101001124373E+02
             -0.161835135206799E+02
             -0.119825183273862E+02
              0.634441911259817E+02
             -0.834549814987714E+02
             -0.677695998949184E+01
             -0.643988419208724E+02
             -0.136805394883389E+03
             -0.377797017571254E+00
             -0.202077431593040E+02
              0.532032951940568E+02
              0.590787748724399E+02
              0.808469363735871E+02
             -0.525611326850880E+02
              0.817551306565876E+02
              0.204267906735829E+02
             -0.303523449245290E+02
              0.109069892574493E+02
             -0.257971289495776E+02
             -0.152246438570642E+02
              0.472467018150453E+02
             -0.391307232229754E+02
              0.104937205374043E+03
             -0.279590298578587E+02
             -0.580414355273344E+02
              0.109742009091382E+03
             -0.593928370913072E+02
             -0.477949810681991E+01
              0.573099755050646E+01
              0.316185041646247E+02
             -0.463261196286454E+02
             -0.353087651394961E+02
              0.563348411263714E+02
             -0.848196663875327E+02
              0.699118900637497E+02
              0.103501080821314E+02
              0.500997452133420E+02
              0.725607156979390E+02
              0.185850670442467E+02
             -0.100862467691838E+03
             -0.436598475023148E+02
             -0.728619651575383E+02
             -0.433035104590367E+02
             -0.115882527420375E+02
              0.156158921668526E+02
             -0.339133270040840E+02
             -0.571587522210848E+00
             -0.101281288908308E+03
              0.562416051295989E+01
             -0.653082816573298E+02
              0.632754536494876E+02
             -0.370361971644150E+02
             -0.897748679432640E+01
              0.478036467110240E+02
              0.947670004273272E+01
              0.444168255162837E+02
             -0.846723408471263E+02
              0.140326450844742E+02
              0.580460888037331E+01
              0.364379730112757E+02
              0.584503764267669E+02
             -0.107756393905979E+02
             -0.665188732266616E+02
             -0.385200493673109E+02
             -0.271246306312968E+02
             -0.796321463510162E+01
              0.620128732022590E+02
              0.402883357572009E+02
             -0.407448974861474E+02
             -0.382986087983961E+02
              0.281172271516223E+02
              0.306186105882781E+02
             -0.826983533466544E+02
              0.192623790120072E+02
              0.592609404313193E+02
             -0.265900759499092E+01
              0.747516149675133E+02
              0.344948525459444E+02
              0.587497132086777E+02
              0.893403458578866E+02
              0.133864097059494E+02
             -0.121743403581878E+03
              0.167948786177917E+02
              0.131625413340127E+03
              0.956532761922183E+02
             -0.659623786560663E+02
              0.594606124069520E+01
              0.856064886364032E+02
              0.741405575552733E+02
              0.325806423186280E+02
             -0.197543830558656E+02
              0.327579544440858E+02
              0.678373229643315E+02
             -0.313568964519272E+02
             -0.202034956411807E+02
              0.459449331300310E+02
             -0.276577801162483E+01
              0.412641075896507E+02
             -0.126857260437095E+02
              0.860381350501148E+02
             -0.327566510654139E+02
              0.197159316730904E+02
             -0.364391065479050E+02
              0.425808948809370E+02
             -0.576816559582733E+01
              0.634470503464445E+02
              0.451553513508298E+01
              0.284003757515486E+02
             -0.403679916002281E+02
             -0.282029146783652E+02
             -0.144063757478111E+02
             -0.130944940798762E+02
              0.691283340337304E+02
              0.340124764187244E+02
              0.838318540614421E+02
              0.772955645443474E+02
              0.216905837800319E+02
              0.386765156940152E+01
              0.824270663764873E+02
              0.463323309209133E+02
              0.133337372965741E+00
              0.803392624357795E+02
             -0.659067033397419E+02
              0.231323762019612E+02
             -0.429416509074676E+02
             -0.116531040555391E+02
              0.110995096809218E+03
             -0.155318094319216E+02
             -0.466196849873961E+01
             -0.120669794752872E+02
              0.911942606658499E+02
             -0.195768863495110E+02
             -0.167603191263140E+01
              0.183970876218824E+03
             -0.544394593829103E+02
             -0.679679515612377E+02
             -0.680464131111581E+02
             -0.434401995897092E+02
              0.396657053739799E+02
             -0.177836396793934E+02
              0.100948054480275E+02
             -0.458033244825276E+01
              0.233501007608336E+02
              0.374259050891458E+02
              0.435864977661556E+02
              0.628656406958418E+02
              0.402203713067431E+02
              0.410349340986992E+02
             -0.759481252027284E+02
             -0.783945274697273E+02
             -0.176955659704214E+02
             -0.700721114979269E+02
              0.111298181458796E+03
              0.937275102815983E+02
              0.442056755831811E+02
              0.121838282658456E+03
             -0.608540112809622E+02
             -0.262617771843576E+02
             -0.378222605146677E+02
              0.105427673662745E+03
 
 BEEF-vdW xc energy contributions
            1 :    -953.0443981273456     
            2 :     873.2229262555344     
            3 :    -737.1316909820257     
            4 :     581.0720028880347     
            5 :    -439.2435677689828     
            6 :     332.7160858920117     
            7 :    -265.9424568859345     
            8 :     229.8866481857303     
            9 :    -208.8532462996211     
           10 :     188.0625282208323     
           11 :    -159.3072104132814     
           12 :     122.7152954196551     
           13 :    -84.37647274351707     
           14 :     51.69435203226340     
           15 :    -29.24414178571692     
           16 :     17.04580501522173     
           17 :    -11.44206065689150     
           18 :     7.501773780524672     
           19 :    -1.535302221238453     
           20 :    -7.393295281601695     
           21 :     17.50562240062061     
           22 :    -25.73867220243801     
           23 :     29.72276065947995     
           24 :    -29.19040861991311     
           25 :     26.07806659880077     
           26 :    -23.38434366463525     
           27 :     23.52413594856489     
           28 :    -27.08880436022037     
           29 :     32.61209255333313     
           30 :    -37.40245165865963     
           31 :    -82.28816465370028     
           32 :    -59.22511419928787     

     Writing all to output data dir ./PbI2.save/
 
     init_run     :      4.36s CPU      7.38s WALL (       1 calls)
     electrons    :     34.88s CPU     36.73s WALL (       1 calls)
     forces       :      3.58s CPU      3.86s WALL (       1 calls)
     stress       :     42.74s CPU     43.33s WALL (       1 calls)

     Called by init_run:
     wfcinit      :      0.93s CPU      3.59s WALL (       1 calls)
     potinit      :      2.25s CPU      2.39s WALL (       1 calls)
     hinit0       :      0.52s CPU      0.56s WALL (       1 calls)

     Called by electrons:
     c_bands      :     28.26s CPU     29.30s WALL (       2 calls)
     sum_band     :      5.05s CPU      5.51s WALL (       2 calls)
     v_of_rho     :      2.39s CPU      2.55s WALL (       2 calls)
     v_h          :      0.01s CPU      0.02s WALL (       2 calls)
     v_xc         :     23.29s CPU     25.65s WALL (      38 calls)
     newd         :      0.84s CPU      1.16s WALL (       2 calls)
     PAW_pot      :      0.90s CPU      0.90s WALL (       2 calls)
     mix_rho      :      0.00s CPU      0.00s WALL (       2 calls)
     vdW_kernel   :      1.17s CPU      1.18s WALL (       1 calls)

     Called by c_bands:
     init_us_2    :      0.50s CPU      0.52s WALL (      24 calls)
     init_us_2:cp :      0.50s CPU      0.52s WALL (      24 calls)
     cegterg      :     27.49s CPU     28.34s WALL (       8 calls)

     Called by sum_band:
     sum_band:wei :      0.00s CPU      0.00s WALL (       2 calls)
     sum_band:loo :      4.08s CPU      4.12s WALL (       2 calls)
     sum_band:buf :      0.13s CPU      0.15s WALL (       8 calls)
     sum_band:ini :      0.18s CPU      0.18s WALL (       8 calls)
     sum_band:cal :      0.58s CPU      0.58s WALL (       8 calls)
     sum_band:bec :      0.01s CPU      0.01s WALL (       8 calls)
     addusdens    :      0.91s CPU      1.32s WALL (       2 calls)
     addusd:skk   :      0.01s CPU      0.03s WALL (       4 calls)
     addusd:dgemm :      0.51s CPU      0.89s WALL (       4 calls)
     addusd:qvan2 :      0.37s CPU      0.38s WALL (       4 calls)

     Called by *egterg:
     cdiaghg      :      3.93s CPU      3.95s WALL (      36 calls)
     cegterg:over :      2.18s CPU      2.23s WALL (      36 calls)
     cegterg:upda :      1.57s CPU      1.69s WALL (      36 calls)
     cegterg:last :      0.69s CPU      0.69s WALL (       8 calls)
     h_psi        :     16.48s CPU     16.76s WALL (      44 calls)
     s_psi        :      1.46s CPU      1.47s WALL (      44 calls)
     g_psi        :      0.08s CPU      0.09s WALL (      36 calls)

     Called by h_psi:
     h_psi:calbec :      1.58s CPU      1.59s WALL (      44 calls)
     vloc_psi     :     13.24s CPU     13.34s WALL (      44 calls)
     add_vuspsi   :      1.46s CPU      1.48s WALL (      44 calls)

     General routines
     calbec       :      3.99s CPU      4.02s WALL (      72 calls)
     fft          :     11.60s CPU     11.72s WALL (    2232 calls)
     ffts         :      0.02s CPU      0.02s WALL (       4 calls)
     fftw         :     15.58s CPU     15.69s WALL (    9170 calls)
     interpolate  :      0.03s CPU      0.03s WALL (       2 calls)
 
     Parallel routines

     PAW routines
     PAW_pot      :      0.90s CPU      0.90s WALL (       2 calls)
 
     PWSCF        :   1m46.46s CPU   1m56.36s WALL

 
   This run was terminated on:   6:46:29  28Mar2024            

=------------------------------------------------------------------------------=
   JOB DONE.
=------------------------------------------------------------------------------=
