
     Program PWSCF v.7.1 starts on 28Mar2024 at  1:25: 4 

     This program is part of the open-source Quantum ESPRESSO suite
     for quantum simulation of materials; please cite
         "P. Giannozzi et al., J. Phys.:Condens. Matter 21 395502 (2009);
         "P. Giannozzi et al., J. Phys.:Condens. Matter 29 465901 (2017);
         "P. Giannozzi et al., J. Chem. Phys. 152 154105 (2020);
          URL http://www.quantum-espresso.org", 
     in publications or presentations arising from this work. More details at
     http://www.quantum-espresso.org/quote

     Parallel version (MPI & OpenMP), running on      20 processor cores
     Number of MPI processes:                20
     Threads/MPI process:                     1

     MPI processes distributed on     2 nodes
     1993561 MiB available memory on the printing compute node when the environment starts
 
     Reading input from espresso.pwi
Warning: card &CELL ignored
Warning: card    CELL_DYNAMICS    = 'BFGS' ignored
Warning: card / ignored

     Current dimensions of program PWSCF are:
     Max number of different atomic species (ntypx) = 10
     Max number of k-points (npk) =  40000
     Max angular momentum in pseudopotentials (lmaxx) =  4
     file Pb.pbe-dn-kjpaw_psl.1.0.0.UPF: wavefunction(s)  6S 6P 5D renormalized
     file I.pbe-dn-kjpaw_psl.1.0.0.UPF: wavefunction(s)  5S 5P renormalized

     **************************************************************************
     Initializing libbeef V0.1.2 with the BEEF-vdW functional.
     Citation: Wellendorff et al., PRB 85, 235149 (2012).
     **************************************************************************


     IMPORTANT: XC functional enforced from input :
     Exchange-correlation= BEEF-VDW
                           (   1   4  43  14   2   0   0)
     Any further DFT definition will be discarded
     Please, verify this is what you really want

 
     R & G space division:  proc/nbgrp/npool/nimage =      20
     Subspace diagonalization in iterative solution of the eigenvalue problem:
     a serial algorithm will be used

 
     Parallelization info
     --------------------
     sticks:   dense  smooth     PW     G-vecs:    dense   smooth      PW
     Min         381     306     80                42326    30292    4074
     Max         383     307     81                42331    30298    4079
     Sum        7639    6121   1615               846533   605897   81527
 
     Using Slab Decomposition
 


     bravais-lattice index     =            4
     lattice parameter (alat)  =      17.8060  a.u.
     unit-cell volume          =    7656.2263 (a.u.)^3
     number of atoms/cell      =           23
     number of atomic types    =            2
     number of electrons       =       368.00
     number of Kohn-Sham states=          221
     kinetic-energy cutoff     =      70.0000  Ry
     charge density cutoff     =     350.0000  Ry
     scf convergence threshold =      1.0E-07
     mixing beta               =       0.7000
     number of iterations used =            8  plain     mixing
     energy convergence thresh.=      1.0E-04
     force convergence thresh. =      1.0E-03
     Exchange-correlation= BEEF-VDW
                           (   1   4  43  14   2   0   0)
     nstep                     =           50


     celldm(1)=  17.806016  celldm(2)=   0.000000  celldm(3)=   1.565971
     celldm(4)=   0.000000  celldm(5)=   0.000000  celldm(6)=   0.000000

     crystal axes: (cart. coord. in units of alat)
               a(1) = (   1.000000   0.000000   0.000000 )  
               a(2) = (  -0.500000   0.866025   0.000000 )  
               a(3) = (   0.000000   0.000000   1.565971 )  

     reciprocal axes: (cart. coord. in units 2 pi/alat)
               b(1) = (  1.000000  0.577350 -0.000000 )  
               b(2) = (  0.000000  1.154701  0.000000 )  
               b(3) = (  0.000000 -0.000000  0.638581 )  


     PseudoPot. # 1 for Pb read from file:
     /trace/group/acmegroup/atimmins/packages/espresso/pseudo/psl_1.0.0/pslibrary.1.0.0/pbe/PSEUDOPOTENTIALS/Pb.pbe-dn-kjpaw_psl.1.0.0.UPF
     MD5 check sum: 39ab5b8a6bbd56b7735ad9f188aac93a
     Pseudo is Projector augmented-wave + core cor, Zval = 14.0
     Generated using 'atomic' code by A. Dal Corso  v.7.1
     Shape of augmentation charge: PSQ
     Using radial grid of 1281 points,  6 beta functions with: 
                l(1) =   0
                l(2) =   0
                l(3) =   1
                l(4) =   1
                l(5) =   2
                l(6) =   2
     Q(r) pseudized with 0 coefficients 


     PseudoPot. # 2 for I  read from file:
     /trace/group/acmegroup/atimmins/packages/espresso/pseudo/psl_1.0.0/pslibrary.1.0.0/pbe/PSEUDOPOTENTIALS/I.pbe-dn-kjpaw_psl.1.0.0.UPF
     MD5 check sum: bfa8781bc1224d19af3f3980e3fab11e
     Pseudo is Projector augmented-wave + core cor, Zval = 17.0
     Generated using 'atomic' code by A. Dal Corso  v.7.1
     Shape of augmentation charge: PSQ
     Using radial grid of 1247 points,  6 beta functions with: 
                l(1) =   0
                l(2) =   0
                l(3) =   1
                l(4) =   1
                l(5) =   2
                l(6) =   2
     Q(r) pseudized with 0 coefficients 


     atomic species   valence    mass     pseudopotential
        Pb            14.00   207.20000     Pb( 1.00)
        I             17.00   126.90447     I ( 1.00)

     No symmetry found


                                    s                        frac. trans.

      isym =  1     identity                                     

 cryst.   s( 1) = (     1          0          0      )
                  (     0          1          0      )
                  (     0          0          1      )

 cart.    s( 1) = (  1.0000000  0.0000000  0.0000000 )
                  (  0.0000000  1.0000000  0.0000000 )
                  (  0.0000000  0.0000000  1.0000000 )


     point group C_1 (1)    
     there are  1 classes
     the character table:

       E    
A      1.00

     the symmetry operations in each class and the name of the first element:

     E        1
          identity                                               

   Cartesian axes

     site n.     atom                  positions (alat units)
         1           Pb  tau(   1) = (   0.2500170   0.4329745   1.5659650  )
         2           Pb  tau(   2) = (   0.2500068   0.4329836   0.7829793  )
         3           Pb  tau(   3) = (   0.0000153   0.8659852   1.5659567  )
         4           Pb  tau(   4) = (   0.0000051   0.8659943   0.7829710  )
         5           Pb  tau(   5) = (   0.7500170   0.4329726   1.5659715  )
         6           Pb  tau(   6) = (   0.7500068   0.4329816   0.7829858  )
         7           Pb  tau(   7) = (   0.5000153   0.8659833   1.5659633  )
         8           Pb  tau(   8) = (   0.5000051   0.8659923   0.7829776  )
         9           I   tau(   9) = (   0.2500209   0.1443009   1.3648506  )
        10           I   tau(  10) = (   0.0000091   0.5773207   0.5818567  )
        11           I   tau(  11) = (   0.0000193   0.5773116   1.3648424  )
        12           I   tau(  12) = (   0.7500107   0.1443080   0.5818714  )
        13           I   tau(  13) = (   0.7500209   0.1442990   1.3648571  )
        14           I   tau(  14) = (   0.5000091   0.5773187   0.5818632  )
        15           I   tau(  15) = (   0.5000193   0.5773097   1.3648489  )
        16           I   tau(  16) = (  -0.0000034   0.2886595   0.2011110  )
        17           I   tau(  17) = (   0.0000068   0.2886504   0.9840967  )
        18           I   tau(  18) = (  -0.2500051   0.7216702   0.2011027  )
        19           I   tau(  19) = (  -0.2499949   0.7216611   0.9840884  )
        20           I   tau(  20) = (   0.4999966   0.2886575   0.2011175  )
        21           I   tau(  21) = (   0.5000068   0.2886485   0.9841032  )
        22           I   tau(  22) = (   0.2499949   0.7216682   0.2011092  )
        23           I   tau(  23) = (   0.2500051   0.7216592   0.9840949  )

   Crystallographic axes

     site n.     atom                  positions (cryst. coord.)
         1           Pb  tau(   1) = (  0.4999949  0.4999559  0.9999959  )
         2           Pb  tau(   2) = (  0.4999900  0.4999663  0.4999959  )
         3           Pb  tau(   3) = (  0.4999921  0.9999536  0.9999906  )
         4           Pb  tau(   4) = (  0.4999871  0.9999640  0.4999906  )
         5           Pb  tau(   5) = (  0.9999938  0.4999537  1.0000001  )
         6           Pb  tau(   6) = (  0.9999888  0.4999641  0.5000001  )
         7           Pb  tau(   7) = (  0.9999910  0.9999514  0.9999948  )
         8           Pb  tau(   8) = (  0.9999860  0.9999618  0.4999948  )
         9           I   tau(   9) = (  0.3333331  0.1666243  0.8715680  )
        10           I   tau(  10) = (  0.3333253  0.6666325  0.3715628  )
        11           I   tau(  11) = (  0.3333303  0.6666220  0.8715628  )
        12           I   tau(  12) = (  0.8333270  0.1666326  0.3715722  )
        13           I   tau(  13) = (  0.8333320  0.1666221  0.8715722  )
        14           I   tau(  14) = (  0.8333242  0.6666303  0.3715669  )
        15           I   tau(  15) = (  0.8333292  0.6666198  0.8715669  )
        16           I   tau(  16) = (  0.1666542  0.3333152  0.1284257  )
        17           I   tau(  17) = (  0.1666592  0.3333048  0.6284257  )
        18           I   tau(  18) = (  0.1666514  0.8333129  0.1284204  )
        19           I   tau(  19) = (  0.1666564  0.8333025  0.6284204  )
        20           I   tau(  20) = (  0.6666531  0.3333130  0.1284299  )
        21           I   tau(  21) = (  0.6666581  0.3333026  0.6284299  )
        22           I   tau(  22) = (  0.6666503  0.8333107  0.1284246  )
        23           I   tau(  23) = (  0.6666553  0.8333003  0.6284246  )

     number of k points=     4  Gaussian smearing, width (Ry)=  0.0100
                       cart. coord. in units 2pi/alat
        k(    1) = (   0.0000000   0.0000000   0.0000000), wk =   0.5000000
        k(    2) = (   0.0000000  -0.5773503   0.0000000), wk =   0.5000000
        k(    3) = (   0.5000000  -0.2886751   0.0000000), wk =   0.5000000
        k(    4) = (  -0.5000000  -0.2886751   0.0000000), wk =   0.5000000

                       cryst. coord.
        k(    1) = (   0.0000000   0.0000000   0.0000000), wk =   0.5000000
        k(    2) = (   0.0000000  -0.5000000   0.0000000), wk =   0.5000000
        k(    3) = (   0.5000000  -0.5000000   0.0000000), wk =   0.5000000
        k(    4) = (  -0.5000000  -0.0000000   0.0000000), wk =   0.5000000

     Dense  grid:   846533 G-vectors     FFT dimensions: ( 108, 108, 180)

     Smooth grid:   605897 G-vectors     FFT dimensions: (  96,  96, 150)

     Dynamical RAM for                 wfc:      12.77 MB

     Dynamical RAM for     wfc (w. buffer):      63.84 MB

     Dynamical RAM for           str. fact:       1.29 MB

     Dynamical RAM for           local pot:       0.00 MB

     Dynamical RAM for          nlocal pot:      23.92 MB

     Dynamical RAM for                qrad:       3.00 MB

     Dynamical RAM for          rho,v,vnew:       4.34 MB

     Dynamical RAM for               rhoin:       1.45 MB

     Dynamical RAM for            rho*nmix:      10.33 MB

     Dynamical RAM for           G-vectors:       2.65 MB

     Dynamical RAM for          h,s,v(r/c):      35.77 MB

     Dynamical RAM for          <psi|beta>:       1.40 MB

     Dynamical RAM for                 psi:      51.07 MB

     Dynamical RAM for                hpsi:      51.07 MB

     Dynamical RAM for                spsi:      51.07 MB

     Dynamical RAM for      wfcinit/wfcrot:      26.65 MB

     Dynamical RAM for           addusdens:     129.83 MB

     Dynamical RAM for          addusforce:     148.30 MB

     Dynamical RAM for         addusstress:     129.83 MB

     Estimated static dynamical RAM per process >     106.43 MB

     Estimated max dynamical RAM per process >     307.14 MB

     Estimated total dynamical RAM >       6.00 GB

     Check: negative core charge=   -0.000001

     Initial potential from superposition of free atoms

     starting charge     366.9801, renormalised to     368.0000


     %%%%%%%%%%%%%%%%%%%%%%%%%%%%%%%%%%%%%%%%%%%%%%%%%%%%%%%%%%%%%%%%%%%%%%%%
     %                                                                      %
     % You are using vdW-DF, which was implemented by the Thonhauser group. %
     % Please cite the following two papers that made this development      %
     % possible and the two reviews that describe the various versions:     %
     %                                                                      %
     %   T. Thonhauser et al., PRL 115, 136402 (2015).                      %
     %   T. Thonhauser et al., PRB 76, 125112 (2007).                       %
     %   K. Berland et al., Rep. Prog. Phys. 78, 066501 (2015).             %
     %   D.C. Langreth et al., J. Phys.: Condens. Matter 21, 084203 (2009). %
     %                                                                      %
     % If you are calculating stress with vdW-DF, please also cite:         %
     %                                                                      %
     %   R. Sabatini et al., J. Phys.: Condens. Matter 24, 424209 (2012).   %
     %                                                                      %
     %%%%%%%%%%%%%%%%%%%%%%%%%%%%%%%%%%%%%%%%%%%%%%%%%%%%%%%%%%%%%%%%%%%%%%%%

     %%%%%%%%%%%%%%%%%%%%%%%%%%%%%%%%%%%%%%%%%%%%%%%%%%%%%%%%%%%%%%%%%%%%%%%%
     %                                                                      %
     %  vdW-DF NEWS:                                                        %
     %                                                                      %
     %  * vdW-DF3 is now available. DOI: 10.1021/acs.jctc.0c00471           %
     %    use with input_dft = 'vdW-DF3-opt1' or 'vdW-DF3-opt2'             %
     %                                                                      %
     %  * Unscreened and range-separated vdW-DF hybrid functionals          %
     %    DOI: 10.1063/1.4986522 and 10.1088/1361-648X/ac2ad2               %
     %    use with input_dft = 'vdW-DF-cx0' (etc) and 'vdW-DF-ahcx'         %
     %                                                                      %
     %%%%%%%%%%%%%%%%%%%%%%%%%%%%%%%%%%%%%%%%%%%%%%%%%%%%%%%%%%%%%%%%%%%%%%%%


     Carrying out vdW-DF run using the following parameters:
     Nqs    =  20  Npoints =  1024  r_max =  100.000
     q_mesh =  0.00001000  0.04494208  0.09755937  0.15916263
               0.23128650  0.31572767  0.41458969  0.53033537
               0.66584808  0.82450364  1.01025438  1.22772762
               1.48234092  1.78043706  2.12944203  2.53805004
               3.01644009  3.57652955  4.23227104  5.00000000


     -----------------------------------------------
     Non-local corr. energy    =      10.91631565 Ry
     -----------------------------------------------

     Starting wfcs are  207 randomized atomic wfcs +   14 random wfcs
     Checking if some PAW data can be deallocated... 
       PAW data deallocated on   15 nodes for type:  1
       PAW data deallocated on    5 nodes for type:  2

     total cpu time spent up to now is       10.1 secs

     Self-consistent Calculation

     iteration #  1     ecut=    70.00 Ry     beta= 0.70
     Davidson diagonalization with overlap

---- Real-time Memory Report at c_bands before calling an iterative solver
           359 MiB given to the printing process from OS
             0 MiB allocation reported by mallinfo(arena+hblkhd)
       1990179 MiB available memory on the node where the printing process lives
------------------
     ethr =  1.00E-02,  avg # of iterations =  7.5

     Threshold (ethr) on eigenvalues was too large:
     Diagonalizing with lowered threshold

     Davidson diagonalization with overlap

---- Real-time Memory Report at c_bands before calling an iterative solver
           451 MiB given to the printing process from OS
             0 MiB allocation reported by mallinfo(arena+hblkhd)
       1991827 MiB available memory on the node where the printing process lives
------------------
     ethr =  1.80E-04,  avg # of iterations = 10.5


     -----------------------------------------------
     Non-local corr. energy    =      10.94370382 Ry
     -----------------------------------------------


     total cpu time spent up to now is       65.4 secs

     total energy              =  -15624.62576821 Ry
     estimated scf accuracy    <       0.62213005 Ry

     iteration #  2     ecut=    70.00 Ry     beta= 0.70
     Davidson diagonalization with overlap

---- Real-time Memory Report at c_bands before calling an iterative solver
           472 MiB given to the printing process from OS
             0 MiB allocation reported by mallinfo(arena+hblkhd)
       1992369 MiB available memory on the node where the printing process lives
------------------
     ethr =  1.69E-04,  avg # of iterations = 10.3


     -----------------------------------------------
     Non-local corr. energy    =      10.92850540 Ry
     -----------------------------------------------


     total cpu time spent up to now is       97.2 secs

     total energy              =  -15624.45022341 Ry
     estimated scf accuracy    <       2.29093589 Ry

     iteration #  3     ecut=    70.00 Ry     beta= 0.70
     Davidson diagonalization with overlap

---- Real-time Memory Report at c_bands before calling an iterative solver
           472 MiB given to the printing process from OS
             0 MiB allocation reported by mallinfo(arena+hblkhd)
       1990661 MiB available memory on the node where the printing process lives
------------------
     ethr =  1.69E-04,  avg # of iterations = 11.8


     -----------------------------------------------
     Non-local corr. energy    =      10.92272043 Ry
     -----------------------------------------------


     total cpu time spent up to now is      128.4 secs

     total energy              =  -15624.85988715 Ry
     estimated scf accuracy    <       0.35971392 Ry

     iteration #  4     ecut=    70.00 Ry     beta= 0.70
     Davidson diagonalization with overlap

---- Real-time Memory Report at c_bands before calling an iterative solver
           472 MiB given to the printing process from OS
             0 MiB allocation reported by mallinfo(arena+hblkhd)
       1992273 MiB available memory on the node where the printing process lives
------------------
     ethr =  9.77E-05,  avg # of iterations = 13.3


     -----------------------------------------------
     Non-local corr. energy    =      10.92515513 Ry
     -----------------------------------------------


     total cpu time spent up to now is      159.0 secs

     total energy              =  -15624.90017828 Ry
     estimated scf accuracy    <       0.02904041 Ry

     iteration #  5     ecut=    70.00 Ry     beta= 0.70
     Davidson diagonalization with overlap

---- Real-time Memory Report at c_bands before calling an iterative solver
           472 MiB given to the printing process from OS
             0 MiB allocation reported by mallinfo(arena+hblkhd)
       1990888 MiB available memory on the node where the printing process lives
------------------
     ethr =  7.89E-06,  avg # of iterations = 11.3


     -----------------------------------------------
     Non-local corr. energy    =      10.92724728 Ry
     -----------------------------------------------


     total cpu time spent up to now is      190.8 secs

     total energy              =  -15624.90109005 Ry
     estimated scf accuracy    <       0.03863650 Ry

     iteration #  6     ecut=    70.00 Ry     beta= 0.70
     Davidson diagonalization with overlap

---- Real-time Memory Report at c_bands before calling an iterative solver
           476 MiB given to the printing process from OS
             0 MiB allocation reported by mallinfo(arena+hblkhd)
       1990584 MiB available memory on the node where the printing process lives
------------------
     ethr =  7.89E-06,  avg # of iterations = 12.0


     -----------------------------------------------
     Non-local corr. energy    =      10.93106167 Ry
     -----------------------------------------------


     total cpu time spent up to now is      220.5 secs

     total energy              =  -15624.90722474 Ry
     estimated scf accuracy    <       0.00218914 Ry

     iteration #  7     ecut=    70.00 Ry     beta= 0.70
     Davidson diagonalization with overlap

---- Real-time Memory Report at c_bands before calling an iterative solver
           476 MiB given to the printing process from OS
             0 MiB allocation reported by mallinfo(arena+hblkhd)
       1990537 MiB available memory on the node where the printing process lives
------------------
     ethr =  5.95E-07,  avg # of iterations = 12.3


     -----------------------------------------------
     Non-local corr. energy    =      10.93477934 Ry
     -----------------------------------------------


     total cpu time spent up to now is      255.7 secs

     total energy              =  -15624.90773402 Ry
     estimated scf accuracy    <       0.00041751 Ry

     iteration #  8     ecut=    70.00 Ry     beta= 0.70
     Davidson diagonalization with overlap

---- Real-time Memory Report at c_bands before calling an iterative solver
           486 MiB given to the printing process from OS
             0 MiB allocation reported by mallinfo(arena+hblkhd)
       1991428 MiB available memory on the node where the printing process lives
------------------
     ethr =  1.13E-07,  avg # of iterations =  8.3


     -----------------------------------------------
     Non-local corr. energy    =      10.93754022 Ry
     -----------------------------------------------


     total cpu time spent up to now is      283.2 secs

     total energy              =  -15624.90780209 Ry
     estimated scf accuracy    <       0.00008250 Ry

     iteration #  9     ecut=    70.00 Ry     beta= 0.70
     Davidson diagonalization with overlap

---- Real-time Memory Report at c_bands before calling an iterative solver
           486 MiB given to the printing process from OS
             0 MiB allocation reported by mallinfo(arena+hblkhd)
       1990018 MiB available memory on the node where the printing process lives
------------------
     ethr =  2.24E-08,  avg # of iterations =  9.3


     -----------------------------------------------
     Non-local corr. energy    =      10.93679837 Ry
     -----------------------------------------------


     total cpu time spent up to now is      316.7 secs

     total energy              =  -15624.90782490 Ry
     estimated scf accuracy    <       0.00005220 Ry

     iteration # 10     ecut=    70.00 Ry     beta= 0.70
     Davidson diagonalization with overlap

---- Real-time Memory Report at c_bands before calling an iterative solver
           499 MiB given to the printing process from OS
             0 MiB allocation reported by mallinfo(arena+hblkhd)
       1992009 MiB available memory on the node where the printing process lives
------------------
     ethr =  1.42E-08,  avg # of iterations =  7.5


     -----------------------------------------------
     Non-local corr. energy    =      10.93654581 Ry
     -----------------------------------------------


     total cpu time spent up to now is      339.7 secs

     total energy              =  -15624.90783043 Ry
     estimated scf accuracy    <       0.00000716 Ry

     iteration # 11     ecut=    70.00 Ry     beta= 0.70
     Davidson diagonalization with overlap

---- Real-time Memory Report at c_bands before calling an iterative solver
           499 MiB given to the printing process from OS
             0 MiB allocation reported by mallinfo(arena+hblkhd)
       1990776 MiB available memory on the node where the printing process lives
------------------
     ethr =  1.94E-09,  avg # of iterations =  8.5


     -----------------------------------------------
     Non-local corr. energy    =      10.93636185 Ry
     -----------------------------------------------


     total cpu time spent up to now is      367.4 secs

     total energy              =  -15624.90783169 Ry
     estimated scf accuracy    <       0.00000088 Ry

     iteration # 12     ecut=    70.00 Ry     beta= 0.70
     Davidson diagonalization with overlap

---- Real-time Memory Report at c_bands before calling an iterative solver
           499 MiB given to the printing process from OS
             0 MiB allocation reported by mallinfo(arena+hblkhd)
       1990744 MiB available memory on the node where the printing process lives
------------------
     ethr =  2.39E-10,  avg # of iterations =  8.8


     -----------------------------------------------
     Non-local corr. energy    =      10.93644339 Ry
     -----------------------------------------------


     total cpu time spent up to now is      406.4 secs

     total energy              =  -15624.90783214 Ry
     estimated scf accuracy    <       0.00000073 Ry

     iteration # 13     ecut=    70.00 Ry     beta= 0.70
     Davidson diagonalization with overlap

---- Real-time Memory Report at c_bands before calling an iterative solver
           523 MiB given to the printing process from OS
             0 MiB allocation reported by mallinfo(arena+hblkhd)
       1991382 MiB available memory on the node where the printing process lives
------------------
     ethr =  1.99E-10,  avg # of iterations =  9.3


     -----------------------------------------------
     Non-local corr. energy    =      10.93649255 Ry
     -----------------------------------------------


     total cpu time spent up to now is      431.4 secs

     End of self-consistent calculation

          k = 0.0000 0.0000 0.0000 ( 75645 PWs)   bands (ev):

   -41.2970 -41.2970 -41.2969 -41.2963 -41.2962 -41.2961 -41.2953 -41.2952
   -41.2951 -41.2949 -41.2948 -41.2948 -41.2941 -41.2940 -41.2939 -41.2841
   -41.2841 -41.2829 -41.2828 -41.2819 -41.2818 -41.2818 -41.2808 -41.2808
   -41.2800 -41.2780 -41.2780 -41.2779 -41.2779 -41.2779 -41.2778 -41.2768
   -41.2768 -41.2767 -41.2767 -41.2767 -41.2767 -41.2759 -41.2759 -41.2758
   -41.0845 -41.0845 -41.0844 -41.0826 -41.0825 -41.0825 -41.0824 -41.0823
   -41.0823 -41.0787 -41.0787 -41.0786 -41.0776 -41.0775 -41.0775 -41.0471
   -41.0470 -41.0470 -41.0468 -41.0467 -41.0466 -41.0393 -41.0392 -41.0391
   -41.0383 -41.0382 -41.0381 -41.0351 -41.0350 -41.0349 -40.9492 -40.9492
   -40.9430 -40.9430 -40.9405 -13.4057 -13.4057 -13.3966 -13.3873 -13.3873
   -13.3759 -13.3759 -13.3737 -13.3736 -13.3704 -13.3666 -13.3607 -13.3601
   -13.3601 -13.3556 -13.3555 -13.3555 -13.3477 -13.3431 -13.3430 -13.2839
   -13.2839 -13.2698 -13.2697 -13.2675 -12.9344 -12.9340 -12.9178 -12.9146
   -12.9117 -12.9113 -12.8575 -12.8570 -12.8566 -12.8531 -12.8479 -12.8476
   -12.8472 -12.8381 -12.8376  -8.5753  -8.2586  -8.1669  -8.1215  -8.1215
    -8.1185  -8.0226  -8.0225  -8.0215  -7.9112  -7.8981  -7.8980  -7.7881
    -7.7880  -7.7344  -4.1165  -4.1074  -4.1073  -3.9366  -3.6467  -3.5887
    -3.5884  -3.3147   0.4374   0.4438   0.4439   0.8473   0.9237   0.9238
     1.3179   1.3180   1.3697   1.4552   1.4626   1.4628   1.7468   1.7569
     1.8079   1.8079   1.9414   1.9414   1.9588   2.0521   2.0686   2.0687
     2.1780   2.1781   2.2051   2.2196   2.2199   2.2978   2.3100   2.3101
     2.3881   2.4132   2.4132   2.5636   2.5636   2.6082   2.6083   2.6151
     2.6218   2.6563   2.6564   2.7436   2.8290   2.8291   3.0335   5.3065
     5.5217   5.9855   6.1704   6.1705   6.2185   6.3324   6.3328   6.5382
     6.5383   6.6139   6.6141   6.8344   6.8345   6.8729   6.9347   6.9349
     7.0064   7.1046   7.1046   7.3174   7.5199   7.5635   7.5637   8.6498
     8.7897   8.7898   9.0820   9.4475   9.4766   9.4767   9.8760  10.3644
    10.6588  10.7044  10.7044  10.8532  10.8534

     occupation numbers 
     1.0000   1.0000   1.0000   1.0000   1.0000   1.0000   1.0000   1.0000
     1.0000   1.0000   1.0000   1.0000   1.0000   1.0000   1.0000   1.0000
     1.0000   1.0000   1.0000   1.0000   1.0000   1.0000   1.0000   1.0000
     1.0000   1.0000   1.0000   1.0000   1.0000   1.0000   1.0000   1.0000
     1.0000   1.0000   1.0000   1.0000   1.0000   1.0000   1.0000   1.0000
     1.0000   1.0000   1.0000   1.0000   1.0000   1.0000   1.0000   1.0000
     1.0000   1.0000   1.0000   1.0000   1.0000   1.0000   1.0000   1.0000
     1.0000   1.0000   1.0000   1.0000   1.0000   1.0000   1.0000   1.0000
     1.0000   1.0000   1.0000   1.0000   1.0000   1.0000   1.0000   1.0000
     1.0000   1.0000   1.0000   1.0000   1.0000   1.0000   1.0000   1.0000
     1.0000   1.0000   1.0000   1.0000   1.0000   1.0000   1.0000   1.0000
     1.0000   1.0000   1.0000   1.0000   1.0000   1.0000   1.0000   1.0000
     1.0000   1.0000   1.0000   1.0000   1.0000   1.0000   1.0000   1.0000
     1.0000   1.0000   1.0000   1.0000   1.0000   1.0000   1.0000   1.0000
     1.0000   1.0000   1.0000   1.0000   1.0000   1.0000   1.0000   1.0000
     1.0000   1.0000   1.0000   1.0000   1.0000   1.0000   1.0000   1.0000
     1.0000   1.0000   1.0000   1.0000   1.0000   1.0000   1.0000   1.0000
     1.0000   1.0000   1.0000   1.0000   1.0000   1.0000   1.0000   1.0000
     1.0000   1.0000   1.0000   1.0000   1.0000   1.0000   1.0000   1.0000
     1.0000   1.0000   1.0000   1.0000   1.0000   1.0000   1.0000   1.0000
     1.0000   1.0000   1.0000   1.0000   1.0000   1.0000   1.0000   1.0000
     1.0000   1.0000   1.0000   1.0000   1.0000   1.0000   1.0000   1.0000
     1.0000   1.0000   1.0000   1.0000   1.0000   1.0000   1.0000   0.9978
     0.7275   0.0000   0.0000   0.0000   0.0000   0.0000   0.0000   0.0000
     0.0000   0.0000   0.0000   0.0000   0.0000   0.0000   0.0000   0.0000
     0.0000   0.0000   0.0000   0.0000   0.0000   0.0000   0.0000   0.0000
     0.0000   0.0000   0.0000   0.0000   0.0000   0.0000   0.0000   0.0000
     0.0000   0.0000   0.0000   0.0000   0.0000

          k = 0.0000-0.5774 0.0000 ( 75730 PWs)   bands (ev):

   -41.2970 -41.2970 -41.2969 -41.2963 -41.2962 -41.2961 -41.2952 -41.2952
   -41.2951 -41.2949 -41.2948 -41.2948 -41.2941 -41.2940 -41.2939 -41.2841
   -41.2841 -41.2829 -41.2828 -41.2819 -41.2818 -41.2818 -41.2808 -41.2808
   -41.2800 -41.2780 -41.2780 -41.2779 -41.2779 -41.2779 -41.2778 -41.2768
   -41.2768 -41.2767 -41.2767 -41.2767 -41.2767 -41.2759 -41.2759 -41.2758
   -41.0845 -41.0845 -41.0844 -41.0826 -41.0825 -41.0825 -41.0824 -41.0823
   -41.0823 -41.0787 -41.0787 -41.0786 -41.0776 -41.0775 -41.0775 -41.0471
   -41.0470 -41.0470 -41.0468 -41.0467 -41.0466 -41.0393 -41.0392 -41.0391
   -41.0383 -41.0382 -41.0381 -41.0351 -41.0350 -41.0349 -40.9492 -40.9492
   -40.9430 -40.9430 -40.9405 -13.4014 -13.4010 -13.3894 -13.3890 -13.3821
   -13.3809 -13.3769 -13.3765 -13.3755 -13.3748 -13.3637 -13.3612 -13.3604
   -13.3600 -13.3586 -13.3580 -13.3557 -13.3469 -13.3451 -13.3435 -13.2837
   -13.2836 -13.2697 -13.2697 -13.2674 -12.9342 -12.9288 -12.9232 -12.9134
   -12.9129 -12.9114 -12.8568 -12.8536 -12.8530 -12.8516 -12.8514 -12.8501
   -12.8473 -12.8419 -12.8380  -8.3843  -8.3818  -8.1381  -8.1377  -8.1321
    -8.0793  -8.0743  -8.0534  -8.0066  -8.0049  -7.9094  -7.8639  -7.8269
    -7.7764  -7.7294  -4.1018  -4.0956  -3.8838  -3.8518  -3.8473  -3.5772
    -3.5236  -3.3870   0.7511   0.7609   0.9140   0.9161   1.0397   1.0617
     1.0759   1.1596   1.2781   1.2796   1.3385   1.3948   1.4239   1.4618
     1.6139   1.6540   1.7330   1.7621   1.7699   1.8439   1.9096   1.9115
     2.0024   2.0243   2.0747   2.1966   2.2722   2.3081   2.3149   2.3631
     2.4050   2.4146   2.5060   2.5090   2.5497   2.6001   2.6805   2.7025
     2.7331   2.7517   2.7700   2.8152   2.9774   2.9985   3.0121   5.5125
     6.0432   6.0805   6.2776   6.4428   6.5443   6.6041   6.6052   6.6942
     6.7016   6.7447   6.7955   6.8203   6.8271   6.9194   6.9395   7.0148
     7.0975   7.1223   7.1782   7.1894   7.2469   7.3551   7.3930   9.2307
     9.4066   9.4998   9.6358   9.6885   9.7552   9.8684   9.9131   9.9730
    10.1436  10.2437  10.4178  10.4670  10.5512

     occupation numbers 
     1.0000   1.0000   1.0000   1.0000   1.0000   1.0000   1.0000   1.0000
     1.0000   1.0000   1.0000   1.0000   1.0000   1.0000   1.0000   1.0000
     1.0000   1.0000   1.0000   1.0000   1.0000   1.0000   1.0000   1.0000
     1.0000   1.0000   1.0000   1.0000   1.0000   1.0000   1.0000   1.0000
     1.0000   1.0000   1.0000   1.0000   1.0000   1.0000   1.0000   1.0000
     1.0000   1.0000   1.0000   1.0000   1.0000   1.0000   1.0000   1.0000
     1.0000   1.0000   1.0000   1.0000   1.0000   1.0000   1.0000   1.0000
     1.0000   1.0000   1.0000   1.0000   1.0000   1.0000   1.0000   1.0000
     1.0000   1.0000   1.0000   1.0000   1.0000   1.0000   1.0000   1.0000
     1.0000   1.0000   1.0000   1.0000   1.0000   1.0000   1.0000   1.0000
     1.0000   1.0000   1.0000   1.0000   1.0000   1.0000   1.0000   1.0000
     1.0000   1.0000   1.0000   1.0000   1.0000   1.0000   1.0000   1.0000
     1.0000   1.0000   1.0000   1.0000   1.0000   1.0000   1.0000   1.0000
     1.0000   1.0000   1.0000   1.0000   1.0000   1.0000   1.0000   1.0000
     1.0000   1.0000   1.0000   1.0000   1.0000   1.0000   1.0000   1.0000
     1.0000   1.0000   1.0000   1.0000   1.0000   1.0000   1.0000   1.0000
     1.0000   1.0000   1.0000   1.0000   1.0000   1.0000   1.0000   1.0000
     1.0000   1.0000   1.0000   1.0000   1.0000   1.0000   1.0000   1.0000
     1.0000   1.0000   1.0000   1.0000   1.0000   1.0000   1.0000   1.0000
     1.0000   1.0000   1.0000   1.0000   1.0000   1.0000   1.0000   1.0000
     1.0000   1.0000   1.0000   1.0000   1.0000   1.0000   1.0000   1.0000
     1.0000   1.0000   1.0000   1.0000   1.0000   1.0000   1.0000   1.0000
     1.0000   1.0000   1.0000   1.0000   1.0000   1.0000   1.0000   0.7582
     0.0000   0.0000   0.0000   0.0000   0.0000   0.0000   0.0000   0.0000
     0.0000   0.0000   0.0000   0.0000   0.0000   0.0000   0.0000   0.0000
     0.0000   0.0000   0.0000   0.0000   0.0000   0.0000   0.0000   0.0000
     0.0000   0.0000   0.0000   0.0000   0.0000   0.0000   0.0000   0.0000
     0.0000   0.0000   0.0000   0.0000   0.0000

          k = 0.5000-0.2887 0.0000 ( 75730 PWs)   bands (ev):

   -41.2970 -41.2970 -41.2969 -41.2963 -41.2962 -41.2961 -41.2953 -41.2952
   -41.2951 -41.2949 -41.2948 -41.2948 -41.2941 -41.2940 -41.2939 -41.2841
   -41.2841 -41.2829 -41.2828 -41.2819 -41.2818 -41.2818 -41.2808 -41.2808
   -41.2800 -41.2780 -41.2779 -41.2779 -41.2779 -41.2778 -41.2778 -41.2768
   -41.2768 -41.2767 -41.2767 -41.2767 -41.2767 -41.2759 -41.2759 -41.2759
   -41.0845 -41.0845 -41.0844 -41.0826 -41.0825 -41.0825 -41.0824 -41.0823
   -41.0823 -41.0787 -41.0787 -41.0786 -41.0776 -41.0775 -41.0775 -41.0471
   -41.0470 -41.0470 -41.0468 -41.0467 -41.0466 -41.0393 -41.0392 -41.0391
   -41.0383 -41.0382 -41.0381 -41.0351 -41.0350 -41.0349 -40.9492 -40.9492
   -40.9430 -40.9430 -40.9405 -13.4014 -13.4010 -13.3894 -13.3890 -13.3820
   -13.3809 -13.3769 -13.3766 -13.3755 -13.3748 -13.3638 -13.3611 -13.3604
   -13.3599 -13.3586 -13.3579 -13.3557 -13.3469 -13.3450 -13.3435 -13.2837
   -13.2836 -13.2697 -13.2697 -13.2674 -12.9346 -12.9280 -12.9236 -12.9138
   -12.9121 -12.9118 -12.8572 -12.8533 -12.8528 -12.8518 -12.8510 -12.8501
   -12.8478 -12.8413 -12.8384  -8.3843  -8.3817  -8.1381  -8.1377  -8.1321
    -8.0793  -8.0743  -8.0534  -8.0067  -8.0050  -7.9094  -7.8639  -7.8269
    -7.7764  -7.7294  -4.1016  -4.0955  -3.8837  -3.8519  -3.8475  -3.5775
    -3.5234  -3.3870   0.7511   0.7610   0.9141   0.9163   1.0397   1.0615
     1.0758   1.1596   1.2781   1.2796   1.3384   1.3946   1.4238   1.4617
     1.6139   1.6539   1.7329   1.7622   1.7701   1.8438   1.9096   1.9115
     2.0024   2.0244   2.0746   2.1966   2.2721   2.3081   2.3149   2.3630
     2.4050   2.4146   2.5060   2.5090   2.5497   2.6001   2.6806   2.7026
     2.7331   2.7517   2.7701   2.8153   2.9774   2.9985   3.0120   5.5125
     6.0432   6.0806   6.2778   6.4429   6.5443   6.6044   6.6055   6.6940
     6.7013   6.7445   6.7958   6.8200   6.8269   6.9193   6.9396   7.0150
     7.0975   7.1221   7.1783   7.1892   7.2469   7.3549   7.3932   9.2307
     9.4065   9.4997   9.6359   9.6885   9.7552   9.8682   9.9129   9.9728
    10.1436  10.2436  10.4178  10.4670  10.5511

     occupation numbers 
     1.0000   1.0000   1.0000   1.0000   1.0000   1.0000   1.0000   1.0000
     1.0000   1.0000   1.0000   1.0000   1.0000   1.0000   1.0000   1.0000
     1.0000   1.0000   1.0000   1.0000   1.0000   1.0000   1.0000   1.0000
     1.0000   1.0000   1.0000   1.0000   1.0000   1.0000   1.0000   1.0000
     1.0000   1.0000   1.0000   1.0000   1.0000   1.0000   1.0000   1.0000
     1.0000   1.0000   1.0000   1.0000   1.0000   1.0000   1.0000   1.0000
     1.0000   1.0000   1.0000   1.0000   1.0000   1.0000   1.0000   1.0000
     1.0000   1.0000   1.0000   1.0000   1.0000   1.0000   1.0000   1.0000
     1.0000   1.0000   1.0000   1.0000   1.0000   1.0000   1.0000   1.0000
     1.0000   1.0000   1.0000   1.0000   1.0000   1.0000   1.0000   1.0000
     1.0000   1.0000   1.0000   1.0000   1.0000   1.0000   1.0000   1.0000
     1.0000   1.0000   1.0000   1.0000   1.0000   1.0000   1.0000   1.0000
     1.0000   1.0000   1.0000   1.0000   1.0000   1.0000   1.0000   1.0000
     1.0000   1.0000   1.0000   1.0000   1.0000   1.0000   1.0000   1.0000
     1.0000   1.0000   1.0000   1.0000   1.0000   1.0000   1.0000   1.0000
     1.0000   1.0000   1.0000   1.0000   1.0000   1.0000   1.0000   1.0000
     1.0000   1.0000   1.0000   1.0000   1.0000   1.0000   1.0000   1.0000
     1.0000   1.0000   1.0000   1.0000   1.0000   1.0000   1.0000   1.0000
     1.0000   1.0000   1.0000   1.0000   1.0000   1.0000   1.0000   1.0000
     1.0000   1.0000   1.0000   1.0000   1.0000   1.0000   1.0000   1.0000
     1.0000   1.0000   1.0000   1.0000   1.0000   1.0000   1.0000   1.0000
     1.0000   1.0000   1.0000   1.0000   1.0000   1.0000   1.0000   1.0000
     1.0000   1.0000   1.0000   1.0000   1.0000   1.0000   1.0000   0.7583
     0.0000   0.0000   0.0000   0.0000   0.0000   0.0000   0.0000   0.0000
     0.0000   0.0000   0.0000   0.0000   0.0000   0.0000   0.0000   0.0000
     0.0000   0.0000   0.0000   0.0000   0.0000   0.0000   0.0000   0.0000
     0.0000   0.0000   0.0000   0.0000   0.0000   0.0000   0.0000   0.0000
     0.0000   0.0000   0.0000   0.0000   0.0000

          k =-0.5000-0.2887 0.0000 ( 75730 PWs)   bands (ev):

   -41.2970 -41.2970 -41.2969 -41.2963 -41.2962 -41.2961 -41.2953 -41.2952
   -41.2951 -41.2949 -41.2948 -41.2948 -41.2941 -41.2940 -41.2939 -41.2841
   -41.2841 -41.2829 -41.2828 -41.2819 -41.2818 -41.2818 -41.2808 -41.2808
   -41.2800 -41.2780 -41.2779 -41.2779 -41.2779 -41.2778 -41.2778 -41.2768
   -41.2768 -41.2767 -41.2767 -41.2767 -41.2767 -41.2759 -41.2759 -41.2759
   -41.0845 -41.0845 -41.0844 -41.0826 -41.0825 -41.0825 -41.0824 -41.0823
   -41.0823 -41.0787 -41.0787 -41.0786 -41.0776 -41.0775 -41.0775 -41.0471
   -41.0470 -41.0470 -41.0468 -41.0467 -41.0466 -41.0393 -41.0392 -41.0391
   -41.0383 -41.0382 -41.0381 -41.0351 -41.0350 -41.0349 -40.9492 -40.9492
   -40.9430 -40.9430 -40.9405 -13.4014 -13.4010 -13.3894 -13.3890 -13.3820
   -13.3809 -13.3769 -13.3766 -13.3755 -13.3748 -13.3637 -13.3611 -13.3604
   -13.3600 -13.3586 -13.3579 -13.3557 -13.3469 -13.3450 -13.3435 -13.2837
   -13.2836 -13.2697 -13.2697 -13.2674 -12.9344 -12.9285 -12.9233 -12.9136
   -12.9126 -12.9115 -12.8569 -12.8533 -12.8531 -12.8516 -12.8513 -12.8501
   -12.8475 -12.8417 -12.8381  -8.3843  -8.3817  -8.1382  -8.1377  -8.1321
    -8.0793  -8.0743  -8.0534  -8.0067  -8.0049  -7.9095  -7.8638  -7.8269
    -7.7765  -7.7294  -4.1018  -4.0955  -3.8838  -3.8518  -3.8474  -3.5772
    -3.5235  -3.3870   0.7510   0.7610   0.9140   0.9162   1.0397   1.0616
     1.0759   1.1595   1.2782   1.2796   1.3385   1.3947   1.4239   1.4618
     1.6139   1.6540   1.7329   1.7620   1.7700   1.8439   1.9096   1.9115
     2.0024   2.0242   2.0746   2.1966   2.2722   2.3081   2.3149   2.3631
     2.4049   2.4146   2.5060   2.5090   2.5497   2.6001   2.6805   2.7026
     2.7331   2.7517   2.7700   2.8153   2.9774   2.9985   3.0121   5.5125
     6.0432   6.0805   6.2776   6.4428   6.5443   6.6043   6.6051   6.6942
     6.7015   6.7446   6.7955   6.8204   6.8270   6.9193   6.9396   7.0147
     7.0975   7.1223   7.1783   7.1894   7.2470   7.3549   7.3931   9.2307
     9.4066   9.4998   9.6359   9.6885   9.7552   9.8683   9.9131   9.9729
    10.1437  10.2437  10.4178  10.4671  10.5511

     occupation numbers 
     1.0000   1.0000   1.0000   1.0000   1.0000   1.0000   1.0000   1.0000
     1.0000   1.0000   1.0000   1.0000   1.0000   1.0000   1.0000   1.0000
     1.0000   1.0000   1.0000   1.0000   1.0000   1.0000   1.0000   1.0000
     1.0000   1.0000   1.0000   1.0000   1.0000   1.0000   1.0000   1.0000
     1.0000   1.0000   1.0000   1.0000   1.0000   1.0000   1.0000   1.0000
     1.0000   1.0000   1.0000   1.0000   1.0000   1.0000   1.0000   1.0000
     1.0000   1.0000   1.0000   1.0000   1.0000   1.0000   1.0000   1.0000
     1.0000   1.0000   1.0000   1.0000   1.0000   1.0000   1.0000   1.0000
     1.0000   1.0000   1.0000   1.0000   1.0000   1.0000   1.0000   1.0000
     1.0000   1.0000   1.0000   1.0000   1.0000   1.0000   1.0000   1.0000
     1.0000   1.0000   1.0000   1.0000   1.0000   1.0000   1.0000   1.0000
     1.0000   1.0000   1.0000   1.0000   1.0000   1.0000   1.0000   1.0000
     1.0000   1.0000   1.0000   1.0000   1.0000   1.0000   1.0000   1.0000
     1.0000   1.0000   1.0000   1.0000   1.0000   1.0000   1.0000   1.0000
     1.0000   1.0000   1.0000   1.0000   1.0000   1.0000   1.0000   1.0000
     1.0000   1.0000   1.0000   1.0000   1.0000   1.0000   1.0000   1.0000
     1.0000   1.0000   1.0000   1.0000   1.0000   1.0000   1.0000   1.0000
     1.0000   1.0000   1.0000   1.0000   1.0000   1.0000   1.0000   1.0000
     1.0000   1.0000   1.0000   1.0000   1.0000   1.0000   1.0000   1.0000
     1.0000   1.0000   1.0000   1.0000   1.0000   1.0000   1.0000   1.0000
     1.0000   1.0000   1.0000   1.0000   1.0000   1.0000   1.0000   1.0000
     1.0000   1.0000   1.0000   1.0000   1.0000   1.0000   1.0000   1.0000
     1.0000   1.0000   1.0000   1.0000   1.0000   1.0000   1.0000   0.7582
     0.0000   0.0000   0.0000   0.0000   0.0000   0.0000   0.0000   0.0000
     0.0000   0.0000   0.0000   0.0000   0.0000   0.0000   0.0000   0.0000
     0.0000   0.0000   0.0000   0.0000   0.0000   0.0000   0.0000   0.0000
     0.0000   0.0000   0.0000   0.0000   0.0000   0.0000   0.0000   0.0000
     0.0000   0.0000   0.0000   0.0000   0.0000

     the Fermi energy is     5.5799 ev

!    total energy              =  -15624.90783223 Ry
     total all-electron energy =   -547996.850390 Ry
     estimated scf accuracy    <       0.00000008 Ry
     smearing contrib. (-TS)   =      -0.00450989 Ry
     internal energy E=F+TS    =  -15624.90332234 Ry

     The total energy is F=E-TS. E is the sum of the following terms:
     one-electron contribution =   -2972.94623580 Ry
     hartree contribution      =    1651.26665157 Ry
     xc contribution           =   -1080.63672824 Ry
     ewald contribution        =   -2276.42234981 Ry
     one-center paw contrib.   =  -10946.16466005 Ry
      -> PAW hartree energy AE =     192.61998217 Ry
      -> PAW hartree energy PS =    -193.09858306 Ry
      -> PAW xc energy AE      =   -1596.91503963 Ry
      -> PAW xc energy PS      =      66.67351802 Ry
      -> total E_H with PAW    =    1650.78805068 Ry
      -> total E_XC with PAW   =   -2610.87824986 Ry

     convergence has been achieved in  13 iterations


     -----------------------------------------------
     Non-local corr. energy    =      10.93649255 Ry
     -----------------------------------------------


     Forces acting on atoms (cartesian axes, Ry/au):

     atom    1 type  1   force =    -0.00000053    0.00049536   -0.00074198
     atom    2 type  1   force =     0.00001334   -0.02319357   -0.00330004
     atom    3 type  1   force =     0.00043919   -0.00025742   -0.00073200
     atom    4 type  1   force =    -0.02006535    0.01157626   -0.00327049
     atom    5 type  1   force =     0.00000356   -0.00000462   -0.00114644
     atom    6 type  1   force =    -0.00000697    0.00000264    0.00219686
     atom    7 type  1   force =    -0.00042724   -0.00025263   -0.00074485
     atom    8 type  1   force =     0.02008625    0.01156877   -0.00330104
     atom    9 type  2   force =     0.00002028   -0.00001655    0.00284325
     atom   10 type  2   force =    -0.00020314    0.00001824    0.00118878
     atom   11 type  2   force =    -0.00018461   -0.00007393    0.00353447
     atom   12 type  2   force =    -0.00008259    0.00014310    0.00119150
     atom   13 type  2   force =    -0.00002387    0.00018890    0.00351476
     atom   14 type  2   force =     0.00018198   -0.00005728    0.00115516
     atom   15 type  2   force =     0.00018274   -0.00009633    0.00353894
     atom   16 type  2   force =     0.00101886   -0.00059681   -0.00108795
     atom   17 type  2   force =    -0.00199601    0.00111129   -0.00032968
     atom   18 type  2   force =     0.00003241    0.00115668   -0.00105183
     atom   19 type  2   force =     0.00007363   -0.00222160   -0.00039635
     atom   20 type  2   force =    -0.00096980   -0.00061037   -0.00108005
     atom   21 type  2   force =     0.00199728    0.00102028   -0.00039443
     atom   22 type  2   force =    -0.00000057   -0.00000863   -0.00317886
     atom   23 type  2   force =    -0.00008884    0.00010821    0.00159228
     The non-local contrib.  to forces
     atom    1 type  1   force =     0.00003027    0.00032948   -0.00101038
     atom    2 type  1   force =     0.00000136    0.04029842    0.03029648
     atom    3 type  1   force =     0.00034856   -0.00023220   -0.00103417
     atom    4 type  1   force =     0.03491932   -0.02018044    0.03030469
     atom    5 type  1   force =     0.00003637   -0.00004512   -0.00309479
     atom    6 type  1   force =    -0.00001369   -0.00000254    0.00217086
     atom    7 type  1   force =    -0.00028755   -0.00023480   -0.00101862
     atom    8 type  1   force =    -0.03491215   -0.02018282    0.03028284
     atom    9 type  2   force =     0.00000991    0.00000521    0.23320157
     atom   10 type  2   force =    -0.00637660   -0.00360595    0.22640281
     atom   11 type  2   force =    -0.00007980   -0.00000511    0.23868254
     atom   12 type  2   force =    -0.00003874    0.00732620    0.22639911
     atom   13 type  2   force =    -0.00002270    0.00008282    0.23867403
     atom   14 type  2   force =     0.00634482   -0.00363938    0.22640823
     atom   15 type  2   force =     0.00006014   -0.00002091    0.23868206
     atom   16 type  2   force =     0.00348439   -0.00199717   -0.22566160
     atom   17 type  2   force =    -0.01203644    0.00695071   -0.21394695
     atom   18 type  2   force =    -0.00001398    0.00405102   -0.22565553
     atom   19 type  2   force =     0.00000722   -0.01386886   -0.21396919
     atom   20 type  2   force =    -0.00349597   -0.00199326   -0.22567770
     atom   21 type  2   force =     0.01202803    0.00693392   -0.21397841
     atom   22 type  2   force =    -0.00000633    0.00000679   -0.23096254
     atom   23 type  2   force =    -0.00003486    0.00004611   -0.14333204
     The ionic contribution  to forces
     atom    1 type  1   force =    -0.00074234   -0.58227100    2.92791047
     atom    2 type  1   force =     0.00013369   -7.76251786   -7.70841122
     atom    3 type  1   force =    -0.50530813    0.29239868    2.92799054
     atom    4 type  1   force =    -6.72260036    3.88187842   -7.70817813
     atom    5 type  1   force =    -0.00063459    0.00079593    2.37967905
     atom    6 type  1   force =     0.00006930    0.00010113   -3.40553939
     atom    7 type  1   force =     0.50424962    0.29264501    2.92789138
     atom    8 type  1   force =     6.72244040    3.88163173   -7.70792947
     atom    9 type  2   force =    -0.00080604    0.00000709  -14.07766394
     atom   10 type  2   force =    -0.00047324   -0.00038112  -14.07688773
     atom   11 type  2   force =    -0.00058416   -0.00031354  -14.07726257
     atom   12 type  2   force =     0.00008818    0.00038157  -14.07833989
     atom   13 type  2   force =     0.00003926    0.00042399  -14.07804152
     atom   14 type  2   force =     0.00014433   -0.00013865  -14.07756247
     atom   15 type  2   force =     0.00019416    0.00013133  -14.07764023
     atom   16 type  2   force =     2.47479779   -1.42988591   21.34230256
     atom   17 type  2   force =     2.12677198   -1.22867019    7.20736764
     atom   18 type  2   force =     0.00122279    2.85620558   21.34339326
     atom   19 type  2   force =     0.00029652    2.45612095    7.20779062
     atom   20 type  2   force =    -2.47320176   -1.43015819   21.34246614
     atom   21 type  2   force =    -2.12652546   -1.22865732    7.20688772
     atom   22 type  2   force =     0.00059073   -0.00019914   18.84726208
     atom   23 type  2   force =    -0.00016265    0.00047152    9.41251510
     The local contribution  to forces
     atom    1 type  1   force =     0.00068702    0.58230831   -2.92766503
     atom    2 type  1   force =    -0.00017427    7.69881650    7.67553000
     atom    3 type  1   force =     0.50528216   -0.29235088   -2.92770872
     atom    4 type  1   force =     6.66745448   -3.85000303    7.67529150
     atom    5 type  1   force =     0.00061295   -0.00075442   -2.37774289
     atom    6 type  1   force =    -0.00003929   -0.00011819    3.40575825
     atom    7 type  1   force =    -0.50428332   -0.29257187   -2.92763297
     atom    8 type  1   force =    -6.66729610   -3.84970649    7.67505409
     atom    9 type  2   force =     0.00074937    0.00002442   13.85242384
     atom   10 type  2   force =     0.00661852    0.00359557   13.85698920
     atom   11 type  2   force =     0.00047088    0.00016076   13.84721288
     atom   12 type  2   force =     0.00009458   -0.00726288   13.85839544
     atom   13 type  2   force =     0.00001085   -0.00024598   13.84800051
     atom   14 type  2   force =    -0.00622817    0.00353836   13.85770910
     atom   15 type  2   force =    -0.00007324   -0.00022452   13.84755417
     atom   16 type  2   force =    -2.47709978    1.43120496  -21.12243745
     atom   17 type  2   force =    -2.11681224    1.22299800   -6.99889207
     atom   18 type  2   force =    -0.00121988   -2.85893457  -21.12356053
     atom   19 type  2   force =    -0.00043799   -2.44482605   -6.99915355
     atom   20 type  2   force =     2.47552252    1.43149438  -21.12258716
     atom   21 type  2   force =     2.11658847    1.22316238   -6.99828418
     atom   22 type  2   force =    -0.00054425    0.00016333  -18.62437562
     atom   23 type  2   force =     0.00034386   -0.00069118   -9.27098556
     The core correction contribution to forces
     atom    1 type  1   force =    -0.00000103   -0.00004720    0.00009358
     atom    2 type  1   force =    -0.00000105    0.00019892   -0.00064272
     atom    3 type  1   force =    -0.00004115    0.00002386    0.00009347
     atom    4 type  1   force =     0.00017160   -0.00009895   -0.00064430
     atom    5 type  1   force =     0.00000037    0.00000015    0.00018414
     atom    6 type  1   force =     0.00000073   -0.00000032   -0.00023857
     atom    7 type  1   force =     0.00004090    0.00002468    0.00009390
     atom    8 type  1   force =    -0.00017214   -0.00009775   -0.00064301
     atom    9 type  2   force =    -0.00000147    0.00000228   -0.00528718
     atom   10 type  2   force =     0.00011198    0.00006909   -0.00515781
     atom   11 type  2   force =     0.00000324    0.00000497   -0.00541128
     atom   12 type  2   force =    -0.00000157   -0.00012923   -0.00515502
     atom   13 type  2   force =    -0.00000096   -0.00000210   -0.00540915
     atom   14 type  2   force =    -0.00011167    0.00006704   -0.00515794
     atom   15 type  2   force =    -0.00000533    0.00000526   -0.00541023
     atom   16 type  2   force =    -0.00010951    0.00006457    0.00504864
     atom   17 type  2   force =     0.00029507   -0.00016961    0.00484291
     atom   18 type  2   force =     0.00000050   -0.00012469    0.00504822
     atom   19 type  2   force =     0.00000069    0.00034485    0.00484077
     atom   20 type  2   force =     0.00010909    0.00006413    0.00505060
     atom   21 type  2   force =    -0.00029595   -0.00017083    0.00484385
     atom   22 type  2   force =    -0.00000006    0.00000234    0.00523714
     atom   23 type  2   force =    -0.00000082    0.00000271    0.00326087
     The Hubbard contrib.    to forces
     atom    1 type  1   force =     0.00000000    0.00000000    0.00000000
     atom    2 type  1   force =     0.00000000    0.00000000    0.00000000
     atom    3 type  1   force =     0.00000000    0.00000000    0.00000000
     atom    4 type  1   force =     0.00000000    0.00000000    0.00000000
     atom    5 type  1   force =     0.00000000    0.00000000    0.00000000
     atom    6 type  1   force =     0.00000000    0.00000000    0.00000000
     atom    7 type  1   force =     0.00000000    0.00000000    0.00000000
     atom    8 type  1   force =     0.00000000    0.00000000    0.00000000
     atom    9 type  2   force =     0.00000000    0.00000000    0.00000000
     atom   10 type  2   force =     0.00000000    0.00000000    0.00000000
     atom   11 type  2   force =     0.00000000    0.00000000    0.00000000
     atom   12 type  2   force =     0.00000000    0.00000000    0.00000000
     atom   13 type  2   force =     0.00000000    0.00000000    0.00000000
     atom   14 type  2   force =     0.00000000    0.00000000    0.00000000
     atom   15 type  2   force =     0.00000000    0.00000000    0.00000000
     atom   16 type  2   force =     0.00000000    0.00000000    0.00000000
     atom   17 type  2   force =     0.00000000    0.00000000    0.00000000
     atom   18 type  2   force =     0.00000000    0.00000000    0.00000000
     atom   19 type  2   force =     0.00000000    0.00000000    0.00000000
     atom   20 type  2   force =     0.00000000    0.00000000    0.00000000
     atom   21 type  2   force =     0.00000000    0.00000000    0.00000000
     atom   22 type  2   force =     0.00000000    0.00000000    0.00000000
     atom   23 type  2   force =     0.00000000    0.00000000    0.00000000
     The SCF correction term to forces
     atom    1 type  1   force =     0.00001935    0.00018524   -0.00005645
     atom    2 type  1   force =     0.00004740    0.00001990   -0.00005839
     atom    3 type  1   force =     0.00015154   -0.00008740   -0.00005893
     atom    4 type  1   force =    -0.00001660   -0.00001028   -0.00003008
     atom    5 type  1   force =    -0.00001774    0.00000830   -0.00015777
     atom    6 type  1   force =    -0.00003021    0.00003203    0.00005989
     atom    7 type  1   force =    -0.00015309   -0.00010618   -0.00006437
     atom    8 type  1   force =     0.00002003   -0.00006643   -0.00005131
     atom    9 type  2   force =     0.00006231   -0.00004609    0.00018315
     atom   10 type  2   force =    -0.00009001    0.00035012   -0.00014352
     atom   11 type  2   force =    -0.00000097    0.00008846    0.00032708
     atom   12 type  2   force =    -0.00023124   -0.00016308   -0.00009396
     atom   13 type  2   force =    -0.00005652   -0.00006036    0.00030506
     atom   14 type  2   force =     0.00002647    0.00012482   -0.00022758
     atom   15 type  2   force =     0.00000081    0.00002199    0.00036736
     atom   16 type  2   force =    -0.00006022    0.00002621   -0.00032591
     atom   17 type  2   force =    -0.00022058    0.00001185    0.00031297
     atom   18 type  2   force =     0.00003678   -0.00003119   -0.00026308
     atom   19 type  2   force =     0.00020100    0.00001698    0.00010918
     atom   20 type  2   force =     0.00009013   -0.00000797   -0.00031775
     atom   21 type  2   force =     0.00019598   -0.00023840    0.00015079
     atom   22 type  2   force =    -0.00004686    0.00002752   -0.00032574
     atom   23 type  2   force =    -0.00024055    0.00028851    0.00014809

     Total force =     0.041695     Total SCF correction =     0.001317


     Computing stress (Cartesian axis) and pressure



     -----------------------------------------------
     Non-local corr. energy    =      10.93649255 Ry
     -----------------------------------------------

          total   stress  (Ry/bohr**3)                   (kbar)     P=       13.98
   0.00009665  -0.00000002   0.00000004           14.22       -0.00        0.01
  -0.00000002   0.00009662  -0.00000003           -0.00       14.21       -0.00
   0.00000004  -0.00000003   0.00009179            0.01       -0.00       13.50

     kinetic stress (kbar)  14470.58      0.00      0.00
                                0.00  14470.59     -0.00
                                0.00     -0.00  14483.18

     local   stress (kbar)  -8468.46      0.47     -0.44
                                0.47  -8467.54      0.30
                               -0.44      0.30   1329.09

     nonloc. stress (kbar)  -1169.58     -0.00      0.00
                               -0.00  -1169.58     -0.00
                                0.00     -0.00  -1169.13

     hartree stress (kbar)  12066.59     -0.18      0.17
                               -0.18  12066.24     -0.11
                                0.17     -0.11   7594.25

     exc-cor stress (kbar)   6605.65     -0.00      0.00
                               -0.00   6605.65     -0.00
                                0.00     -0.00   6604.68

     corecor stress (kbar) -10770.05      0.00     -0.00
                                0.00 -10770.05      0.00
                               -0.00      0.00 -10770.23

     ewald   stress (kbar) -12799.66     -0.29      0.27
                               -0.29 -12800.23     -0.19
                                0.27     -0.19 -18138.79

     hubbard stress (kbar)      0.00      0.00      0.00
                                0.00      0.00      0.00
                                0.00      0.00      0.00

     DFT-D   stress (kbar)      0.00      0.00      0.00
                                0.00      0.00      0.00
                                0.00      0.00      0.00

     XDM     stress (kbar)      0.00      0.00      0.00
                                0.00      0.00      0.00
                                0.00      0.00      0.00

     dft-nl  stress (kbar)     79.14      0.00     -0.00
                                0.00     79.14      0.00
                               -0.00      0.00     80.46

     TS-vdW  stress (kbar)      0.00      0.00      0.00
                                0.00      0.00      0.00
                                0.00      0.00      0.00

     MDB     stress (kbar)      0.00      0.00      0.00
                                0.00      0.00      0.00
                                0.00      0.00      0.00

     3D-RISM stress (kbar)      0.00      0.00      0.00
                                0.00      0.00      0.00
                                0.00      0.00      0.00


     BFGS Geometry Optimization
     Energy error            =      0.0E+00 Ry
     Gradient error          =      2.3E-02 Ry/Bohr

     number of scf cycles    =   1
     number of bfgs steps    =   0

     energy             new  =  -15624.9078322302 Ry

     new trust radius        =       0.0234271703 bohr
     new conv_thr            =       0.0000001000 Ry


ATOMIC_POSITIONS (angstrom)
Pb            2.3557943965        4.0799809850       14.7549720533
Pb            2.3557054834        4.0675304897        7.3759058834
Pb            0.0003768618        8.1596425292       14.7548996424
Pb           -0.0105699222        8.1659897919        7.3758438254
Pb            7.0670655804        4.0796982572       14.7548193800
Pb            7.0669637563        4.0797872519        7.3788760726
Pb            4.7111873855        8.1596269164       14.7549541993
Pb            4.7219464061        8.1659676812        7.3758890193
I             2.3558425787        1.3596720890       12.8618614482
I            -0.0000221262        5.4398355487        5.4831957425
I             0.0000839295        5.4397016248       12.8621495349
I             7.0669609107        1.3598235780        5.4833362344
I             7.0670882325        1.3597626634       12.8622781534
I             4.7114506913        5.4397774381        5.4832393135
I             4.7115473408        5.4396716237       12.8622132603
I             0.0005070410        2.7195889631        1.8944000215
I            -0.0009921104        2.7204076992        9.2725137852
I            -2.3556651894        6.8005767679        1.8943414386
I            -2.3555471275        6.7987039071        9.2724008122
I             4.7107237058        2.7195636416        1.8944655598
I             4.7123900631        2.7203413914        9.2725408790
I             2.3555863764        6.7999419646        1.8932772222
I             2.3556359171        6.7999186417        9.2735145087



     Writing config-only to output data dir ./PbI2.save/
     NEW-OLD atomic charge density approx. for the potential

     Check: negative core charge=   -0.000001


     -----------------------------------------------
     Non-local corr. energy    =      10.93666762 Ry
     -----------------------------------------------


     total cpu time spent up to now is      469.1 secs

     Self-consistent Calculation

     iteration #  1     ecut=    70.00 Ry     beta= 0.70
     Davidson diagonalization with overlap

---- Real-time Memory Report at c_bands before calling an iterative solver
           523 MiB given to the printing process from OS
             0 MiB allocation reported by mallinfo(arena+hblkhd)
       1989118 MiB available memory on the node where the printing process lives
------------------
     ethr =  1.00E-06,  avg # of iterations =  5.3

     Threshold (ethr) on eigenvalues was too large:
     Diagonalizing with lowered threshold

     Davidson diagonalization with overlap

---- Real-time Memory Report at c_bands before calling an iterative solver
           523 MiB given to the printing process from OS
             0 MiB allocation reported by mallinfo(arena+hblkhd)
       1992221 MiB available memory on the node where the printing process lives
------------------
     ethr =  5.18E-08,  avg # of iterations =  9.8


     -----------------------------------------------
     Non-local corr. energy    =      10.93675595 Ry
     -----------------------------------------------


     total cpu time spent up to now is      526.3 secs

     total energy              =  -15624.90945170 Ry
     estimated scf accuracy    <       0.00018762 Ry

     iteration #  2     ecut=    70.00 Ry     beta= 0.70
     Davidson diagonalization with overlap

---- Real-time Memory Report at c_bands before calling an iterative solver
           523 MiB given to the printing process from OS
             0 MiB allocation reported by mallinfo(arena+hblkhd)
       1991244 MiB available memory on the node where the printing process lives
------------------
     ethr =  5.10E-08,  avg # of iterations = 11.8


     -----------------------------------------------
     Non-local corr. energy    =      10.93670102 Ry
     -----------------------------------------------


     total cpu time spent up to now is      563.5 secs

     total energy              =  -15624.90927366 Ry
     estimated scf accuracy    <       0.00279416 Ry

     iteration #  3     ecut=    70.00 Ry     beta= 0.70
     Davidson diagonalization with overlap

---- Real-time Memory Report at c_bands before calling an iterative solver
           523 MiB given to the printing process from OS
             0 MiB allocation reported by mallinfo(arena+hblkhd)
       1991148 MiB available memory on the node where the printing process lives
------------------
     ethr =  5.10E-08,  avg # of iterations = 13.8


     -----------------------------------------------
     Non-local corr. energy    =      10.93666550 Ry
     -----------------------------------------------


     total cpu time spent up to now is      598.3 secs

     total energy              =  -15624.90953567 Ry
     estimated scf accuracy    <       0.00007885 Ry

     iteration #  4     ecut=    70.00 Ry     beta= 0.70
     Davidson diagonalization with overlap

---- Real-time Memory Report at c_bands before calling an iterative solver
           523 MiB given to the printing process from OS
             0 MiB allocation reported by mallinfo(arena+hblkhd)
       1991203 MiB available memory on the node where the printing process lives
------------------
     ethr =  2.14E-08,  avg # of iterations = 12.5


     -----------------------------------------------
     Non-local corr. energy    =      10.93664715 Ry
     -----------------------------------------------


     total cpu time spent up to now is      628.3 secs

     total energy              =  -15624.90952982 Ry
     estimated scf accuracy    <       0.00000844 Ry

     iteration #  5     ecut=    70.00 Ry     beta= 0.70
     Davidson diagonalization with overlap

---- Real-time Memory Report at c_bands before calling an iterative solver
           523 MiB given to the printing process from OS
             0 MiB allocation reported by mallinfo(arena+hblkhd)
       1990526 MiB available memory on the node where the printing process lives
------------------
     ethr =  2.29E-09,  avg # of iterations = 11.5


     -----------------------------------------------
     Non-local corr. energy    =      10.93664334 Ry
     -----------------------------------------------


     total cpu time spent up to now is      662.4 secs

     total energy              =  -15624.90952296 Ry
     estimated scf accuracy    <       0.00000789 Ry

     iteration #  6     ecut=    70.00 Ry     beta= 0.70
     Davidson diagonalization with overlap

---- Real-time Memory Report at c_bands before calling an iterative solver
           523 MiB given to the printing process from OS
             0 MiB allocation reported by mallinfo(arena+hblkhd)
       1989678 MiB available memory on the node where the printing process lives
------------------
     ethr =  2.14E-09,  avg # of iterations = 12.8


     -----------------------------------------------
     Non-local corr. energy    =      10.93664376 Ry
     -----------------------------------------------


     total cpu time spent up to now is      693.5 secs

     total energy              =  -15624.90952130 Ry
     estimated scf accuracy    <       0.00000144 Ry

     iteration #  7     ecut=    70.00 Ry     beta= 0.70
     Davidson diagonalization with overlap

---- Real-time Memory Report at c_bands before calling an iterative solver
           523 MiB given to the printing process from OS
             0 MiB allocation reported by mallinfo(arena+hblkhd)
       1990880 MiB available memory on the node where the printing process lives
------------------
     ethr =  3.93E-10,  avg # of iterations = 13.0


     -----------------------------------------------
     Non-local corr. energy    =      10.93664867 Ry
     -----------------------------------------------


     total cpu time spent up to now is      725.6 secs

     total energy              =  -15624.90952137 Ry
     estimated scf accuracy    <       0.00000022 Ry

     iteration #  8     ecut=    70.00 Ry     beta= 0.70
     Davidson diagonalization with overlap

---- Real-time Memory Report at c_bands before calling an iterative solver
           523 MiB given to the printing process from OS
             0 MiB allocation reported by mallinfo(arena+hblkhd)
       1991394 MiB available memory on the node where the printing process lives
------------------
     ethr =  6.01E-11,  avg # of iterations = 10.5


     -----------------------------------------------
     Non-local corr. energy    =      10.93665166 Ry
     -----------------------------------------------


     total cpu time spent up to now is      758.2 secs

     End of self-consistent calculation

          k = 0.0000 0.0000 0.0000 ( 75645 PWs)   bands (ev):

   -41.3013 -41.3012 -41.3011 -41.3005 -41.3005 -41.3004 -41.2995 -41.2994
   -41.2993 -41.2992 -41.2992 -41.2991 -41.2984 -41.2983 -41.2982 -41.2915
   -41.2915 -41.2902 -41.2902 -41.2900 -41.2900 -41.2893 -41.2887 -41.2887
   -41.2879 -41.2871 -41.2870 -41.2870 -41.2870 -41.2870 -41.2869 -41.2857
   -41.2857 -41.2857 -41.2857 -41.2856 -41.2856 -41.2848 -41.2848 -41.2847
   -41.0727 -41.0727 -41.0726 -41.0711 -41.0711 -41.0710 -41.0699 -41.0699
   -41.0698 -41.0663 -41.0662 -41.0662 -41.0651 -41.0651 -41.0650 -41.0518
   -41.0518 -41.0517 -41.0515 -41.0515 -41.0514 -41.0447 -41.0447 -41.0446
   -41.0435 -41.0435 -41.0434 -41.0406 -41.0406 -41.0405 -40.9101 -40.9101
   -40.9037 -40.9037 -40.9012 -13.4123 -13.4123 -13.4040 -13.3943 -13.3942
   -13.3827 -13.3827 -13.3807 -13.3807 -13.3775 -13.3740 -13.3677 -13.3677
   -13.3676 -13.3632 -13.3631 -13.3631 -13.3554 -13.3509 -13.3508 -13.2801
   -13.2801 -13.2659 -13.2659 -13.2638 -12.9288 -12.9284 -12.9123 -12.9090
   -12.9062 -12.9057 -12.8505 -12.8503 -12.8499 -12.8457 -12.8412 -12.8410
   -12.8406 -12.8307 -12.8302  -8.5832  -8.2500  -8.1731  -8.1281  -8.1280
    -8.1264  -8.0298  -8.0297  -8.0291  -7.9087  -7.8917  -7.8916  -7.7880
    -7.7879  -7.6968  -4.1240  -4.1158  -4.1157  -3.9335  -3.6522  -3.5782
    -3.5779  -3.3097   0.4309   0.4369   0.4370   0.8507   0.9291   0.9292
     1.3150   1.3151   1.3666   1.4470   1.4539   1.4540   1.7464   1.7601
     1.8102   1.8103   1.9534   1.9534   1.9768   2.0509   2.0685   2.0686
     2.1754   2.1754   2.2024   2.2121   2.2124   2.2924   2.3053   2.3054
     2.3839   2.4058   2.4058   2.5846   2.5846   2.6087   2.6087   2.6169
     2.6331   2.6579   2.6579   2.7470   2.8279   2.8280   3.0302   5.2993
     5.5135   5.9872   6.1667   6.1668   6.2136   6.3261   6.3265   6.5423
     6.5424   6.6209   6.6211   6.8342   6.8343   6.8699   6.9319   6.9320
     7.0072   7.1065   7.1066   7.3228   7.5203   7.5641   7.5643   8.6498
     8.7868   8.7869   9.0817   9.4519   9.4801   9.4802   9.8738  10.3619
    10.6518  10.7058  10.7059  10.8477  10.8479

     occupation numbers 
     1.0000   1.0000   1.0000   1.0000   1.0000   1.0000   1.0000   1.0000
     1.0000   1.0000   1.0000   1.0000   1.0000   1.0000   1.0000   1.0000
     1.0000   1.0000   1.0000   1.0000   1.0000   1.0000   1.0000   1.0000
     1.0000   1.0000   1.0000   1.0000   1.0000   1.0000   1.0000   1.0000
     1.0000   1.0000   1.0000   1.0000   1.0000   1.0000   1.0000   1.0000
     1.0000   1.0000   1.0000   1.0000   1.0000   1.0000   1.0000   1.0000
     1.0000   1.0000   1.0000   1.0000   1.0000   1.0000   1.0000   1.0000
     1.0000   1.0000   1.0000   1.0000   1.0000   1.0000   1.0000   1.0000
     1.0000   1.0000   1.0000   1.0000   1.0000   1.0000   1.0000   1.0000
     1.0000   1.0000   1.0000   1.0000   1.0000   1.0000   1.0000   1.0000
     1.0000   1.0000   1.0000   1.0000   1.0000   1.0000   1.0000   1.0000
     1.0000   1.0000   1.0000   1.0000   1.0000   1.0000   1.0000   1.0000
     1.0000   1.0000   1.0000   1.0000   1.0000   1.0000   1.0000   1.0000
     1.0000   1.0000   1.0000   1.0000   1.0000   1.0000   1.0000   1.0000
     1.0000   1.0000   1.0000   1.0000   1.0000   1.0000   1.0000   1.0000
     1.0000   1.0000   1.0000   1.0000   1.0000   1.0000   1.0000   1.0000
     1.0000   1.0000   1.0000   1.0000   1.0000   1.0000   1.0000   1.0000
     1.0000   1.0000   1.0000   1.0000   1.0000   1.0000   1.0000   1.0000
     1.0000   1.0000   1.0000   1.0000   1.0000   1.0000   1.0000   1.0000
     1.0000   1.0000   1.0000   1.0000   1.0000   1.0000   1.0000   1.0000
     1.0000   1.0000   1.0000   1.0000   1.0000   1.0000   1.0000   1.0000
     1.0000   1.0000   1.0000   1.0000   1.0000   1.0000   1.0000   1.0000
     1.0000   1.0000   1.0000   1.0000   1.0000   1.0000   1.0000   0.9973
     0.7119   0.0000   0.0000   0.0000   0.0000   0.0000   0.0000   0.0000
     0.0000   0.0000   0.0000   0.0000   0.0000   0.0000   0.0000   0.0000
     0.0000   0.0000   0.0000   0.0000   0.0000   0.0000   0.0000   0.0000
     0.0000   0.0000   0.0000   0.0000   0.0000   0.0000   0.0000   0.0000
     0.0000   0.0000   0.0000   0.0000   0.0000

          k = 0.0000-0.5774 0.0000 ( 75730 PWs)   bands (ev):

   -41.3013 -41.3012 -41.3011 -41.3005 -41.3005 -41.3004 -41.2995 -41.2994
   -41.2993 -41.2992 -41.2992 -41.2991 -41.2984 -41.2983 -41.2982 -41.2915
   -41.2915 -41.2902 -41.2902 -41.2900 -41.2899 -41.2893 -41.2887 -41.2887
   -41.2879 -41.2871 -41.2870 -41.2870 -41.2870 -41.2870 -41.2869 -41.2857
   -41.2857 -41.2857 -41.2857 -41.2856 -41.2856 -41.2848 -41.2848 -41.2847
   -41.0727 -41.0727 -41.0726 -41.0711 -41.0711 -41.0710 -41.0699 -41.0699
   -41.0698 -41.0663 -41.0662 -41.0662 -41.0651 -41.0651 -41.0650 -41.0518
   -41.0518 -41.0517 -41.0515 -41.0515 -41.0514 -41.0447 -41.0447 -41.0446
   -41.0435 -41.0435 -41.0434 -41.0406 -41.0406 -41.0405 -40.9101 -40.9101
   -40.9037 -40.9037 -40.9012 -13.4078 -13.4074 -13.3967 -13.3962 -13.3890
   -13.3881 -13.3840 -13.3837 -13.3822 -13.3816 -13.3712 -13.3685 -13.3680
   -13.3671 -13.3662 -13.3656 -13.3633 -13.3547 -13.3529 -13.3513 -13.2799
   -13.2798 -13.2659 -13.2658 -13.2637 -12.9286 -12.9233 -12.9176 -12.9078
   -12.9073 -12.9058 -12.8500 -12.8469 -12.8460 -12.8450 -12.8447 -12.8424
   -12.8407 -12.8346 -12.8306  -8.3915  -8.3897  -8.1448  -8.1446  -8.1248
    -8.0850  -8.0810  -8.0461  -8.0136  -8.0118  -7.9035  -7.8627  -7.8244
    -7.7758  -7.6944  -4.1095  -4.1040  -3.8806  -3.8581  -3.8543  -3.5667
    -3.5174  -3.3781   0.7447   0.7530   0.9073   0.9084   1.0396   1.0547
     1.0724   1.1639   1.2817   1.2902   1.3346   1.3928   1.4229   1.4665
     1.6120   1.6497   1.7365   1.7542   1.7622   1.8495   1.9096   1.9102
     2.0109   2.0313   2.0752   2.2021   2.2709   2.3068   2.3253   2.3768
     2.3993   2.4088   2.5074   2.5111   2.5517   2.6059   2.6906   2.7015
     2.7294   2.7474   2.7683   2.8112   2.9804   3.0017   3.0126   5.4982
     6.0386   6.0741   6.2767   6.4500   6.5434   6.6023   6.6032   6.6892
     6.6966   6.7457   6.7919   6.8194   6.8240   6.9204   6.9439   7.0171
     7.0965   7.1191   7.1854   7.1916   7.2547   7.3593   7.3984   9.2306
     9.4024   9.4966   9.6370   9.6876   9.7570   9.8632   9.9074   9.9755
    10.1492  10.2466  10.4167  10.4649  10.5483

     occupation numbers 
     1.0000   1.0000   1.0000   1.0000   1.0000   1.0000   1.0000   1.0000
     1.0000   1.0000   1.0000   1.0000   1.0000   1.0000   1.0000   1.0000
     1.0000   1.0000   1.0000   1.0000   1.0000   1.0000   1.0000   1.0000
     1.0000   1.0000   1.0000   1.0000   1.0000   1.0000   1.0000   1.0000
     1.0000   1.0000   1.0000   1.0000   1.0000   1.0000   1.0000   1.0000
     1.0000   1.0000   1.0000   1.0000   1.0000   1.0000   1.0000   1.0000
     1.0000   1.0000   1.0000   1.0000   1.0000   1.0000   1.0000   1.0000
     1.0000   1.0000   1.0000   1.0000   1.0000   1.0000   1.0000   1.0000
     1.0000   1.0000   1.0000   1.0000   1.0000   1.0000   1.0000   1.0000
     1.0000   1.0000   1.0000   1.0000   1.0000   1.0000   1.0000   1.0000
     1.0000   1.0000   1.0000   1.0000   1.0000   1.0000   1.0000   1.0000
     1.0000   1.0000   1.0000   1.0000   1.0000   1.0000   1.0000   1.0000
     1.0000   1.0000   1.0000   1.0000   1.0000   1.0000   1.0000   1.0000
     1.0000   1.0000   1.0000   1.0000   1.0000   1.0000   1.0000   1.0000
     1.0000   1.0000   1.0000   1.0000   1.0000   1.0000   1.0000   1.0000
     1.0000   1.0000   1.0000   1.0000   1.0000   1.0000   1.0000   1.0000
     1.0000   1.0000   1.0000   1.0000   1.0000   1.0000   1.0000   1.0000
     1.0000   1.0000   1.0000   1.0000   1.0000   1.0000   1.0000   1.0000
     1.0000   1.0000   1.0000   1.0000   1.0000   1.0000   1.0000   1.0000
     1.0000   1.0000   1.0000   1.0000   1.0000   1.0000   1.0000   1.0000
     1.0000   1.0000   1.0000   1.0000   1.0000   1.0000   1.0000   1.0000
     1.0000   1.0000   1.0000   1.0000   1.0000   1.0000   1.0000   1.0000
     1.0000   1.0000   1.0000   1.0000   1.0000   1.0000   1.0000   0.7636
     0.0000   0.0000   0.0000   0.0000   0.0000   0.0000   0.0000   0.0000
     0.0000   0.0000   0.0000   0.0000   0.0000   0.0000   0.0000   0.0000
     0.0000   0.0000   0.0000   0.0000   0.0000   0.0000   0.0000   0.0000
     0.0000   0.0000   0.0000   0.0000   0.0000   0.0000   0.0000   0.0000
     0.0000   0.0000   0.0000   0.0000   0.0000

          k = 0.5000-0.2887 0.0000 ( 75730 PWs)   bands (ev):

   -41.3013 -41.3012 -41.3011 -41.3005 -41.3005 -41.3004 -41.2995 -41.2994
   -41.2993 -41.2992 -41.2992 -41.2991 -41.2984 -41.2983 -41.2982 -41.2915
   -41.2915 -41.2902 -41.2902 -41.2900 -41.2899 -41.2893 -41.2887 -41.2887
   -41.2879 -41.2871 -41.2870 -41.2870 -41.2870 -41.2870 -41.2869 -41.2857
   -41.2857 -41.2857 -41.2857 -41.2856 -41.2856 -41.2848 -41.2848 -41.2847
   -41.0727 -41.0727 -41.0726 -41.0711 -41.0711 -41.0710 -41.0699 -41.0699
   -41.0698 -41.0663 -41.0662 -41.0662 -41.0651 -41.0651 -41.0650 -41.0518
   -41.0518 -41.0517 -41.0515 -41.0515 -41.0514 -41.0447 -41.0447 -41.0446
   -41.0435 -41.0435 -41.0434 -41.0406 -41.0406 -41.0405 -40.9101 -40.9101
   -40.9037 -40.9037 -40.9012 -13.4078 -13.4074 -13.3967 -13.3962 -13.3889
   -13.3880 -13.3841 -13.3837 -13.3822 -13.3816 -13.3713 -13.3684 -13.3681
   -13.3671 -13.3662 -13.3655 -13.3634 -13.3547 -13.3528 -13.3513 -13.2799
   -13.2798 -13.2659 -13.2658 -13.2637 -12.9290 -12.9224 -12.9180 -12.9082
   -12.9065 -12.9063 -12.8504 -12.8464 -12.8460 -12.8452 -12.8442 -12.8425
   -12.8412 -12.8340 -12.8310  -8.3915  -8.3897  -8.1449  -8.1446  -8.1248
    -8.0850  -8.0810  -8.0461  -8.0136  -8.0119  -7.9035  -7.8627  -7.8244
    -7.7758  -7.6944  -4.1094  -4.1039  -3.8805  -3.8581  -3.8544  -3.5669
    -3.5173  -3.3781   0.7447   0.7531   0.9074   0.9085   1.0395   1.0545
     1.0723   1.1639   1.2817   1.2902   1.3346   1.3926   1.4229   1.4664
     1.6120   1.6496   1.7365   1.7543   1.7624   1.8495   1.9095   1.9102
     2.0108   2.0313   2.0751   2.2020   2.2709   2.3067   2.3253   2.3768
     2.3993   2.4088   2.5074   2.5112   2.5517   2.6060   2.6906   2.7016
     2.7294   2.7475   2.7684   2.8113   2.9804   3.0017   3.0125   5.4982
     6.0386   6.0741   6.2769   6.4501   6.5434   6.6026   6.6034   6.6891
     6.6963   6.7455   6.7922   6.8191   6.8238   6.9202   6.9440   7.0173
     7.0964   7.1189   7.1856   7.1914   7.2546   7.3591   7.3987   9.2306
     9.4023   9.4965   9.6371   9.6876   9.7570   9.8630   9.9072   9.9753
    10.1492  10.2466  10.4166  10.4649  10.5482

     occupation numbers 
     1.0000   1.0000   1.0000   1.0000   1.0000   1.0000   1.0000   1.0000
     1.0000   1.0000   1.0000   1.0000   1.0000   1.0000   1.0000   1.0000
     1.0000   1.0000   1.0000   1.0000   1.0000   1.0000   1.0000   1.0000
     1.0000   1.0000   1.0000   1.0000   1.0000   1.0000   1.0000   1.0000
     1.0000   1.0000   1.0000   1.0000   1.0000   1.0000   1.0000   1.0000
     1.0000   1.0000   1.0000   1.0000   1.0000   1.0000   1.0000   1.0000
     1.0000   1.0000   1.0000   1.0000   1.0000   1.0000   1.0000   1.0000
     1.0000   1.0000   1.0000   1.0000   1.0000   1.0000   1.0000   1.0000
     1.0000   1.0000   1.0000   1.0000   1.0000   1.0000   1.0000   1.0000
     1.0000   1.0000   1.0000   1.0000   1.0000   1.0000   1.0000   1.0000
     1.0000   1.0000   1.0000   1.0000   1.0000   1.0000   1.0000   1.0000
[...]
     atom   19 type  2   force =    -0.00001032   -0.00024119    0.00021396
     atom   20 type  2   force =     0.00000918    0.00000897    0.00009634
     atom   21 type  2   force =     0.00020069    0.00012819    0.00021520
     atom   22 type  2   force =     0.00000019    0.00000015    0.00031666
     atom   23 type  2   force =     0.00001303   -0.00000445   -0.00077509
     The non-local contrib.  to forces
     atom    1 type  1   force =     0.00000358   -0.00311650    0.00295440
     atom    2 type  1   force =    -0.00000156   -0.04767312    0.07393894
     atom    3 type  1   force =    -0.00265352    0.00152595    0.00296416
     atom    4 type  1   force =    -0.04114392    0.02376936    0.07395645
     atom    5 type  1   force =     0.00000046   -0.00000757   -0.01902000
     atom    6 type  1   force =    -0.00001594    0.00002675   -0.11517748
     atom    7 type  1   force =     0.00267691    0.00153633    0.00295963
     atom    8 type  1   force =     0.04120349    0.02380821    0.07396105
     atom    9 type  2   force =    -0.00000851    0.00001370    0.25168316
     atom   10 type  2   force =    -0.06549517   -0.03780982    0.18704338
     atom   11 type  2   force =    -0.00537438   -0.00310196    0.25474527
     atom   12 type  2   force =    -0.00000216    0.07561133    0.18705120
     atom   13 type  2   force =     0.00000176    0.00621240    0.25474775
     atom   14 type  2   force =     0.06550326   -0.03781888    0.18704312
     atom   15 type  2   force =     0.00536751   -0.00309680    0.25473928
     atom   16 type  2   force =     0.00750879   -0.00433242   -0.24324374
     atom   17 type  2   force =     0.04077035   -0.02354028   -0.22011431
     atom   18 type  2   force =     0.00000059    0.00867681   -0.24325100
     atom   19 type  2   force =    -0.00001237    0.04705086   -0.22010246
     atom   20 type  2   force =    -0.00751254   -0.00433433   -0.24324843
     atom   21 type  2   force =    -0.04076347   -0.02352024   -0.22011010
     atom   22 type  2   force =    -0.00000732    0.00001127   -0.24563179
     atom   23 type  2   force =    -0.00001851    0.00005932   -0.07926790
     The ionic contribution  to forces
     atom    1 type  1   force =    -0.00004858   -0.02543818    2.30048563
     atom    2 type  1   force =     0.00010515   -2.23650999   -9.31475019
     atom    3 type  1   force =    -0.02328284    0.01344534    2.30084078
     atom    4 type  1   force =    -1.94045642    1.11935031   -9.31383328
     atom    5 type  1   force =     0.00010822    0.00008225    2.54734188
     atom    6 type  1   force =     0.00038437   -0.00024393   -0.53172716
     atom    7 type  1   force =     0.02268556    0.01313872    2.30054609
     atom    8 type  1   force =     1.93902602    1.11831891   -9.31436714
     atom    9 type  2   force =     0.00025386   -0.00026954  -14.23540931
     atom   10 type  2   force =     3.53760339    2.04122346  -12.64984788
     atom   11 type  2   force =     0.65602438    0.37832554  -15.34946489
     atom   12 type  2   force =     0.00071004   -4.08315165  -12.65073551
     atom   13 type  2   force =     0.00001436   -0.75727215  -15.34904334
     atom   14 type  2   force =    -3.53816568    2.04241311  -12.64947602
     atom   15 type  2   force =    -0.65607617    0.37838337  -15.34965660
     atom   16 type  2   force =     1.93103616   -1.11470948   20.99132381
     atom   17 type  2   force =    -1.52803795    0.88379121    9.25287167
     atom   18 type  2   force =    -0.00002411    2.22998332   20.99063113
     atom   19 type  2   force =    -0.00069243   -1.76500373    9.25248927
     atom   20 type  2   force =    -1.93118285   -1.11479145   20.99073201
     atom   21 type  2   force =     1.52761636    0.88429910    9.25294484
     atom   22 type  2   force =     0.00021207   -0.00075653   19.49733434
     atom   23 type  2   force =     0.00218709   -0.00460799    7.03076989
     The local contribution  to forces
     atom    1 type  1   force =     0.00004510    0.02837707   -2.30303503
     atom    2 type  1   force =    -0.00009808    2.28594007    9.24158432
     atom    3 type  1   force =     0.02578002   -0.01487938   -2.30340140
     atom    4 type  1   force =     1.98313812   -1.14400624    9.24065517
     atom    5 type  1   force =    -0.00010969   -0.00007384   -2.52791358
     atom    6 type  1   force =    -0.00036967    0.00021832    0.64482982
     atom    7 type  1   force =    -0.02520727   -0.01458433   -2.30310118
     atom    8 type  1   force =    -1.98175287   -1.14301198    9.24118026
     atom    9 type  2   force =    -0.00024133    0.00025442   13.98970875
     atom   10 type  2   force =    -3.47384577   -2.00439957   12.46654070
     atom   11 type  2   force =    -0.65085438   -0.37533864   15.10033147
     atom   12 type  2   force =    -0.00072817    4.00954114   12.46742031
     atom   13 type  2   force =    -0.00002007    0.75129308   15.09990858
     atom   14 type  2   force =     3.47439795   -2.00560111   12.46615970
     atom   15 type  2   force =     0.65091302   -0.37540624   15.10053418
     atom   16 type  2   force =    -1.93829371    1.11889842  -20.75330371
     atom   17 type  2   force =     1.48814266   -0.86075276   -9.03727158
     atom   18 type  2   force =     0.00002700   -2.23836532  -20.75260205
     atom   19 type  2   force =     0.00072155    1.71896760   -9.03691171
     atom   20 type  2   force =     1.93844239    1.11897720  -20.75270347
     atom   21 type  2   force =    -1.48772689   -0.86129945   -9.03736084
     atom   22 type  2   force =    -0.00020881    0.00074581  -19.25650273
     atom   23 type  2   force =    -0.00218752    0.00455967   -6.95392950
     The core correction contribution to forces
     atom    1 type  1   force =    -0.00000008    0.00007510   -0.00007631
     atom    2 type  1   force =     0.00000037   -0.00084753   -0.00142835
     atom    3 type  1   force =     0.00006445   -0.00003724   -0.00007630
     atom    4 type  1   force =    -0.00073691    0.00042523   -0.00142973
     atom    5 type  1   force =     0.00000008    0.00000009    0.00029472
     atom    6 type  1   force =     0.00000008   -0.00000038    0.00213726
     atom    7 type  1   force =    -0.00006476   -0.00003733   -0.00007634
     atom    8 type  1   force =     0.00073596    0.00042428   -0.00142930
     atom    9 type  2   force =    -0.00000087    0.00000237   -0.00529928
     atom   10 type  2   force =     0.00140236    0.00080799   -0.00400860
     atom   11 type  2   force =     0.00022751    0.00013409   -0.00534556
     atom   12 type  2   force =    -0.00000008   -0.00161914   -0.00400885
     atom   13 type  2   force =    -0.00000093   -0.00026265   -0.00534544
     atom   14 type  2   force =    -0.00140231    0.00080802   -0.00400841
     atom   15 type  2   force =    -0.00022867    0.00013368   -0.00534557
     atom   16 type  2   force =    -0.00025837    0.00014975    0.00538168
     atom   17 type  2   force =    -0.00108628    0.00062738    0.00479683
     atom   18 type  2   force =    -0.00000032   -0.00030169    0.00538255
     atom   19 type  2   force =     0.00000013   -0.00125667    0.00479646
     atom   20 type  2   force =     0.00025940    0.00015071    0.00538196
     atom   21 type  2   force =     0.00108637    0.00062726    0.00479677
     atom   22 type  2   force =    -0.00000082    0.00000213    0.00517903
     atom   23 type  2   force =     0.00000116   -0.00000068    0.00171357
     The Hubbard contrib.    to forces
     atom    1 type  1   force =     0.00000000    0.00000000    0.00000000
     atom    2 type  1   force =     0.00000000    0.00000000    0.00000000
     atom    3 type  1   force =     0.00000000    0.00000000    0.00000000
     atom    4 type  1   force =     0.00000000    0.00000000    0.00000000
     atom    5 type  1   force =     0.00000000    0.00000000    0.00000000
     atom    6 type  1   force =     0.00000000    0.00000000    0.00000000
     atom    7 type  1   force =     0.00000000    0.00000000    0.00000000
     atom    8 type  1   force =     0.00000000    0.00000000    0.00000000
     atom    9 type  2   force =     0.00000000    0.00000000    0.00000000
     atom   10 type  2   force =     0.00000000    0.00000000    0.00000000
     atom   11 type  2   force =     0.00000000    0.00000000    0.00000000
     atom   12 type  2   force =     0.00000000    0.00000000    0.00000000
     atom   13 type  2   force =     0.00000000    0.00000000    0.00000000
     atom   14 type  2   force =     0.00000000    0.00000000    0.00000000
     atom   15 type  2   force =     0.00000000    0.00000000    0.00000000
     atom   16 type  2   force =     0.00000000    0.00000000    0.00000000
     atom   17 type  2   force =     0.00000000    0.00000000    0.00000000
     atom   18 type  2   force =     0.00000000    0.00000000    0.00000000
     atom   19 type  2   force =     0.00000000    0.00000000    0.00000000
     atom   20 type  2   force =     0.00000000    0.00000000    0.00000000
     atom   21 type  2   force =     0.00000000    0.00000000    0.00000000
     atom   22 type  2   force =     0.00000000    0.00000000    0.00000000
     atom   23 type  2   force =     0.00000000    0.00000000    0.00000000
     The SCF correction term to forces
     atom    1 type  1   force =    -0.00000014    0.00000044   -0.00000142
     atom    2 type  1   force =    -0.00000970    0.00001289    0.00000366
     atom    3 type  1   force =     0.00000041   -0.00000023   -0.00000126
     atom    4 type  1   force =     0.00000080   -0.00000166    0.00000080
     atom    5 type  1   force =     0.00000018   -0.00000021    0.00000438
     atom    6 type  1   force =     0.00000388   -0.00000176   -0.00000867
     atom    7 type  1   force =    -0.00000046   -0.00000001   -0.00000140
     atom    8 type  1   force =    -0.00001648    0.00000035    0.00000401
     atom    9 type  2   force =    -0.00000532    0.00000237    0.00000043
     atom   10 type  2   force =     0.00000986   -0.00002714   -0.00000035
     atom   11 type  2   force =     0.00000298   -0.00000427    0.00000293
     atom   12 type  2   force =     0.00003242    0.00000374    0.00000019
     atom   13 type  2   force =     0.00000570   -0.00000059    0.00000216
     atom   14 type  2   force =    -0.00000998    0.00000947    0.00001163
     atom   15 type  2   force =    -0.00000302    0.00000237   -0.00000286
     atom   16 type  2   force =    -0.00000324    0.00000129    0.00000244
     atom   17 type  2   force =     0.00001286   -0.00001029   -0.00001403
     atom   18 type  2   force =    -0.00000507   -0.00000576   -0.00000305
     atom   19 type  2   force =    -0.00002698    0.00000085    0.00000448
     atom   20 type  2   force =     0.00000299    0.00000695   -0.00000366
     atom   21 type  2   force =    -0.00001146    0.00002164    0.00000660
     atom   22 type  2   force =     0.00000528   -0.00000242   -0.00000011
     atom   23 type  2   force =     0.00003103   -0.00001466    0.00000091

     Total force =     0.002659     Total SCF correction =     0.000079


     Computing stress (Cartesian axis) and pressure



     -----------------------------------------------
     Non-local corr. energy    =      10.94106830 Ry
     -----------------------------------------------

          total   stress  (Ry/bohr**3)                   (kbar)     P=       13.02
   0.00008434  -0.00000000  -0.00000000           12.41       -0.00       -0.00
  -0.00000000   0.00008434   0.00000000           -0.00       12.41        0.00
  -0.00000000   0.00000000   0.00009688           -0.00        0.00       14.25

     kinetic stress (kbar)  14469.54      0.00     -0.00
                                0.00  14469.55      0.00
                               -0.00      0.00  14481.63

     local   stress (kbar)  -8782.25      0.02     -0.00
                                0.02  -8782.16      0.07
                               -0.00      0.07   2213.69

     nonloc. stress (kbar)  -1168.15      0.00     -0.00
                                0.00  -1168.15      0.00
                               -0.00      0.00  -1170.94

     hartree stress (kbar)  12199.84     -0.00     -0.00
                               -0.00  12199.81     -0.03
                               -0.00     -0.03   7199.17

     exc-cor stress (kbar)   6605.78      0.00      0.00
                                0.00   6605.78     -0.00
                                0.00     -0.00   6604.07

     corecor stress (kbar) -10770.09     -0.00      0.00
                               -0.00 -10770.09     -0.00
                                0.00     -0.00 -10770.04

     ewald   stress (kbar) -12621.30     -0.02      0.01
                               -0.02 -12621.38     -0.05
                                0.01     -0.05 -18624.04

     hubbard stress (kbar)      0.00      0.00      0.00
                                0.00      0.00      0.00
                                0.00      0.00      0.00

     DFT-D   stress (kbar)      0.00      0.00      0.00
                                0.00      0.00      0.00
                                0.00      0.00      0.00

     XDM     stress (kbar)      0.00      0.00      0.00
                                0.00      0.00      0.00
                                0.00      0.00      0.00

     dft-nl  stress (kbar)     79.04      0.00     -0.00
                                0.00     79.04      0.00
                               -0.00      0.00     80.71

     TS-vdW  stress (kbar)      0.00      0.00      0.00
                                0.00      0.00      0.00
                                0.00      0.00      0.00

     MDB     stress (kbar)      0.00      0.00      0.00
                                0.00      0.00      0.00
                                0.00      0.00      0.00

     3D-RISM stress (kbar)      0.00      0.00      0.00
                                0.00      0.00      0.00
                                0.00      0.00      0.00

     Energy error            =      5.2E-05 Ry
     Gradient error          =      9.2E-04 Ry/Bohr

     bfgs converged in  21 scf cycles and  20 bfgs steps
     (criteria: energy <  1.0E-04 Ry, force <  1.0E-03 Ry/Bohr)

     End of BFGS Geometry Optimization

     Final energy             =  -15624.9323424326 Ry

     File ./PbI2.bfgs deleted, as requested
Begin final coordinates

ATOMIC_POSITIONS (angstrom)
Pb            2.3557705384        4.0760524918       14.7628407441
Pb            2.3556769311        3.6968182513        7.3551315801
Pb           -0.0030932875        8.1616923509       14.7629017118
Pb           -0.3313039850        8.3512039431        7.3552410230
Pb            7.0670513642        4.0797597035       14.7789501508
Pb            7.0669279860        4.0798037813        7.2467972062
Pb            4.7146198107        8.1616903192       14.7628614242
Pb            5.0427906768        8.3512891791        7.3552221416
I             2.3557330667        1.3597649081       12.8871345465
I            -0.0495979901        5.4112054204        5.5063966771
I            -0.0135017823        5.4319946598       12.8956150729
I             7.0669182286        1.4169895673        5.5063843392
I             7.0670056105        1.3754602282       12.8956324425
I             4.7609639752        5.4111676586        5.5064197015
I             4.7250213391        5.4319720700       12.8955951819
I             0.0263099794        2.7046411153        1.9036956605
I             0.0304147642        2.7022433214        9.3202751911
I            -2.3555327395        6.8299709914        1.9037267321
I            -2.3556024086        6.8348954313        9.3202466572
I             4.6852512606        2.7046903277        1.9036922169
I             4.6809323859        2.7022499684        9.3202648237
I             2.3557481296        6.7998764833        1.8781539581
I             2.3555563270        6.8000792731        9.0687088073
End final coordinates



     Writing all to output data dir ./PbI2.save/
 
     init_run     :      9.35s CPU      9.55s WALL (       1 calls)
     electrons    :   6890.67s CPU   6985.12s WALL (      21 calls)
     update_pot   :     37.59s CPU     37.97s WALL (      20 calls)
     forces       :     76.74s CPU     78.02s WALL (      21 calls)
     stress       :    660.52s CPU    665.14s WALL (      21 calls)

     Called by init_run:
     wfcinit      :      5.32s CPU      5.41s WALL (       1 calls)
     wfcinit:atom :      0.02s CPU      0.03s WALL (       4 calls)
     wfcinit:wfcr :      5.25s CPU      5.31s WALL (       4 calls)
     potinit      :      2.82s CPU      2.87s WALL (       1 calls)
     hinit0       :      0.65s CPU      0.67s WALL (       1 calls)

     Called by electrons:
     c_bands      :   5945.04s CPU   6007.19s WALL (     244 calls)
     sum_band     :    615.97s CPU    633.77s WALL (     244 calls)
     v_of_rho     :    143.90s CPU    147.32s WALL (     255 calls)
     v_h          :      1.51s CPU      1.52s WALL (     255 calls)
     v_xc         :    165.96s CPU    169.86s WALL (     297 calls)
     newd         :     91.38s CPU    100.37s WALL (     255 calls)
     PAW_pot      :    122.59s CPU    123.23s WALL (     275 calls)
     mix_rho      :      5.97s CPU      6.15s WALL (     244 calls)
     vdW_kernel   :      1.45s CPU      1.45s WALL (       1 calls)

     Called by c_bands:
     init_us_2    :     15.87s CPU     16.03s WALL (    2204 calls)
     init_us_2:cp :     15.84s CPU     16.02s WALL (    2204 calls)
     cegterg      :   5833.95s CPU   5893.97s WALL (     976 calls)

     Called by sum_band:
     sum_band:wei :      0.11s CPU      0.12s WALL (     244 calls)
     sum_band:loo :    510.62s CPU    514.36s WALL (     244 calls)
     sum_band:buf :      4.95s CPU      5.41s WALL (     976 calls)
     sum_band:ini :      6.85s CPU      6.90s WALL (     976 calls)
     sum_band:cal :     97.19s CPU     97.61s WALL (    1056 calls)
     sum_band:bec :      0.56s CPU      0.57s WALL (    1056 calls)
     addusdens    :     50.33s CPU     64.10s WALL (     244 calls)
     addusd:skk   :      0.82s CPU      0.97s WALL (     488 calls)
     addusd:dgemm :     20.03s CPU     33.30s WALL (     488 calls)
     addusd:qvan2 :     27.15s CPU     27.33s WALL (     488 calls)

     Called by *egterg:
     cdiaghg      :   1396.87s CPU   1402.43s WALL (    9240 calls)
     cegterg:over :    703.19s CPU    706.86s WALL (    8384 calls)
     cegterg:upda :    251.96s CPU    257.97s WALL (    8384 calls)
     cegterg:last :    110.42s CPU    111.01s WALL (    1031 calls)
     h_psi        :   2804.01s CPU   2834.37s WALL (    9364 calls)
     s_psi        :    193.13s CPU    194.59s WALL (    9364 calls)
     g_psi        :      2.61s CPU      2.65s WALL (    8384 calls)

     Called by h_psi:
     h_psi:calbec :    315.69s CPU    317.25s WALL (    9364 calls)
     vloc_psi     :   2286.22s CPU   2304.97s WALL (    9364 calls)
     add_vuspsi   :    194.08s CPU    195.21s WALL (    9364 calls)

     General routines
     calbec       :    669.55s CPU    672.45s WALL (   10840 calls)
     fft          :    164.47s CPU    165.40s WALL (   19602 calls)
     ffts         :      2.52s CPU      2.55s WALL (     499 calls)
     fftw         :   2578.43s CPU   2597.96s WALL ( 1457326 calls)
     interpolate  :      2.95s CPU      2.98s WALL (     255 calls)
 
     Parallel routines

     PAW routines
     PAW_pot      :    122.59s CPU    123.23s WALL (     275 calls)
 
     PWSCF        :      2h 8m CPU      2h10m WALL

 
   This run was terminated on:   3:35:11  28Mar2024            

=------------------------------------------------------------------------------=
   JOB DONE.
=------------------------------------------------------------------------------=
