
     Program PWSCF v.7.1 starts on 18Feb2024 at  7:14:41 

     This program is part of the open-source Quantum ESPRESSO suite
     for quantum simulation of materials; please cite
         "P. Giannozzi et al., J. Phys.:Condens. Matter 21 395502 (2009);
         "P. Giannozzi et al., J. Phys.:Condens. Matter 29 465901 (2017);
         "P. Giannozzi et al., J. Chem. Phys. 152 154105 (2020);
          URL http://www.quantum-espresso.org", 
     in publications or presentations arising from this work. More details at
     http://www.quantum-espresso.org/quote

     Parallel version (MPI & OpenMP), running on     256 processor cores
     Number of MPI processes:               256
     Threads/MPI process:                     1

     MPI processes distributed on     2 nodes
     1941049 MiB available memory on the printing compute node when the environment starts
 
     Reading input from espresso.pwi
Warning: card &CELL ignored
Warning: card    CELL_DYNAMICS    = 'BFGS' ignored
Warning: card / ignored

     Current dimensions of program PWSCF are:
     Max number of different atomic species (ntypx) = 10
     Max number of k-points (npk) =  40000
     Max angular momentum in pseudopotentials (lmaxx) =  4
     file Ga.pbe-dn-kjpaw_psl.1.0.0.UPF: wavefunction(s)  4S renormalized
     file N.pbe-n-kjpaw_psl.1.0.0.UPF: wavefunction(s)  2S renormalized

     **************************************************************************
     Initializing libbeef V0.1.2 with the BEEF-vdW functional.
     Citation: Wellendorff et al., PRB 85, 235149 (2012).
     **************************************************************************


     IMPORTANT: XC functional enforced from input :
     Exchange-correlation= BEEF-VDW
                           (   1   4  43  14   2   0   0)
     Any further DFT definition will be discarded
     Please, verify this is what you really want

 
     K-points division:     npool     =       4
     R & G space division:  proc/nbgrp/npool/nimage =      64
     Subspace diagonalization in iterative solution of the eigenvalue problem:
     a serial algorithm will be used

 
     Parallelization info
     --------------------
     sticks:   dense  smooth     PW     G-vecs:    dense   smooth      PW
     Min         226     181     47                26979    19303    2571
     Max         228     182     48                26983    19308    2576
     Sum       14527   11629   3037              1726709  1235535  164709
 
     Using Slab Decomposition
 


     bravais-lattice index     =            4
     lattice parameter (alat)  =      24.5252  a.u.
     unit-cell volume          =   15616.6055 (a.u.)^3
     number of atoms/cell      =          192
     number of atomic types    =            2
     number of electrons       =      1736.00
     number of Kohn-Sham states=         1042
     kinetic-energy cutoff     =      70.0000  Ry
     charge density cutoff     =     350.0000  Ry
     scf convergence threshold =      1.0E-07
     mixing beta               =       0.7000
     number of iterations used =            8  plain     mixing
     Exchange-correlation= BEEF-VDW
                           (   1   4  43  14   2   0   0)

     celldm(1)=  24.525232  celldm(2)=   0.000000  celldm(3)=   1.222409
     celldm(4)=   0.000000  celldm(5)=   0.000000  celldm(6)=   0.000000

     crystal axes: (cart. coord. in units of alat)
               a(1) = (   1.000000   0.000000   0.000000 )  
               a(2) = (  -0.500000   0.866025   0.000000 )  
               a(3) = (   0.000000   0.000000   1.222409 )  

     reciprocal axes: (cart. coord. in units 2 pi/alat)
               b(1) = (  1.000000  0.577350 -0.000000 )  
               b(2) = (  0.000000  1.154701  0.000000 )  
               b(3) = (  0.000000 -0.000000  0.818057 )  


     PseudoPot. # 1 for Ga read from file:
     /trace/group/acmegroup/atimmins/packages/espresso/pseudo/psl_1.0.0/pslibrary.1.0.0/pbe/PSEUDOPOTENTIALS/Ga.pbe-dn-kjpaw_psl.1.0.0.UPF
     MD5 check sum: cd2a01e492f15b435d17032472d8505c
     Pseudo is Projector augmented-wave + core cor, Zval = 13.0
     Generated using 'atomic' code by A. Dal Corso  v.7.1
     Shape of augmentation charge: PSQ
     Using radial grid of 1205 points,  6 beta functions with: 
                l(1) =   0
                l(2) =   0
                l(3) =   1
                l(4) =   1
                l(5) =   2
                l(6) =   2
     Q(r) pseudized with 0 coefficients 


     PseudoPot. # 2 for N  read from file:
     /trace/group/acmegroup/atimmins/packages/espresso/pseudo/psl_1.0.0/pslibrary.1.0.0/pbe/PSEUDOPOTENTIALS/N.pbe-n-kjpaw_psl.1.0.0.UPF
     MD5 check sum: f77f775694dac7e2c3fe1c82443d1a16
     Pseudo is Projector augmented-wave + core cor, Zval =  5.0
     Generated using 'atomic' code by A. Dal Corso  v.7.1
     Shape of augmentation charge: PSQ
     Using radial grid of 1085 points,  4 beta functions with: 
                l(1) =   0
                l(2) =   0
                l(3) =   1
                l(4) =   1
     Q(r) pseudized with 0 coefficients 


     atomic species   valence    mass     pseudopotential
        Ga            13.00    69.72300     Ga( 1.00)
        N              5.00    14.00700     N ( 1.00)

      6 Sym. Ops. (no inversion) found ( 4 have fractional translation)


                                    s                        frac. trans.

      isym =  1     identity                                     

 cryst.   s( 1) = (     1          0          0      )
                  (     0          1          0      )
                  (     0          0          1      )

 cart.    s( 1) = (  1.0000000  0.0000000  0.0000000 )
                  (  0.0000000  1.0000000  0.0000000 )
                  (  0.0000000  0.0000000  1.0000000 )


      isym =  2     120 deg rotation - cryst. axis [0,0,1]       

 cryst.   s( 2) = (     0          1          0      )    f =( -0.2500000 )
                  (    -1         -1          0      )       (  0.0000002 )
                  (     0          0          1      )       (  0.0000000 )

 cart.    s( 2) = ( -0.5000000 -0.8660254  0.0000000 )    f =( -0.2500001 )
                  (  0.8660254 -0.5000000  0.0000000 )       (  0.0000002 )
                  (  0.0000000  0.0000000  1.0000000 )       (  0.0000000 )


      isym =  3     120 deg rotation - cryst. axis [0,0,-1]      

 cryst.   s( 3) = (    -1         -1          0      )    f =( -0.2500002 )
                  (     1          0          0      )       ( -0.2500000 )
                  (     0          0          1      )       (  0.0000000 )

 cart.    s( 3) = ( -0.5000000  0.8660254  0.0000000 )    f =( -0.1250002 )
                  ( -0.8660254 -0.5000000  0.0000000 )       ( -0.2165064 )
                  (  0.0000000  0.0000000  1.0000000 )       (  0.0000000 )


      isym =  4     inv. 180 deg rotation - cart. axis [1,0,0]   

 cryst.   s( 4) = (    -1          0          0      )    f =( -0.2500002 )
                  (     1          1          0      )       (  0.0000000 )
                  (     0          0          1      )       (  0.0000000 )

 cart.    s( 4) = ( -1.0000000  0.0000000  0.0000000 )    f =( -0.2500002 )
                  (  0.0000000  1.0000000  0.0000000 )       (  0.0000000 )
                  (  0.0000000  0.0000000  1.0000000 )       (  0.0000000 )


      isym =  5     inv. 180 deg rotation - cryst. axis [0,1,0]  

 cryst.   s( 5) = (     1          1          0      )
                  (     0         -1          0      )
                  (     0          0          1      )

 cart.    s( 5) = (  0.5000000  0.8660254  0.0000000 )
                  (  0.8660254 -0.5000000  0.0000000 )
                  (  0.0000000  0.0000000  1.0000000 )


      isym =  6     inv. 180 deg rotation - cryst. axis [1,1,0]  

 cryst.   s( 6) = (     0         -1          0      )    f =( -0.2500000 )
                  (    -1          0          0      )       ( -0.2500000 )
                  (     0          0          1      )       (  0.0000000 )

 cart.    s( 6) = (  0.5000000 -0.8660254  0.0000000 )    f =( -0.1250000 )
                  ( -0.8660254 -0.5000000  0.0000000 )       ( -0.2165064 )
                  (  0.0000000  0.0000000  1.0000000 )       (  0.0000000 )


     point group C_3v (3m)  
     there are  3 classes
     the character table:

       E     2C3   3s_v 
A_1    1.00  1.00  1.00
A_2    1.00  1.00 -1.00
E      2.00 -1.00  0.00

     the symmetry operations in each class and the name of the first element:

     E        1
          identity                                               
     2C3      2    3
          120 deg rotation - cryst. axis [0,0,1]                 
     3s_v     4    5    6
          inv. 180 deg rotation - cart. axis [1,0,0]             

   Cartesian axes

     site n.     atom                  positions (alat units)
         1           Ga  tau(   1) = (   0.1250001   0.0721687   0.2033935  )
         2           Ga  tau(   2) = (   0.1250001   0.0721687   0.6108633  )
         3           Ga  tau(   3) = (   0.1250001   0.0721687   1.0183331  )
         4           Ga  tau(   4) = (   0.0000001   0.2886751   0.2033935  )
         5           Ga  tau(   5) = (   0.0000001   0.2886751   0.6108633  )
         6           Ga  tau(   6) = (   0.0000001   0.2886751   1.0183331  )
         7           Ga  tau(   7) = (  -0.1249999   0.5051814   0.2033935  )
         8           Ga  tau(   8) = (  -0.1249999   0.5051814   0.6108633  )
         9           Ga  tau(   9) = (  -0.1249999   0.5051814   1.0183331  )
        10           Ga  tau(  10) = (  -0.2499999   0.7216878   0.2033935  )
        11           Ga  tau(  11) = (  -0.2499999   0.7216878   0.6108633  )
        12           Ga  tau(  12) = (  -0.2499999   0.7216878   1.0183331  )
        13           Ga  tau(  13) = (   0.3750001   0.0721687   0.2033935  )
        14           Ga  tau(  14) = (   0.3750001   0.0721687   0.6108633  )
        15           Ga  tau(  15) = (   0.3750001   0.0721687   1.0183331  )
        16           Ga  tau(  16) = (   0.2500001   0.2886751   0.2033935  )
        17           Ga  tau(  17) = (   0.2500001   0.2886751   0.6108633  )
        18           Ga  tau(  18) = (   0.2500001   0.2886751   1.0183331  )
        19           Ga  tau(  19) = (   0.1250001   0.5051814   0.2033935  )
        20           Ga  tau(  20) = (   0.1250001   0.5051814   0.6108633  )
        21           Ga  tau(  21) = (   0.1250001   0.5051814   1.0183331  )
        22           Ga  tau(  22) = (   0.0000001   0.7216878   0.2033935  )
        23           Ga  tau(  23) = (   0.0000001   0.7216878   0.6108633  )
        24           Ga  tau(  24) = (   0.0000001   0.7216878   1.0183331  )
        25           Ga  tau(  25) = (   0.6250001   0.0721687   0.2033935  )
        26           Ga  tau(  26) = (   0.6250001   0.0721687   0.6108633  )
        27           Ga  tau(  27) = (   0.6250001   0.0721687   1.0183331  )
        28           Ga  tau(  28) = (   0.5000001   0.2886751   0.2033935  )
        29           Ga  tau(  29) = (   0.5000001   0.2886751   0.6108633  )
        30           Ga  tau(  30) = (   0.5000001   0.2886751   1.0183331  )
        31           Ga  tau(  31) = (   0.3750001   0.5051814   0.2033935  )
        32           Ga  tau(  32) = (   0.3750001   0.5051814   0.6108633  )
        33           Ga  tau(  33) = (   0.3750001   0.5051814   1.0183331  )
        34           Ga  tau(  34) = (   0.2500001   0.7216878   0.2033935  )
        35           Ga  tau(  35) = (   0.2500001   0.7216878   0.6108633  )
        36           Ga  tau(  36) = (   0.2500001   0.7216878   1.0183331  )
        37           Ga  tau(  37) = (   0.8750001   0.0721687   0.2033935  )
        38           Ga  tau(  38) = (   0.8750001   0.0721687   0.6108633  )
        39           Ga  tau(  39) = (   0.8750001   0.0721687   1.0183331  )
        40           Ga  tau(  40) = (   0.7500001   0.2886751   0.2033935  )
        41           Ga  tau(  41) = (   0.7500001   0.2886751   0.6108633  )
        42           Ga  tau(  42) = (   0.7500001   0.2886751   1.0183331  )
        43           Ga  tau(  43) = (   0.6250001   0.5051814   0.2033935  )
        44           Ga  tau(  44) = (   0.6250001   0.5051814   0.6108633  )
        45           Ga  tau(  45) = (   0.6250001   0.5051814   1.0183331  )
        46           Ga  tau(  46) = (   0.5000001   0.7216878   0.2033935  )
        47           Ga  tau(  47) = (   0.5000001   0.7216878   0.6108633  )
        48           Ga  tau(  48) = (   0.5000001   0.7216878   1.0183331  )
        49           Ga  tau(  49) = (  -0.0000002   0.1443377   0.4071284  )
        50           Ga  tau(  50) = (  -0.0000002   0.1443377   0.8145982  )
        51           Ga  tau(  51) = (  -0.0000002   0.1443377   1.2220680  )
        52           Ga  tau(  52) = (  -0.1250002   0.3608440   0.4071284  )
        53           Ga  tau(  53) = (  -0.1250002   0.3608440   0.8145982  )
        54           Ga  tau(  54) = (  -0.1250002   0.3608440   1.2220680  )
        55           Ga  tau(  55) = (  -0.2500002   0.5773504   0.4071284  )
        56           Ga  tau(  56) = (  -0.2500002   0.5773504   0.8145982  )
        57           Ga  tau(  57) = (  -0.2500002   0.5773504   1.2220680  )
        58           Ga  tau(  58) = (  -0.3750001   0.7938567   0.4071284  )
        59           Ga  tau(  59) = (  -0.3750001   0.7938567   0.8145982  )
        60           Ga  tau(  60) = (  -0.3750001   0.7938567   1.2220680  )
        61           Ga  tau(  61) = (   0.2499998   0.1443377   0.4071284  )
        62           Ga  tau(  62) = (   0.2499998   0.1443377   0.8145982  )
        63           Ga  tau(  63) = (   0.2499998   0.1443377   1.2220680  )
        64           Ga  tau(  64) = (   0.1249998   0.3608440   0.4071284  )
        65           Ga  tau(  65) = (   0.1249998   0.3608440   0.8145982  )
        66           Ga  tau(  66) = (   0.1249998   0.3608440   1.2220680  )
        67           Ga  tau(  67) = (  -0.0000002   0.5773504   0.4071284  )
        68           Ga  tau(  68) = (  -0.0000002   0.5773504   0.8145982  )
        69           Ga  tau(  69) = (  -0.0000002   0.5773504   1.2220680  )
        70           Ga  tau(  70) = (  -0.1250002   0.7938567   0.4071284  )
        71           Ga  tau(  71) = (  -0.1250002   0.7938567   0.8145982  )
        72           Ga  tau(  72) = (  -0.1250002   0.7938567   1.2220680  )
        73           Ga  tau(  73) = (   0.4999998   0.1443377   0.4071284  )
        74           Ga  tau(  74) = (   0.4999998   0.1443377   0.8145982  )
        75           Ga  tau(  75) = (   0.4999998   0.1443377   1.2220680  )
        76           Ga  tau(  76) = (   0.3749998   0.3608440   0.4071284  )
        77           Ga  tau(  77) = (   0.3749998   0.3608440   0.8145982  )
        78           Ga  tau(  78) = (   0.3749998   0.3608440   1.2220680  )
        79           Ga  tau(  79) = (   0.2499998   0.5773504   0.4071284  )
        80           Ga  tau(  80) = (   0.2499998   0.5773504   0.8145982  )
        81           Ga  tau(  81) = (   0.2499998   0.5773504   1.2220680  )
        82           Ga  tau(  82) = (   0.1249998   0.7938567   0.4071284  )
        83           Ga  tau(  83) = (   0.1249998   0.7938567   0.8145982  )
        84           Ga  tau(  84) = (   0.1249998   0.7938567   1.2220680  )
        85           Ga  tau(  85) = (   0.7499998   0.1443377   0.4071284  )
        86           Ga  tau(  86) = (   0.7499998   0.1443377   0.8145982  )
        87           Ga  tau(  87) = (   0.7499998   0.1443377   1.2220680  )
        88           Ga  tau(  88) = (   0.6249998   0.3608440   0.4071284  )
        89           Ga  tau(  89) = (   0.6249998   0.3608440   0.8145982  )
        90           Ga  tau(  90) = (   0.6249998   0.3608440   1.2220680  )
        91           Ga  tau(  91) = (   0.4999998   0.5773504   0.4071284  )
        92           Ga  tau(  92) = (   0.4999998   0.5773504   0.8145982  )
        93           Ga  tau(  93) = (   0.4999998   0.5773504   1.2220680  )
        94           Ga  tau(  94) = (   0.3749998   0.7938567   0.4071284  )
        95           Ga  tau(  95) = (   0.3749998   0.7938567   0.8145982  )
        96           Ga  tau(  96) = (   0.3749998   0.7938567   1.2220680  )
        97           N   tau(  97) = (   0.1250001   0.0721687   0.7643472  )
        98           N   tau(  98) = (   0.1250001   0.0721687   1.1718169  )
        99           N   tau(  99) = (   0.0000001   0.2886751   0.3568774  )
       100           N   tau( 100) = (   0.0000001   0.2886751   0.7643472  )
       101           N   tau( 101) = (   0.0000001   0.2886751   1.1718169  )
       102           N   tau( 102) = (  -0.1249999   0.5051814   0.3568774  )
       103           N   tau( 103) = (  -0.1249999   0.5051814   0.7643472  )
       104           N   tau( 104) = (  -0.1249999   0.5051814   1.1718169  )
       105           N   tau( 105) = (  -0.2499999   0.7216878   0.3568774  )
       106           N   tau( 106) = (  -0.2499999   0.7216878   0.7643472  )
       107           N   tau( 107) = (  -0.2499999   0.7216878   1.1718169  )
       108           N   tau( 108) = (   0.3750001   0.0721687   0.3568774  )
       109           N   tau( 109) = (   0.3750001   0.0721687   0.7643472  )
       110           N   tau( 110) = (   0.3750001   0.0721687   1.1718169  )
       111           N   tau( 111) = (   0.2500001   0.2886751   0.3568774  )
       112           N   tau( 112) = (   0.2500001   0.2886751   0.7643472  )
       113           N   tau( 113) = (   0.2500001   0.2886751   1.1718169  )
       114           N   tau( 114) = (   0.1250001   0.5051814   0.3568774  )
       115           N   tau( 115) = (   0.1250001   0.5051814   0.7643472  )
       116           N   tau( 116) = (   0.1250001   0.5051814   1.1718169  )
       117           N   tau( 117) = (   0.0000001   0.7216878   0.3568774  )
       118           N   tau( 118) = (   0.0000001   0.7216878   0.7643472  )
       119           N   tau( 119) = (   0.0000001   0.7216878   1.1718169  )
       120           N   tau( 120) = (   0.6250001   0.0721687   0.3568774  )
       121           N   tau( 121) = (   0.6250001   0.0721687   0.7643472  )
       122           N   tau( 122) = (   0.6250001   0.0721687   1.1718169  )
       123           N   tau( 123) = (   0.5000001   0.2886751   0.3568774  )
       124           N   tau( 124) = (   0.5000001   0.2886751   0.7643472  )
       125           N   tau( 125) = (   0.5000001   0.2886751   1.1718169  )
       126           N   tau( 126) = (   0.3750001   0.5051814   0.3568774  )
       127           N   tau( 127) = (   0.3750001   0.5051814   0.7643472  )
       128           N   tau( 128) = (   0.3750001   0.5051814   1.1718169  )
       129           N   tau( 129) = (   0.2500001   0.7216878   0.3568774  )
       130           N   tau( 130) = (   0.2500001   0.7216878   0.7643472  )
       131           N   tau( 131) = (   0.2500001   0.7216878   1.1718169  )
       132           N   tau( 132) = (   0.8750001   0.0721687   0.3568774  )
       133           N   tau( 133) = (   0.8750001   0.0721687   0.7643472  )
       134           N   tau( 134) = (   0.8750001   0.0721687   1.1718169  )
       135           N   tau( 135) = (   0.7500001   0.2886751   0.3568774  )
       136           N   tau( 136) = (   0.7500001   0.2886751   0.7643472  )
       137           N   tau( 137) = (   0.7500001   0.2886751   1.1718169  )
       138           N   tau( 138) = (   0.6250001   0.5051814   0.3568774  )
       139           N   tau( 139) = (   0.6250001   0.5051814   0.7643472  )
       140           N   tau( 140) = (   0.6250001   0.5051814   1.1718169  )
       141           N   tau( 141) = (   0.5000001   0.7216878   0.3568774  )
       142           N   tau( 142) = (   0.5000001   0.7216878   0.7643472  )
       143           N   tau( 143) = (   0.5000001   0.7216878   1.1718169  )
       144           N   tau( 144) = (  -0.0000002   0.1443377   0.1531425  )
       145           N   tau( 145) = (  -0.0000002   0.1443377   0.5606123  )
       146           N   tau( 146) = (  -0.0000002   0.1443377   0.9680820  )
       147           N   tau( 147) = (  -0.1250002   0.3608440   0.1531425  )
       148           N   tau( 148) = (  -0.1250002   0.3608440   0.5606123  )
       149           N   tau( 149) = (  -0.1250002   0.3608440   0.9680820  )
       150           N   tau( 150) = (  -0.2500002   0.5773504   0.1531425  )
       151           N   tau( 151) = (  -0.2500002   0.5773504   0.5606123  )
       152           N   tau( 152) = (  -0.2500002   0.5773504   0.9680820  )
       153           N   tau( 153) = (  -0.3750001   0.7938567   0.1531425  )
       154           N   tau( 154) = (  -0.3750001   0.7938567   0.5606123  )
       155           N   tau( 155) = (  -0.3750001   0.7938567   0.9680820  )
       156           N   tau( 156) = (   0.2499998   0.1443377   0.1531425  )
       157           N   tau( 157) = (   0.2499998   0.1443377   0.5606123  )
       158           N   tau( 158) = (   0.2499998   0.1443377   0.9680820  )
       159           N   tau( 159) = (   0.1249998   0.3608440   0.1531425  )
       160           N   tau( 160) = (   0.1249998   0.3608440   0.5606123  )
       161           N   tau( 161) = (   0.1249998   0.3608440   0.9680820  )
       162           N   tau( 162) = (  -0.0000002   0.5773504   0.1531425  )
       163           N   tau( 163) = (  -0.0000002   0.5773504   0.5606123  )
       164           N   tau( 164) = (  -0.0000002   0.5773504   0.9680820  )
       165           N   tau( 165) = (  -0.1250002   0.7938567   0.1531425  )
       166           N   tau( 166) = (  -0.1250002   0.7938567   0.5606123  )
       167           N   tau( 167) = (  -0.1250002   0.7938567   0.9680820  )
       168           N   tau( 168) = (   0.4999998   0.1443377   0.1531425  )
       169           N   tau( 169) = (   0.4999998   0.1443377   0.5606123  )
       170           N   tau( 170) = (   0.4999998   0.1443377   0.9680820  )
       171           N   tau( 171) = (   0.3749998   0.3608440   0.1531425  )
       172           N   tau( 172) = (   0.3749998   0.3608440   0.5606123  )
       173           N   tau( 173) = (   0.3749998   0.3608440   0.9680820  )
       174           N   tau( 174) = (   0.2499998   0.5773504   0.1531425  )
       175           N   tau( 175) = (   0.2499998   0.5773504   0.5606123  )
       176           N   tau( 176) = (   0.2499998   0.5773504   0.9680820  )
       177           N   tau( 177) = (   0.1249998   0.7938567   0.1531425  )
       178           N   tau( 178) = (   0.1249998   0.7938567   0.5606123  )
       179           N   tau( 179) = (   0.1249998   0.7938567   0.9680820  )
       180           N   tau( 180) = (   0.7499998   0.1443377   0.1531425  )
       181           N   tau( 181) = (   0.7499998   0.1443377   0.5606123  )
       182           N   tau( 182) = (   0.7499998   0.1443377   0.9680820  )
       183           N   tau( 183) = (   0.6249998   0.3608440   0.1531425  )
       184           N   tau( 184) = (   0.6249998   0.3608440   0.5606123  )
       185           N   tau( 185) = (   0.6249998   0.3608440   0.9680820  )
       186           N   tau( 186) = (   0.4999998   0.5773504   0.1531425  )
       187           N   tau( 187) = (   0.4999998   0.5773504   0.5606123  )
       188           N   tau( 188) = (   0.4999998   0.5773504   0.9680820  )
       189           N   tau( 189) = (   0.3749998   0.7938567   0.1531425  )
       190           N   tau( 190) = (   0.3749998   0.7938567   0.5606123  )
       191           N   tau( 191) = (   0.3749998   0.7938567   0.9680820  )
       192           Ga  tau( 192) = (   0.1250001   0.0721687   0.3568774  )

   Crystallographic axes

     site n.     atom                  positions (cryst. coord.)
         1           Ga  tau(   1) = (  0.1666667  0.0833333  0.1663874  )
         2           Ga  tau(   2) = (  0.1666667  0.0833333  0.4997208  )
         3           Ga  tau(   3) = (  0.1666667  0.0833333  0.8330541  )
         4           Ga  tau(   4) = (  0.1666667  0.3333333  0.1663874  )
         5           Ga  tau(   5) = (  0.1666667  0.3333333  0.4997208  )
         6           Ga  tau(   6) = (  0.1666667  0.3333333  0.8330541  )
         7           Ga  tau(   7) = (  0.1666667  0.5833333  0.1663874  )
         8           Ga  tau(   8) = (  0.1666667  0.5833333  0.4997208  )
         9           Ga  tau(   9) = (  0.1666667  0.5833333  0.8330541  )
        10           Ga  tau(  10) = (  0.1666667  0.8333333  0.1663874  )
        11           Ga  tau(  11) = (  0.1666667  0.8333333  0.4997208  )
        12           Ga  tau(  12) = (  0.1666667  0.8333333  0.8330541  )
        13           Ga  tau(  13) = (  0.4166667  0.0833333  0.1663874  )
        14           Ga  tau(  14) = (  0.4166667  0.0833333  0.4997208  )
        15           Ga  tau(  15) = (  0.4166667  0.0833333  0.8330541  )
        16           Ga  tau(  16) = (  0.4166667  0.3333333  0.1663874  )
        17           Ga  tau(  17) = (  0.4166667  0.3333333  0.4997208  )
        18           Ga  tau(  18) = (  0.4166667  0.3333333  0.8330541  )
        19           Ga  tau(  19) = (  0.4166667  0.5833333  0.1663874  )
        20           Ga  tau(  20) = (  0.4166667  0.5833333  0.4997208  )
        21           Ga  tau(  21) = (  0.4166667  0.5833333  0.8330541  )
        22           Ga  tau(  22) = (  0.4166667  0.8333333  0.1663874  )
        23           Ga  tau(  23) = (  0.4166667  0.8333333  0.4997208  )
        24           Ga  tau(  24) = (  0.4166667  0.8333333  0.8330541  )
        25           Ga  tau(  25) = (  0.6666667  0.0833333  0.1663874  )
        26           Ga  tau(  26) = (  0.6666667  0.0833333  0.4997208  )
        27           Ga  tau(  27) = (  0.6666667  0.0833333  0.8330541  )
        28           Ga  tau(  28) = (  0.6666667  0.3333333  0.1663874  )
        29           Ga  tau(  29) = (  0.6666667  0.3333333  0.4997208  )
        30           Ga  tau(  30) = (  0.6666667  0.3333333  0.8330541  )
        31           Ga  tau(  31) = (  0.6666667  0.5833333  0.1663874  )
        32           Ga  tau(  32) = (  0.6666667  0.5833333  0.4997208  )
        33           Ga  tau(  33) = (  0.6666667  0.5833333  0.8330541  )
        34           Ga  tau(  34) = (  0.6666667  0.8333333  0.1663874  )
        35           Ga  tau(  35) = (  0.6666667  0.8333333  0.4997208  )
        36           Ga  tau(  36) = (  0.6666667  0.8333333  0.8330541  )
        37           Ga  tau(  37) = (  0.9166667  0.0833333  0.1663874  )
        38           Ga  tau(  38) = (  0.9166667  0.0833333  0.4997208  )
        39           Ga  tau(  39) = (  0.9166667  0.0833333  0.8330541  )
        40           Ga  tau(  40) = (  0.9166667  0.3333333  0.1663874  )
        41           Ga  tau(  41) = (  0.9166667  0.3333333  0.4997208  )
        42           Ga  tau(  42) = (  0.9166667  0.3333333  0.8330541  )
        43           Ga  tau(  43) = (  0.9166667  0.5833333  0.1663874  )
        44           Ga  tau(  44) = (  0.9166667  0.5833333  0.4997208  )
        45           Ga  tau(  45) = (  0.9166667  0.5833333  0.8330541  )
        46           Ga  tau(  46) = (  0.9166667  0.8333333  0.1663874  )
        47           Ga  tau(  47) = (  0.9166667  0.8333333  0.4997208  )
        48           Ga  tau(  48) = (  0.9166667  0.8333333  0.8330541  )
        49           Ga  tau(  49) = (  0.0833333  0.1666668  0.3330541  )
        50           Ga  tau(  50) = (  0.0833333  0.1666668  0.6663874  )
        51           Ga  tau(  51) = (  0.0833333  0.1666668  0.9997208  )
        52           Ga  tau(  52) = (  0.0833333  0.4166668  0.3330541  )
        53           Ga  tau(  53) = (  0.0833333  0.4166668  0.6663874  )
        54           Ga  tau(  54) = (  0.0833333  0.4166668  0.9997208  )
        55           Ga  tau(  55) = (  0.0833333  0.6666668  0.3330541  )
        56           Ga  tau(  56) = (  0.0833333  0.6666668  0.6663874  )
        57           Ga  tau(  57) = (  0.0833333  0.6666668  0.9997208  )
        58           Ga  tau(  58) = (  0.0833333  0.9166668  0.3330541  )
        59           Ga  tau(  59) = (  0.0833333  0.9166668  0.6663874  )
        60           Ga  tau(  60) = (  0.0833333  0.9166668  0.9997208  )
        61           Ga  tau(  61) = (  0.3333332  0.1666668  0.3330541  )
        62           Ga  tau(  62) = (  0.3333332  0.1666668  0.6663874  )
        63           Ga  tau(  63) = (  0.3333332  0.1666668  0.9997208  )
        64           Ga  tau(  64) = (  0.3333332  0.4166668  0.3330541  )
        65           Ga  tau(  65) = (  0.3333332  0.4166668  0.6663874  )
        66           Ga  tau(  66) = (  0.3333332  0.4166668  0.9997208  )
        67           Ga  tau(  67) = (  0.3333332  0.6666668  0.3330541  )
        68           Ga  tau(  68) = (  0.3333332  0.6666668  0.6663874  )
        69           Ga  tau(  69) = (  0.3333332  0.6666668  0.9997208  )
        70           Ga  tau(  70) = (  0.3333332  0.9166668  0.3330541  )
        71           Ga  tau(  71) = (  0.3333332  0.9166668  0.6663874  )
        72           Ga  tau(  72) = (  0.3333332  0.9166668  0.9997208  )
        73           Ga  tau(  73) = (  0.5833332  0.1666668  0.3330541  )
        74           Ga  tau(  74) = (  0.5833332  0.1666668  0.6663874  )
        75           Ga  tau(  75) = (  0.5833332  0.1666668  0.9997208  )
        76           Ga  tau(  76) = (  0.5833332  0.4166668  0.3330541  )
        77           Ga  tau(  77) = (  0.5833332  0.4166668  0.6663874  )
        78           Ga  tau(  78) = (  0.5833332  0.4166668  0.9997208  )
        79           Ga  tau(  79) = (  0.5833332  0.6666668  0.3330541  )
        80           Ga  tau(  80) = (  0.5833332  0.6666668  0.6663874  )
        81           Ga  tau(  81) = (  0.5833332  0.6666668  0.9997208  )
        82           Ga  tau(  82) = (  0.5833332  0.9166668  0.3330541  )
        83           Ga  tau(  83) = (  0.5833332  0.9166668  0.6663874  )
        84           Ga  tau(  84) = (  0.5833332  0.9166668  0.9997208  )
        85           Ga  tau(  85) = (  0.8333332  0.1666668  0.3330541  )
        86           Ga  tau(  86) = (  0.8333332  0.1666668  0.6663874  )
        87           Ga  tau(  87) = (  0.8333332  0.1666668  0.9997208  )
        88           Ga  tau(  88) = (  0.8333332  0.4166668  0.3330541  )
        89           Ga  tau(  89) = (  0.8333332  0.4166668  0.6663874  )
        90           Ga  tau(  90) = (  0.8333332  0.4166668  0.9997208  )
        91           Ga  tau(  91) = (  0.8333332  0.6666668  0.3330541  )
        92           Ga  tau(  92) = (  0.8333332  0.6666668  0.6663874  )
        93           Ga  tau(  93) = (  0.8333332  0.6666668  0.9997208  )
        94           Ga  tau(  94) = (  0.8333332  0.9166668  0.3330541  )
        95           Ga  tau(  95) = (  0.8333332  0.9166668  0.6663874  )
        96           Ga  tau(  96) = (  0.8333332  0.9166668  0.9997208  )
        97           N   tau(  97) = (  0.1666667  0.0833333  0.6252792  )
        98           N   tau(  98) = (  0.1666667  0.0833333  0.9586126  )
        99           N   tau(  99) = (  0.1666667  0.3333333  0.2919459  )
       100           N   tau( 100) = (  0.1666667  0.3333333  0.6252792  )
       101           N   tau( 101) = (  0.1666667  0.3333333  0.9586126  )
       102           N   tau( 102) = (  0.1666667  0.5833333  0.2919459  )
       103           N   tau( 103) = (  0.1666667  0.5833333  0.6252792  )
       104           N   tau( 104) = (  0.1666667  0.5833333  0.9586126  )
       105           N   tau( 105) = (  0.1666667  0.8333333  0.2919459  )
       106           N   tau( 106) = (  0.1666667  0.8333333  0.6252792  )
       107           N   tau( 107) = (  0.1666667  0.8333333  0.9586126  )
       108           N   tau( 108) = (  0.4166667  0.0833333  0.2919459  )
       109           N   tau( 109) = (  0.4166667  0.0833333  0.6252792  )
       110           N   tau( 110) = (  0.4166667  0.0833333  0.9586126  )
       111           N   tau( 111) = (  0.4166667  0.3333333  0.2919459  )
       112           N   tau( 112) = (  0.4166667  0.3333333  0.6252792  )
       113           N   tau( 113) = (  0.4166667  0.3333333  0.9586126  )
       114           N   tau( 114) = (  0.4166667  0.5833333  0.2919459  )
       115           N   tau( 115) = (  0.4166667  0.5833333  0.6252792  )
       116           N   tau( 116) = (  0.4166667  0.5833333  0.9586126  )
       117           N   tau( 117) = (  0.4166667  0.8333333  0.2919459  )
       118           N   tau( 118) = (  0.4166667  0.8333333  0.6252792  )
       119           N   tau( 119) = (  0.4166667  0.8333333  0.9586126  )
       120           N   tau( 120) = (  0.6666667  0.0833333  0.2919459  )
       121           N   tau( 121) = (  0.6666667  0.0833333  0.6252792  )
       122           N   tau( 122) = (  0.6666667  0.0833333  0.9586126  )
       123           N   tau( 123) = (  0.6666667  0.3333333  0.2919459  )
       124           N   tau( 124) = (  0.6666667  0.3333333  0.6252792  )
       125           N   tau( 125) = (  0.6666667  0.3333333  0.9586126  )
       126           N   tau( 126) = (  0.6666667  0.5833333  0.2919459  )
       127           N   tau( 127) = (  0.6666667  0.5833333  0.6252792  )
       128           N   tau( 128) = (  0.6666667  0.5833333  0.9586126  )
       129           N   tau( 129) = (  0.6666667  0.8333333  0.2919459  )
       130           N   tau( 130) = (  0.6666667  0.8333333  0.6252792  )
       131           N   tau( 131) = (  0.6666667  0.8333333  0.9586126  )
       132           N   tau( 132) = (  0.9166667  0.0833333  0.2919459  )
       133           N   tau( 133) = (  0.9166667  0.0833333  0.6252792  )
       134           N   tau( 134) = (  0.9166667  0.0833333  0.9586126  )
       135           N   tau( 135) = (  0.9166667  0.3333333  0.2919459  )
       136           N   tau( 136) = (  0.9166667  0.3333333  0.6252792  )
       137           N   tau( 137) = (  0.9166667  0.3333333  0.9586126  )
       138           N   tau( 138) = (  0.9166667  0.5833333  0.2919459  )
       139           N   tau( 139) = (  0.9166667  0.5833333  0.6252792  )
       140           N   tau( 140) = (  0.9166667  0.5833333  0.9586126  )
       141           N   tau( 141) = (  0.9166667  0.8333333  0.2919459  )
       142           N   tau( 142) = (  0.9166667  0.8333333  0.6252792  )
       143           N   tau( 143) = (  0.9166667  0.8333333  0.9586126  )
       144           N   tau( 144) = (  0.0833333  0.1666668  0.1252792  )
       145           N   tau( 145) = (  0.0833333  0.1666668  0.4586126  )
       146           N   tau( 146) = (  0.0833333  0.1666668  0.7919459  )
       147           N   tau( 147) = (  0.0833333  0.4166668  0.1252792  )
       148           N   tau( 148) = (  0.0833333  0.4166668  0.4586126  )
       149           N   tau( 149) = (  0.0833333  0.4166668  0.7919459  )
       150           N   tau( 150) = (  0.0833333  0.6666668  0.1252792  )
       151           N   tau( 151) = (  0.0833333  0.6666668  0.4586126  )
       152           N   tau( 152) = (  0.0833333  0.6666668  0.7919459  )
       153           N   tau( 153) = (  0.0833333  0.9166668  0.1252792  )
       154           N   tau( 154) = (  0.0833333  0.9166668  0.4586126  )
       155           N   tau( 155) = (  0.0833333  0.9166668  0.7919459  )
       156           N   tau( 156) = (  0.3333332  0.1666668  0.1252792  )
       157           N   tau( 157) = (  0.3333332  0.1666668  0.4586126  )
       158           N   tau( 158) = (  0.3333332  0.1666668  0.7919459  )
       159           N   tau( 159) = (  0.3333332  0.4166668  0.1252792  )
       160           N   tau( 160) = (  0.3333332  0.4166668  0.4586126  )
       161           N   tau( 161) = (  0.3333332  0.4166668  0.7919459  )
       162           N   tau( 162) = (  0.3333332  0.6666668  0.1252792  )
       163           N   tau( 163) = (  0.3333332  0.6666668  0.4586126  )
       164           N   tau( 164) = (  0.3333332  0.6666668  0.7919459  )
       165           N   tau( 165) = (  0.3333332  0.9166668  0.1252792  )
       166           N   tau( 166) = (  0.3333332  0.9166668  0.4586126  )
       167           N   tau( 167) = (  0.3333332  0.9166668  0.7919459  )
       168           N   tau( 168) = (  0.5833332  0.1666668  0.1252792  )
       169           N   tau( 169) = (  0.5833332  0.1666668  0.4586126  )
       170           N   tau( 170) = (  0.5833332  0.1666668  0.7919459  )
       171           N   tau( 171) = (  0.5833332  0.4166668  0.1252792  )
       172           N   tau( 172) = (  0.5833332  0.4166668  0.4586126  )
       173           N   tau( 173) = (  0.5833332  0.4166668  0.7919459  )
       174           N   tau( 174) = (  0.5833332  0.6666668  0.1252792  )
       175           N   tau( 175) = (  0.5833332  0.6666668  0.4586126  )
       176           N   tau( 176) = (  0.5833332  0.6666668  0.7919459  )
       177           N   tau( 177) = (  0.5833332  0.9166668  0.1252792  )
       178           N   tau( 178) = (  0.5833332  0.9166668  0.4586126  )
       179           N   tau( 179) = (  0.5833332  0.9166668  0.7919459  )
       180           N   tau( 180) = (  0.8333332  0.1666668  0.1252792  )
       181           N   tau( 181) = (  0.8333332  0.1666668  0.4586126  )
       182           N   tau( 182) = (  0.8333332  0.1666668  0.7919459  )
       183           N   tau( 183) = (  0.8333332  0.4166668  0.1252792  )
       184           N   tau( 184) = (  0.8333332  0.4166668  0.4586126  )
       185           N   tau( 185) = (  0.8333332  0.4166668  0.7919459  )
       186           N   tau( 186) = (  0.8333332  0.6666668  0.1252792  )
       187           N   tau( 187) = (  0.8333332  0.6666668  0.4586126  )
       188           N   tau( 188) = (  0.8333332  0.6666668  0.7919459  )
       189           N   tau( 189) = (  0.8333332  0.9166668  0.1252792  )
       190           N   tau( 190) = (  0.8333332  0.9166668  0.4586126  )
       191           N   tau( 191) = (  0.8333332  0.9166668  0.7919459  )
       192           Ga  tau( 192) = (  0.1666667  0.0833333  0.2919459  )

     number of k points=     4  Gaussian smearing, width (Ry)=  0.0100
                       cart. coord. in units 2pi/alat
        k(    1) = (   0.0000000   0.0000000   0.0000000), wk =   0.2500000
        k(    2) = (   0.0000000   0.0000000  -0.4090283), wk =   0.2500000
        k(    3) = (   0.0000000  -0.5773503   0.0000000), wk =   0.7500000
        k(    4) = (   0.0000000  -0.5773503  -0.4090283), wk =   0.7500000

                       cryst. coord.
        k(    1) = (   0.0000000   0.0000000   0.0000000), wk =   0.2500000
        k(    2) = (   0.0000000   0.0000000  -0.5000000), wk =   0.2500000
        k(    3) = (   0.0000000  -0.5000000   0.0000000), wk =   0.7500000
        k(    4) = (   0.0000000  -0.5000000  -0.5000000), wk =   0.7500000

     Dense  grid:  1726709 G-vectors     FFT dimensions: ( 160, 160, 180)

     Smooth grid:  1235535 G-vectors     FFT dimensions: ( 144, 144, 160)

     Dynamical RAM for                 wfc:      38.37 MB

     Dynamical RAM for     wfc (w. buffer):      38.37 MB

     Dynamical RAM for           str. fact:       0.82 MB

     Dynamical RAM for           local pot:       0.00 MB

     Dynamical RAM for          nlocal pot:      92.27 MB

     Dynamical RAM for                qrad:       3.00 MB

     Dynamical RAM for          rho,v,vnew:       2.99 MB

     Dynamical RAM for               rhoin:       1.00 MB

     Dynamical RAM for            rho*nmix:       6.59 MB

     Dynamical RAM for           G-vectors:       1.69 MB

     Dynamical RAM for          h,s,v(r/c):     795.24 MB

     Dynamical RAM for          <psi|beta>:      39.84 MB

     Dynamical RAM for                 psi:     153.46 MB

     Dynamical RAM for                hpsi:     153.46 MB

     Dynamical RAM for                spsi:     153.46 MB

     Dynamical RAM for      wfcinit/wfcrot:     101.59 MB

     Dynamical RAM for           addusdens:      29.44 MB

     Dynamical RAM for          addusforce:      49.47 MB

     Dynamical RAM for         addusstress:      20.84 MB

     Estimated static dynamical RAM per process >     144.31 MB

     Estimated max dynamical RAM per process >       1.41 GB

     Estimated total dynamical RAM >     360.36 GB

     Atomic positions and unit cell read from directory:
     ./GaN.save/
     Atomic positions from file used, from input discarded
 

     Check: negative core charge=   -0.000003

     The initial density is read from file :
     ./GaN.save/charge-density



     %%%%%%%%%%%%%%%%%%%%%%%%%%%%%%%%%%%%%%%%%%%%%%%%%%%%%%%%%%%%%%%%%%%%%%%%
     %                                                                      %
     % You are using vdW-DF, which was implemented by the Thonhauser group. %
     % Please cite the following two papers that made this development      %
     % possible and the two reviews that describe the various versions:     %
     %                                                                      %
     %   T. Thonhauser et al., PRL 115, 136402 (2015).                      %
     %   T. Thonhauser et al., PRB 76, 125112 (2007).                       %
     %   K. Berland et al., Rep. Prog. Phys. 78, 066501 (2015).             %
     %   D.C. Langreth et al., J. Phys.: Condens. Matter 21, 084203 (2009). %
     %                                                                      %
     % If you are calculating stress with vdW-DF, please also cite:         %
     %                                                                      %
     %   R. Sabatini et al., J. Phys.: Condens. Matter 24, 424209 (2012).   %
     %                                                                      %
     %%%%%%%%%%%%%%%%%%%%%%%%%%%%%%%%%%%%%%%%%%%%%%%%%%%%%%%%%%%%%%%%%%%%%%%%

     %%%%%%%%%%%%%%%%%%%%%%%%%%%%%%%%%%%%%%%%%%%%%%%%%%%%%%%%%%%%%%%%%%%%%%%%
     %                                                                      %
     %  vdW-DF NEWS:                                                        %
     %                                                                      %
     %  * vdW-DF3 is now available. DOI: 10.1021/acs.jctc.0c00471           %
     %    use with input_dft = 'vdW-DF3-opt1' or 'vdW-DF3-opt2'             %
     %                                                                      %
     %  * Unscreened and range-separated vdW-DF hybrid functionals          %
     %    DOI: 10.1063/1.4986522 and 10.1088/1361-648X/ac2ad2               %
     %    use with input_dft = 'vdW-DF-cx0' (etc) and 'vdW-DF-ahcx'         %
     %                                                                      %
     %%%%%%%%%%%%%%%%%%%%%%%%%%%%%%%%%%%%%%%%%%%%%%%%%%%%%%%%%%%%%%%%%%%%%%%%


     Carrying out vdW-DF run using the following parameters:
     Nqs    =  20  Npoints =  1024  r_max =  100.000
     q_mesh =  0.00001000  0.04494208  0.09755937  0.15916263
               0.23128650  0.31572767  0.41458969  0.53033537
               0.66584808  0.82450364  1.01025438  1.22772762
               1.48234092  1.78043706  2.12944203  2.53805004
               3.01644009  3.57652955  4.23227104  5.00000000


     -----------------------------------------------
     Non-local corr. energy    =      52.69198893 Ry
     -----------------------------------------------

     Starting wfcs from file
     Checking if some PAW data can be deallocated... 
       PAW data deallocated on   95 nodes for type:  1
       PAW data deallocated on  161 nodes for type:  2

     total cpu time spent up to now is       12.8 secs

     Self-consistent Calculation

     iteration #  1     ecut=    70.00 Ry     beta= 0.70
     Davidson diagonalization with overlap

---- Real-time Memory Report at c_bands before calling an iterative solver
           297 MiB given to the printing process from OS
             0 MiB allocation reported by mallinfo(arena+hblkhd)
       1911610 MiB available memory on the node where the printing process lives
------------------
     ethr =  1.00E-05,  avg # of iterations =  1.0

     Threshold (ethr) on eigenvalues was too large:
     Diagonalizing with lowered threshold

     Davidson diagonalization with overlap

---- Real-time Memory Report at c_bands before calling an iterative solver
          1052 MiB given to the printing process from OS
             0 MiB allocation reported by mallinfo(arena+hblkhd)
       1903507 MiB available memory on the node where the printing process lives
------------------
     ethr =  1.79E-13,  avg # of iterations = 42.3


     -----------------------------------------------
     Non-local corr. energy    =      52.69203864 Ry
     -----------------------------------------------


     total cpu time spent up to now is      989.9 secs

     End of self-consistent calculation

          k = 0.0000 0.0000 0.0000 (154543 PWs)   bands (ev):

    -6.8217  -6.6217  -6.5997  -6.5226  -6.5226  -6.5086  -6.5086  -6.4966
    -6.4882  -6.4191  -6.4191  -6.4171  -6.4170  -6.4089  -6.3874  -6.3873
    -6.3858  -6.3854  -6.3818  -6.3818  -6.3771  -6.3763  -6.3689  -6.3632
    -6.3632  -6.3486  -6.3375  -6.3374  -6.3332  -6.3306  -6.3306  -6.3285
    -6.3266  -6.3225  -6.3225  -6.3182  -6.3182  -6.3121  -6.3076  -6.3076
    -6.3063  -6.3063  -6.3035  -6.3015  -6.3015  -6.2970  -6.2970  -6.2952
    -6.2948  -6.2934  -6.2934  -6.2930  -6.2893  -6.2875  -6.2872  -6.2872
    -6.2835  -6.2834  -6.2833  -6.2817  -6.2804  -6.2794  -6.2794  -6.2776
    -6.2770  -6.2770  -6.2753  -6.2753  -6.2703  -6.2682  -6.2682  -6.2648
    -6.2648  -6.2569  -6.2547  -6.2547  -6.2542  -6.2536  -6.2533  -6.2533
    -6.2508  -6.2508  -6.2503  -6.2405  -6.2405  -6.2396  -6.2363  -6.2363
    -6.2295  -6.2276  -6.2276  -6.2242  -6.1673  -6.1673  -6.1614  -5.3156
    -5.3155  -5.2488  -5.2374  -5.2374  -5.2232  -5.2232  -5.2164  -5.2008
    -5.1946  -5.1946  -5.1912  -5.1912  -5.1909  -5.1882  -5.1861  -5.1861
    -5.1843  -5.1814  -5.1814  -5.1786  -5.1782  -5.1782  -5.1761  -5.1761
    -5.1753  -5.1715  -5.1715  -5.1710  -5.1710  -5.1707  -5.1650  -5.1650
    -5.1642  -5.1638  -5.1626  -5.1626  -5.1618  -5.1618  -5.1566  -5.1566
    -5.1552  -5.1535  -5.1528  -5.1528  -5.1517  -5.1517  -5.1495  -5.1495
    -5.1481  -5.1440  -5.1440  -5.1437  -5.1423  -5.1401  -5.1401  -5.1399
    -5.1383  -5.1383  -5.1364  -5.1364  -5.1359  -5.1359  -5.1350  -5.1350
    -5.1336  -5.1328  -5.1328  -5.1309  -5.1302  -5.1302  -5.1289  -5.1283
    -5.1278  -5.1278  -5.1274  -5.1274  -5.1259  -5.1259  -5.1227  -5.1227
    -5.1217  -5.1217  -5.1215  -5.1208  -5.1208  -5.1203  -5.1198  -5.1195
    -5.1177  -5.1175  -5.1169  -5.1169  -5.1161  -5.1161  -5.1159  -5.1159
    -5.1151  -5.1150  -5.1147  -5.1147  -5.1119  -5.1119  -5.1113  -5.1083
    -5.1083  -5.1079  -5.1057  -5.1057  -5.1035  -5.1035  -5.1007  -5.1004
    -5.0980  -5.0980  -5.0957  -5.0955  -5.0955  -5.0942  -5.0935  -5.0935
    -5.0897  -5.0891  -5.0891  -5.0874  -5.0874  -5.0873  -5.0839  -5.0838
    -5.0832  -5.0832  -5.0824  -5.0824  -5.0814  -5.0805  -5.0805  -5.0800
    -5.0800  -5.0791  -5.0780  -5.0780  -5.0777  -5.0771  -5.0763  -5.0763
    -5.0760  -5.0734  -5.0734  -5.0695  -5.0695  -5.0687  -5.0645  -5.0635
    -5.0635  -5.0634  -5.0613  -5.0613  -5.0590  -5.0585  -5.0563  -5.0563
    -5.0548  -5.0542  -5.0542  -5.0510  -5.0510  -5.0505  -5.0504  -5.0473
    -5.0473  -5.0453  -5.0453  -5.0453  -5.0453  -5.0437  -5.0437  -5.0413
    -5.0413  -5.0413  -5.0372  -5.0372  -5.0366  -5.0360  -5.0360  -5.0357
    -5.0343  -5.0338  -5.0331  -5.0331  -5.0327  -5.0322  -5.0322  -5.0303
    -5.0292  -5.0292  -5.0280  -5.0277  -5.0277  -5.0261  -5.0240  -5.0240
    -5.0224  -5.0224  -5.0207  -5.0196  -5.0195  -5.0195  -5.0189  -5.0189
    -5.0160  -5.0159  -5.0156  -5.0156  -5.0156  -5.0135  -5.0135  -5.0127
    -5.0121  -5.0121  -5.0112  -5.0112  -5.0110  -5.0105  -5.0105  -5.0097
    -5.0089  -5.0089  -5.0087  -5.0083  -5.0068  -5.0068  -5.0057  -5.0045
    -5.0031  -5.0020  -5.0020  -5.0014  -5.0014  -4.9996  -4.9996  -4.9996
    -4.9986  -4.9986  -4.9978  -4.9965  -4.9965  -4.9950  -4.9942  -4.9942
    -4.9938  -4.9935  -4.9935  -4.9913  -4.9913  -4.9909  -4.9905  -4.9897
    -4.9897  -4.9892  -4.9890  -4.9890  -4.9874  -4.9868  -4.9867  -4.9867
    -4.9863  -4.9863  -4.9846  -4.9846  -4.9828  -4.9828  -4.9816  -4.9816
    -4.9810  -4.9782  -4.9782  -4.9776  -4.9774  -4.9774  -4.9762  -4.9755
    -4.9753  -4.9753  -4.9750  -4.9732  -4.9732  -4.9719  -4.9697  -4.9697
    -4.9677  -4.9664  -4.9664  -4.9651  -4.9648  -4.9647  -4.9647  -4.9625
    -4.9625  -4.9606  -4.9606  -4.9603  -4.9592  -4.9590  -4.9590  -4.9579
    -4.9569  -4.9569  -4.9555  -4.9555  -4.9550  -4.9545  -4.9545  -4.9533
    -4.9517  -4.9517  -4.9474  -4.9473  -4.9473  -4.9457  -4.9451  -4.9451
    -4.9439  -4.9431  -4.9431  -4.9426  -4.9418  -4.9418  -4.9403  -4.9403
    -4.9402  -4.9376  -4.9376  -4.9365  -4.9357  -4.9357  -4.9339  -4.9336
    -4.9318  -4.9318  -4.9272  -4.9272  -4.9256  -4.9256  -4.9254  -4.9247
    -4.9247  -4.9247  -4.9235  -4.9224  -4.9224  -4.9195  -4.9176  -4.9175
    -4.9175  -4.9175  -4.9159  -4.9159  -4.9144  -4.9144  -4.9140  -4.9133
    -4.9133  -4.9110  -4.9092  -4.9082  -4.9082  -4.9068  -4.9068  -4.9050
    -4.9035  -4.9035  -4.8985  -4.8935  -4.8935  -4.8920  -4.8893  -4.8893
    -4.8860  -4.8718  -4.8667  -4.8667  -4.8529  -4.8529  -4.8276  -4.7984
    -4.7984  -4.7737  -4.7737  -4.7732  -4.7087  -4.6922  -4.6922  -4.6327
    -4.6326  -4.5598  -4.5598  -4.5251  -4.5242  -4.5241  -4.5152  -4.5151
    -4.5151  -4.5032  -4.4843  -4.4843  -4.4193  -4.4193  -4.3726  -4.2897
    -4.2897  -4.2520  -4.1946  -4.1509  -3.7326  -3.7326  -3.7236  -3.7123
    -3.7123  -3.7122  -3.7083  -3.7083  -3.7069  -3.7069  -3.7048  -3.6938
    -3.6869  -3.6868  -3.6786  -3.6785  -3.6245  -3.6110  -3.5490  -3.5414
    -3.5414  -3.5363  -3.5199  -3.5199  -3.5076  -3.5076  -3.5027  -3.5027
    -3.5021  -3.4836  -3.4757  -3.4757  -3.4485  -3.4287  -3.4186  -3.4186
    -3.4062  -3.3932  -3.3932  -3.2329  -3.1285  -3.1285  -3.1144  -3.1020
    -3.1020  -3.0936  -3.0699  -3.0699  -3.0627  -3.0627  -3.0609  -3.0521
    -3.0459  -3.0459  -3.0436  -3.0380  -3.0380  -3.0351  -3.0351  -3.0324
    -2.9961  -2.9961  -2.9942  -2.9477  -2.9250  -2.9250  -2.7762  -2.7533
    -2.7533  -2.7528  -2.7342  -2.7342   1.8343   2.1352   2.3225   2.3568
     2.3569   2.3689   2.3881   2.3882   2.6149   2.6280   2.6281   2.8060
     2.8060   2.8315   2.8315   2.8382   2.8560   2.8954   2.8955   2.9022
     2.9057   2.9238   2.9276   2.9277   2.9324   2.9324   2.9387   2.9387
     2.9627   2.9665   2.9665   2.9900   3.0629   3.0629   3.0960   3.2176
     3.2347   3.2348   3.2843   3.2843   3.3083   3.3647   3.3648   3.3883
     3.3940   3.3940   3.4171   3.4342   3.4342   3.4427   3.4650   3.4651
     3.4891   3.6278   3.6426   3.6426   3.6483   3.6630   3.6661   3.6661
     3.6738   3.6779   3.6816   3.6816   3.6911   3.6912   3.7208   3.7209
     3.8294   3.8583   3.8847   3.8848   3.9099   3.9526   3.9527   4.3521
     4.8469   4.8469   4.8899   4.9333   4.9333   4.9609   4.9734   4.9734
     4.9796   4.9827   4.9827   4.9831   4.9884   4.9884   4.9944   5.0257
     5.0263   5.0264   5.0294   5.0327   5.0327   5.0434   5.0530   5.0531
     5.0595   5.0663   5.0664   5.0692   5.0692   5.1279   5.1279   5.2001
     5.2075   5.2216   5.2216   5.2258   5.2442   5.2537   5.2538   5.2818
     5.2818   5.3130   5.4292   5.4292   5.5915   5.9407   5.9407   5.9547
     5.9742   5.9742   5.9912   5.9913   6.0010   6.0133   6.0134   6.0204
     6.0227   6.0228   6.0362   6.0373   6.0373   6.0656   6.1435   6.1460
     6.1460   6.1486   6.1661   6.1678   6.1678   6.1721   6.1828   6.1828
     6.1849   6.1900   6.1900   6.2022   6.2022   6.2412   6.2412   6.2564
     6.2841   6.3421   6.3421   6.3727   6.4002   6.4562   6.4562   6.4770
     6.4770   6.4826   6.5099   6.5136   6.5136   6.5255   6.5310   6.5310
     6.6026   6.6068   6.6069   6.6405   6.6557   6.6755   6.6755   6.8159
     6.8159   6.8439   6.8586   6.8667   6.8770   6.8770   6.9024   6.9128
     6.9128   6.9647   6.9648   6.9832   7.0204   7.0299   7.0299   7.0429
     7.0430   7.0682   7.0682   7.1059   7.1983   7.2113   7.2546   7.2591
     7.2591   7.2926   7.2926   7.2941   7.2969   7.2969   7.3084   7.3395
     7.3395   7.3468   7.3520   7.3520   7.3676   7.3676   7.3941   7.4292
     7.4310   7.4310   7.4398   7.5234   7.5234   7.5269   7.5369   7.5369
     7.5423   7.5493   7.5493   7.5673   7.5718   7.5718   7.5905   7.5906
     7.6205   7.6739   7.6739   7.6875   7.6875   7.6892   7.6892   7.6965
     7.7016   7.7493   7.7653   7.7653   7.8506   7.8506   7.8939   7.8974
     7.8974   7.9135   7.9565   7.9689   7.9689   7.9853   7.9853   7.9908
     7.9916   7.9916   8.0036   8.0545   8.0546   8.0816   8.0896   8.0897
     8.1659   8.1659   8.1675   8.1803   8.1803   8.3038   8.3038   8.3332
     8.3695   8.3695   8.3825   8.5196   8.5197   8.5969   8.5969   8.7562
     8.8177   8.8177  10.0794  10.3727  10.3728  10.4155  12.1122  12.1308
    12.7207  12.7378  12.7901  12.7901  12.7915  12.8116  12.8116  12.8312
    12.8547  12.8830  12.8830  12.9115  12.9341  12.9341  13.0347  13.1339
    13.1339  13.1661  13.1844  13.1844  13.1989  13.2028  13.2028  13.2220
    13.2220  13.2734  13.4216  13.7533  13.7533  13.7664  13.7665  13.7772
    13.8358  13.8936  13.9025  13.9026  14.0728  14.0729  14.0773  14.2476
    14.2477  14.3091  14.3742  14.3742  14.3795  14.4032  14.4047  14.4047
    14.4164  14.4164  14.4227  14.4227  14.4355  14.4550  14.4634  14.4707
    14.4708  14.4737  14.4737  14.4774  14.4847  14.4847  14.5141  14.5141
    14.5169  14.5252  14.5967  14.5968  14.7418  14.7418  14.7553  14.8023
    14.8023  14.8106  14.8616  14.8709  14.8709  14.8838  14.9021  14.9243
    14.9243  14.9454  14.9454  14.9544  14.9544  14.9740  14.9913  14.9913
    15.0110  15.0357  15.0357  15.0686  15.1796  15.1796  15.2332  15.5810
    15.8342  15.8733  15.8733  15.9320  15.9366  15.9366  16.0053  16.0053
    16.0083  16.0235  16.0235  16.0397  16.0802  16.0802  16.1033  16.1224
    16.1224  16.1764  16.1764  16.1773  16.1960  16.2058  16.2173  16.2173
    16.2471  16.2471  16.2677  16.2974  16.3166  16.3166  16.4112  16.4112
    16.4127  16.4450  16.4450  16.4685  16.4748  16.4848  16.4848  16.4952
    16.5037  16.5037  16.5051  16.5165  16.5166  16.5519  16.5519  16.5566
    16.5566  16.5591  16.5606  16.5886  16.5886  16.6046  16.6046  16.6080
    16.6117  16.6299  16.6299  16.6317  16.6393  16.6403  16.6403  16.6406
    16.6467  16.6467  16.6567  16.6683  16.6683  16.6756  16.6997  16.6997
    16.7102  16.7102

     occupation numbers 
     1.0000   1.0000   1.0000   1.0000   1.0000   1.0000   1.0000   1.0000
     1.0000   1.0000   1.0000   1.0000   1.0000   1.0000   1.0000   1.0000
     1.0000   1.0000   1.0000   1.0000   1.0000   1.0000   1.0000   1.0000
     1.0000   1.0000   1.0000   1.0000   1.0000   1.0000   1.0000   1.0000
     1.0000   1.0000   1.0000   1.0000   1.0000   1.0000   1.0000   1.0000
     1.0000   1.0000   1.0000   1.0000   1.0000   1.0000   1.0000   1.0000
     1.0000   1.0000   1.0000   1.0000   1.0000   1.0000   1.0000   1.0000
     1.0000   1.0000   1.0000   1.0000   1.0000   1.0000   1.0000   1.0000
     1.0000   1.0000   1.0000   1.0000   1.0000   1.0000   1.0000   1.0000
     1.0000   1.0000   1.0000   1.0000   1.0000   1.0000   1.0000   1.0000
     1.0000   1.0000   1.0000   1.0000   1.0000   1.0000   1.0000   1.0000
     1.0000   1.0000   1.0000   1.0000   1.0000   1.0000   1.0000   1.0000
     1.0000   1.0000   1.0000   1.0000   1.0000   1.0000   1.0000   1.0000
     1.0000   1.0000   1.0000   1.0000   1.0000   1.0000   1.0000   1.0000
     1.0000   1.0000   1.0000   1.0000   1.0000   1.0000   1.0000   1.0000
     1.0000   1.0000   1.0000   1.0000   1.0000   1.0000   1.0000   1.0000
     1.0000   1.0000   1.0000   1.0000   1.0000   1.0000   1.0000   1.0000
     1.0000   1.0000   1.0000   1.0000   1.0000   1.0000   1.0000   1.0000
     1.0000   1.0000   1.0000   1.0000   1.0000   1.0000   1.0000   1.0000
     1.0000   1.0000   1.0000   1.0000   1.0000   1.0000   1.0000   1.0000
     1.0000   1.0000   1.0000   1.0000   1.0000   1.0000   1.0000   1.0000
     1.0000   1.0000   1.0000   1.0000   1.0000   1.0000   1.0000   1.0000
     1.0000   1.0000   1.0000   1.0000   1.0000   1.0000   1.0000   1.0000
     1.0000   1.0000   1.0000   1.0000   1.0000   1.0000   1.0000   1.0000
     1.0000   1.0000   1.0000   1.0000   1.0000   1.0000   1.0000   1.0000
     1.0000   1.0000   1.0000   1.0000   1.0000   1.0000   1.0000   1.0000
     1.0000   1.0000   1.0000   1.0000   1.0000   1.0000   1.0000   1.0000
     1.0000   1.0000   1.0000   1.0000   1.0000   1.0000   1.0000   1.0000
     1.0000   1.0000   1.0000   1.0000   1.0000   1.0000   1.0000   1.0000
     1.0000   1.0000   1.0000   1.0000   1.0000   1.0000   1.0000   1.0000
     1.0000   1.0000   1.0000   1.0000   1.0000   1.0000   1.0000   1.0000
     1.0000   1.0000   1.0000   1.0000   1.0000   1.0000   1.0000   1.0000
     1.0000   1.0000   1.0000   1.0000   1.0000   1.0000   1.0000   1.0000
     1.0000   1.0000   1.0000   1.0000   1.0000   1.0000   1.0000   1.0000
     1.0000   1.0000   1.0000   1.0000   1.0000   1.0000   1.0000   1.0000
     1.0000   1.0000   1.0000   1.0000   1.0000   1.0000   1.0000   1.0000
     1.0000   1.0000   1.0000   1.0000   1.0000   1.0000   1.0000   1.0000
     1.0000   1.0000   1.0000   1.0000   1.0000   1.0000   1.0000   1.0000
     1.0000   1.0000   1.0000   1.0000   1.0000   1.0000   1.0000   1.0000
     1.0000   1.0000   1.0000   1.0000   1.0000   1.0000   1.0000   1.0000
     1.0000   1.0000   1.0000   1.0000   1.0000   1.0000   1.0000   1.0000
     1.0000   1.0000   1.0000   1.0000   1.0000   1.0000   1.0000   1.0000
     1.0000   1.0000   1.0000   1.0000   1.0000   1.0000   1.0000   1.0000
     1.0000   1.0000   1.0000   1.0000   1.0000   1.0000   1.0000   1.0000
     1.0000   1.0000   1.0000   1.0000   1.0000   1.0000   1.0000   1.0000
     1.0000   1.0000   1.0000   1.0000   1.0000   1.0000   1.0000   1.0000
     1.0000   1.0000   1.0000   1.0000   1.0000   1.0000   1.0000   1.0000
     1.0000   1.0000   1.0000   1.0000   1.0000   1.0000   1.0000   1.0000
     1.0000   1.0000   1.0000   1.0000   1.0000   1.0000   1.0000   1.0000
     1.0000   1.0000   1.0000   1.0000   1.0000   1.0000   1.0000   1.0000
     1.0000   1.0000   1.0000   1.0000   1.0000   1.0000   1.0000   1.0000
     1.0000   1.0000   1.0000   1.0000   1.0000   1.0000   1.0000   1.0000
     1.0000   1.0000   1.0000   1.0000   1.0000   1.0000   1.0000   1.0000
     1.0000   1.0000   1.0000   1.0000   1.0000   1.0000   1.0000   1.0000
     1.0000   1.0000   1.0000   1.0000   1.0000   1.0000   1.0000   1.0000
     1.0000   1.0000   1.0000   1.0000   1.0000   1.0000   1.0000   1.0000
     1.0000   1.0000   1.0000   1.0000   1.0000   1.0000   1.0000   1.0000
     1.0000   1.0000   1.0000   1.0000   1.0000   1.0000   1.0000   1.0000
     1.0000   1.0000   1.0000   1.0000   1.0000   1.0000   1.0000   1.0000
     1.0000   1.0000   1.0000   1.0000   1.0000   1.0000   1.0000   1.0000
     1.0000   1.0000   1.0000   1.0000   1.0000   1.0000   1.0000   1.0000
     1.0000   1.0000   1.0000   1.0000   1.0000   1.0000   1.0000   1.0000
     1.0000   1.0000   1.0000   1.0000   1.0000   1.0000   1.0000   1.0000
     1.0000   1.0000   1.0000   1.0000   1.0000   1.0000   1.0000   1.0000
     1.0000   1.0000   1.0000   1.0000   1.0000   1.0000   1.0000   1.0000
     1.0000   1.0000   1.0000   1.0000   1.0000   1.0000   1.0000   1.0000
     1.0000   1.0000   1.0000   1.0000   1.0000   1.0000   1.0000   1.0000
     1.0000   1.0000   1.0000   1.0000   1.0000   1.0000   1.0000   1.0000
     1.0000   1.0000   1.0000   1.0000   1.0000   1.0000   1.0000   1.0000
     1.0000   1.0000   1.0000   1.0000   1.0000   1.0000   1.0000   1.0000
     1.0000   1.0000   1.0000   1.0000   1.0000   1.0000   1.0000   1.0000
     1.0000   1.0000   1.0000   1.0000   1.0000   1.0000   1.0000   1.0000
     1.0000   1.0000   1.0000   1.0000   1.0000   1.0000   1.0000   1.0000
     1.0000   1.0000   1.0000   1.0000   1.0000   1.0000   1.0000   1.0000
     1.0000   1.0000   1.0000   1.0000   1.0000   1.0000   1.0000   1.0000
     1.0000   1.0000   1.0000   1.0000   1.0000   1.0000   1.0000   1.0000
     1.0000   1.0000   1.0000   1.0000   1.0000   1.0000   1.0000   1.0000
     1.0000   1.0000   1.0000   1.0000   1.0000   1.0000   1.0000   1.0000
     1.0000   1.0000   1.0000   1.0000   1.0000   1.0000   1.0000   1.0000
     1.0000   1.0000   1.0000   1.0000   1.0000   1.0000   1.0000   1.0000
     1.0000   1.0000   1.0000   1.0000   1.0000   1.0000   1.0000   1.0000
     1.0000   1.0000   1.0000   1.0000   1.0000   1.0000   1.0000   1.0000
     1.0000   1.0000   1.0000   1.0000   1.0000   1.0000   1.0000   1.0000
     1.0000   1.0000   1.0000   1.0000   1.0000   1.0000   1.0000   1.0000
     1.0000   1.0000   1.0000   1.0000   1.0000   1.0000   1.0000   1.0000
     1.0000   1.0000   1.0000   1.0000   1.0000   1.0000   1.0000   1.0000
     1.0000   1.0000   1.0000   1.0000   1.0000   1.0000   1.0000   1.0000
     1.0000   1.0000   1.0000   1.0000   1.0000   1.0000   1.0000   1.0000
     1.0000   1.0000   1.0000   1.0000   1.0000   1.0000   1.0000   1.0000
     1.0000   1.0000   1.0000   1.0000   1.0000   1.0000   1.0000   1.0000
     1.0000   1.0000   1.0000   1.0000   1.0000   1.0000   1.0000   1.0000
     1.0000   1.0000   1.0000   1.0000   1.0000   1.0000   1.0000   1.0000
     1.0000   1.0000   1.0000   1.0000   1.0000   1.0000   1.0000   1.0000
     1.0000   1.0000   1.0000   1.0000   1.0000   1.0000   1.0000   1.0000
     1.0000   1.0000   1.0000   1.0000   1.0000   1.0000   1.0000   1.0000
     1.0000   1.0000   1.0000   1.0000   1.0000   1.0000   1.0000   1.0000
     1.0000   1.0000   1.0000   1.0000   1.0000   1.0000   1.0000   1.0000
     1.0000   1.0000   1.0000   1.0000   1.0000   1.0000   1.0000   1.0000
     1.0000   1.0000   1.0000   1.0000   1.0000   1.0000   1.0000   1.0000
     1.0000   1.0000   1.0000   1.0000   1.0000   1.0000   1.0000   1.0000
     1.0000   1.0000   1.0000   1.0000   1.0000   1.0000   1.0000   1.0000
     1.0000   1.0000   1.0000   1.0000   1.0000   1.0000   1.0000   1.0000
     1.0000   1.0000   1.0000   1.0000   1.0000   1.0000   1.0000   1.0000
     1.0000   1.0000   1.0000   1.0000   1.0000   1.0000   1.0000   1.0000
     1.0000   1.0000   1.0000   1.0000   1.0000   1.0000   1.0000   1.0000
     1.0000   1.0000   1.0000   1.0000   1.0000   1.0000   1.0000   1.0000
     1.0000   1.0000   1.0000   1.0000   1.0000   1.0000   1.0000   1.0000
     1.0000   1.0000   1.0000   1.0000   1.0000   1.0000   1.0000   1.0000
     1.0000   1.0000   0.9743   0.1356   0.1352   0.0612   0.0000   0.0000
     0.0000   0.0000   0.0000   0.0000   0.0000   0.0000   0.0000   0.0000
     0.0000   0.0000   0.0000   0.0000   0.0000   0.0000   0.0000   0.0000
     0.0000   0.0000   0.0000   0.0000   0.0000   0.0000   0.0000   0.0000
     0.0000   0.0000   0.0000   0.0000   0.0000   0.0000   0.0000   0.0000
     0.0000   0.0000   0.0000   0.0000   0.0000   0.0000   0.0000   0.0000
     0.0000   0.0000   0.0000   0.0000   0.0000   0.0000   0.0000   0.0000
     0.0000   0.0000   0.0000   0.0000   0.0000   0.0000   0.0000   0.0000
     0.0000   0.0000   0.0000   0.0000   0.0000   0.0000   0.0000   0.0000
     0.0000   0.0000   0.0000   0.0000   0.0000   0.0000   0.0000   0.0000
     0.0000   0.0000   0.0000   0.0000   0.0000   0.0000   0.0000   0.0000
     0.0000   0.0000   0.0000   0.0000   0.0000   0.0000   0.0000   0.0000
     0.0000   0.0000   0.0000   0.0000   0.0000   0.0000   0.0000   0.0000
     0.0000   0.0000   0.0000   0.0000   0.0000   0.0000   0.0000   0.0000
     0.0000   0.0000   0.0000   0.0000   0.0000   0.0000   0.0000   0.0000
     0.0000   0.0000   0.0000   0.0000   0.0000   0.0000   0.0000   0.0000
     0.0000   0.0000   0.0000   0.0000   0.0000   0.0000   0.0000   0.0000
     0.0000   0.0000   0.0000   0.0000   0.0000   0.0000   0.0000   0.0000
     0.0000   0.0000   0.0000   0.0000   0.0000   0.0000   0.0000   0.0000
     0.0000   0.0000   0.0000   0.0000   0.0000   0.0000   0.0000   0.0000
     0.0000   0.0000   0.0000   0.0000   0.0000   0.0000   0.0000   0.0000
     0.0000   0.0000   0.0000   0.0000   0.0000   0.0000   0.0000   0.0000
     0.0000   0.0000

          k = 0.0000 0.0000-0.4090 (154532 PWs)   bands (ev):

    -6.7802  -6.7370  -6.5078  -6.5078  -6.4992  -6.4891  -6.4891  -6.4714
    -6.4661  -6.4612  -6.4611  -6.4554  -6.4554  -6.4483  -6.4441  -6.4229
    -6.3774  -6.3774  -6.3693  -6.3605  -6.3530  -6.3529  -6.3401  -6.3397
    -6.3397  -6.3344  -6.3344  -6.3291  -6.3270  -6.3252  -6.3252  -6.3237
    -6.3235  -6.3235  -6.3216  -6.3216  -6.3205  -6.3199  -6.3160  -6.3160
    -6.3103  -6.3093  -6.3093  -6.3063  -6.3062  -6.3049  -6.3031  -6.3031
    -6.2987  -6.2950  -6.2942  -6.2942  -6.2932  -6.2932  -6.2891  -6.2874
    -6.2854  -6.2830  -6.2830  -6.2814  -6.2792  -6.2792  -6.2792  -6.2757
    -6.2752  -6.2752  -6.2732  -6.2731  -6.2703  -6.2677  -6.2677  -6.2617
    -6.2617  -6.2568  -6.2549  -6.2549  -6.2548  -6.2529  -6.2529  -6.2525
    -6.2505  -6.2498  -6.2498  -6.2412  -6.2412  -6.2398  -6.2364  -6.2364
    -6.2294  -6.2275  -6.2275  -6.2236  -6.1673  -6.1673  -6.1614  -5.3156
    -5.3156  -5.2491  -5.2373  -5.2373  -5.2232  -5.2232  -5.2121  -5.1937
    -5.1937  -5.1909  -5.1909  -5.1888  -5.1875  -5.1840  -5.1829  -5.1829
    -5.1815  -5.1815  -5.1798  -5.1775  -5.1775  -5.1771  -5.1759  -5.1759
    -5.1755  -5.1710  -5.1710  -5.1702  -5.1702  -5.1690  -5.1650  -5.1650
    -5.1641  -5.1633  -5.1633  -5.1622  -5.1610  -5.1610  -5.1599  -5.1572
    -5.1567  -5.1567  -5.1552  -5.1552  -5.1547  -5.1532  -5.1528  -5.1504
    -5.1504  -5.1489  -5.1489  -5.1486  -5.1486  -5.1453  -5.1452  -5.1452
    -5.1440  -5.1440  -5.1416  -5.1400  -5.1382  -5.1382  -5.1379  -5.1379
    -5.1377  -5.1366  -5.1366  -5.1361  -5.1344  -5.1344  -5.1335  -5.1328
    -5.1328  -5.1322  -5.1304  -5.1304  -5.1262  -5.1255  -5.1255  -5.1245
    -5.1245  -5.1237  -5.1229  -5.1229  -5.1209  -5.1208  -5.1208  -5.1196
    -5.1189  -5.1189  -5.1169  -5.1146  -5.1146  -5.1142  -5.1133  -5.1112
    -5.1112  -5.1083  -5.1062  -5.1062  -5.1056  -5.1056  -5.1055  -5.1038
    -5.1033  -5.1033  -5.1013  -5.1013  -5.1008  -5.0997  -5.0990  -5.0990
    -5.0958  -5.0953  -5.0953  -5.0953  -5.0947  -5.0947  -5.0896  -5.0882
    -5.0882  -5.0874  -5.0874  -5.0869  -5.0861  -5.0859  -5.0859  -5.0832
    -5.0832  -5.0823  -5.0822  -5.0807  -5.0807  -5.0795  -5.0794  -5.0794
    -5.0788  -5.0777  -5.0777  -5.0764  -5.0764  -5.0752  -5.0752  -5.0748
    -5.0740  -5.0735  -5.0707  -5.0675  -5.0675  -5.0662  -5.0662  -5.0643
    -5.0643  -5.0599  -5.0598  -5.0598  -5.0597  -5.0579  -5.0565  -5.0563
    -5.0563  -5.0557  -5.0557  -5.0549  -5.0549  -5.0548  -5.0544  -5.0530
    -5.0520  -5.0520  -5.0505  -5.0494  -5.0494  -5.0473  -5.0455  -5.0454
    -5.0454  -5.0434  -5.0432  -5.0432  -5.0416  -5.0416  -5.0392  -5.0389
    -5.0389  -5.0388  -5.0380  -5.0380  -5.0362  -5.0357  -5.0347  -5.0347
    -5.0337  -5.0337  -5.0332  -5.0332  -5.0317  -5.0278  -5.0258  -5.0254
    -5.0254  -5.0242  -5.0222  -5.0222  -5.0218  -5.0218  -5.0200  -5.0200
    -5.0187  -5.0176  -5.0176  -5.0160  -5.0146  -5.0146  -5.0135  -5.0135
    -5.0132  -5.0118  -5.0118  -5.0114  -5.0093  -5.0093  -5.0082  -5.0082
    -5.0080  -5.0063  -5.0063  -5.0055  -5.0045  -5.0033  -5.0026  -5.0026
    -5.0018  -5.0015  -5.0009  -5.0009  -4.9998  -4.9992  -4.9992  -4.9992
    -4.9984  -4.9984  -4.9966  -4.9966  -4.9958  -4.9930  -4.9930  -4.9929
    -4.9924  -4.9924  -4.9920  -4.9914  -4.9914  -4.9906  -4.9900  -4.9900
    -4.9886  -4.9886  -4.9880  -4.9880  -4.9859  -4.9859  -4.9852  -4.9851
    -4.9851  -4.9834  -4.9832  -4.9820  -4.9799  -4.9799  -4.9791  -4.9791
    -4.9786  -4.9777  -4.9766  -4.9766  -4.9763  -4.9759  -4.9746  -4.9746
    -4.9723  -4.9723  -4.9712  -4.9711  -4.9705  -4.9693  -4.9693  -4.9677
    -4.9649  -4.9640  -4.9640  -4.9618  -4.9618  -4.9611  -4.9608  -4.9596
    -4.9596  -4.9591  -4.9591  -4.9590  -4.9579  -4.9579  -4.9567  -4.9567
    -4.9558  -4.9546  -4.9546  -4.9539  -4.9520  -4.9520  -4.9511  -4.9511
    -4.9486  -4.9485  -4.9485  -4.9475  -4.9475  -4.9470  -4.9463  -4.9460
    -4.9460  -4.9452  -4.9420  -4.9420  -4.9419  -4.9419  -4.9416  -4.9405
    -4.9395  -4.9389  -4.9389  -4.9376  -4.9376  -4.9367  -4.9342  -4.9313
    -4.9313  -4.9268  -4.9266  -4.9266  -4.9262  -4.9257  -4.9257  -4.9233
    -4.9233  -4.9228  -4.9228  -4.9213  -4.9194  -4.9185  -4.9182  -4.9182
    -4.9182  -4.9165  -4.9165  -4.9147  -4.9147  -4.9139  -4.9138  -4.9138
    -4.9115  -4.9114  -4.9078  -4.9078  -4.9073  -4.9073  -4.9045  -4.9036
    -4.9036  -4.8990  -4.8941  -4.8941  -4.8925  -4.8893  -4.8893  -4.8861
    -4.8745  -4.8660  -4.8660  -4.8526  -4.8526  -4.8277  -4.7758  -4.7758
    -4.7323  -4.7300  -4.7300  -4.7251  -4.7251  -4.7215  -4.7139  -4.6999
    -4.6996  -4.6996  -4.6942  -4.6421  -4.6421  -4.6074  -4.6074  -4.5487
    -4.4485  -4.4485  -4.3258  -4.3257  -4.2620  -4.1792  -4.1792  -4.1778
    -4.1744  -4.1744  -4.1723  -4.1638  -4.1638  -4.1414  -4.1413  -4.0758
    -4.0279  -3.7015  -3.6986  -3.6744  -3.6744  -3.6565  -3.6558  -3.6558
    -3.6446  -3.6414  -3.6348  -3.6348  -3.6124  -3.6124  -3.5774  -3.5236
    -3.5236  -3.5053  -3.4805  -3.4805  -3.4254  -3.3194  -3.3087  -3.3087
    -3.2957  -3.2957  -3.2928  -3.2928  -3.2907  -3.2878  -3.2872  -3.2872
    -3.2825  -3.2806  -3.2806  -3.2791  -3.2791  -3.2767  -3.2719  -3.2719
    -3.2698  -3.2541  -3.2541  -3.2484  -3.2449  -3.2410  -3.2410  -3.2043
    -3.2043  -3.1389  -3.0544  -3.0017  -3.0017  -2.9763  -2.9572  -2.9572
    -2.9034  -2.8595  -2.8554  -2.8554  -2.8450  -2.8450  -2.8173  -2.8173
    -2.8133  -2.8049  -2.7832  -2.7832   1.8198   2.3998   2.4598   2.4598
     2.4788   2.4881   2.4882   2.4993   2.5193   2.5193   2.5256   2.5522
     2.5522   2.5779   2.6110   2.9880   2.9880   2.9904   3.0267   3.0267
     3.0400   3.0499   3.0499   3.0601   3.0601   3.0695   3.0719   3.0719
     3.0730   3.0779   3.0781   3.0861   3.0861   3.0882   3.0894   3.0894
     3.1027   3.1027   3.1043   3.1043   3.1105   3.1111   3.1112   3.1147
     3.1148   3.1331   3.1331   3.2407   3.2407   3.2440   3.3745   3.4314
     3.4315   3.4515   3.4683   3.4684   3.5447   3.7088   3.7088   3.7480
     3.7600   3.7600   3.7739   3.7739   3.7829   3.7929   3.8381   3.8382
     3.9573   4.3214   4.3214   4.3241   4.3312   4.3312   4.3413   4.3491
     4.3491   4.3592   4.3592   4.3787   4.7565   4.9750   5.0226   5.0230
     5.0230   5.0239   5.0240   5.0489   5.0497   5.0510   5.0555   5.0556
     5.0927   5.0927   5.1102   5.1656   5.1656   5.1828   5.1836   5.1952
     5.1953   5.2068   5.2068   5.2228   5.2521   5.2521   5.2871   5.2965
     5.2965   5.3066   5.3066   5.3495   5.4357   5.4479   5.4681   5.4681
     5.4919   5.4920   5.4920   5.5125   5.5125   5.5525   5.5525   5.5772
     5.6497   5.6594   5.6594   5.6620   5.6701   5.6731   5.6856   5.6856
     5.7043   5.7043   5.7128   5.7128   5.7229   5.7605   5.7605   5.7687
     5.7808   5.7839   5.7839   5.8139   5.8140   5.9013   5.9566   5.9566
     6.3162   6.3273   6.3274   6.3853   6.3993   6.3994   6.5134   6.6414
     6.6622   6.6623   6.6954   6.7036   6.7063   6.7063   6.7075   6.7075
     6.7445   6.7445   6.7539   6.8459   6.8459   6.8588   6.8588   6.8612
     6.8612   6.8756   6.8821   6.9017   6.9017   6.9133   6.9422   6.9534
     6.9757   6.9757   6.9882   6.9917   6.9918   7.0031   7.0086   7.0086
     7.0146   7.0197   7.0197   7.0215   7.0272   7.0272   7.0460   7.0461
     7.0506   7.0625   7.0625   7.0724   7.0725   7.0740   7.0998   7.1053
     7.1174   7.1174   7.1265   7.1996   7.2059   7.2059   7.2248   7.2405
     7.2405   7.2489   7.2489   7.2523   7.2602   7.2602   7.2751   7.2752
     7.2880   7.2936   7.2936   7.3022   7.3022   7.3132   7.3299   7.3625
     7.3625   7.3810   7.3810   7.4171   7.5533   7.5943   7.6111   7.6111
     7.6223   7.6223   7.6331   7.6335   7.6335   7.6406   7.6897   7.6898
     7.7447   7.7706   7.7706   7.7833   7.7932   7.8445   7.8446   7.9075
     7.9076   7.9764   8.0277   8.0518   8.0518   8.0817   8.0817   8.0903
     8.0903   8.1020   8.1214   8.1214   8.1227   8.1376   8.1411   8.1412
     8.1903   8.2442   8.2443   8.2487   8.2609   8.2738   8.2738   8.2798
     8.2798   8.2936   8.3162   8.3163   8.3464   8.3465   8.6938   8.6939
     8.7905   8.7905  10.0189  10.3693  10.3694  11.1324  11.1743  12.7074
    12.7292  12.7806  12.8050  12.8051  12.8145  12.8196  12.8196  12.8199
    12.8474  12.8666  12.8998  12.8999  12.9017  12.9017  12.9179  13.1309
    13.1555  13.1555  13.1918  13.1918  13.2785  13.3932  13.3932  13.4217
    13.4351  13.4351  13.4953  13.7745  13.7745  13.8087  13.8234  13.8234
    13.8360  13.8604  13.8604  13.8721  13.8722  13.8735  13.9156  13.9157
    13.9267  13.9553  13.9553  13.9981  14.1834  14.3318  14.3319  14.3895
    14.4678  14.4751  14.4751  14.4794  14.4957  14.4957  14.5049  14.5049
    14.5163  14.5376  14.5377  14.5550  14.5550  14.5572  14.5618  14.5880
    14.5880  14.5945  14.6471  14.6472  14.6869  14.7486  14.7510  14.7510
    14.7643  14.7643  14.8234  14.8234  14.8306  14.8374  14.8374  14.8791
    14.8932  14.8932  14.9145  14.9335  14.9335  14.9399  14.9831  14.9831
    14.9928  15.0909  15.0909  15.1104  15.4317  15.6799  15.6816  15.6816
    15.7799  15.7800  15.8769  15.9313  15.9313  15.9657  16.0024  16.0570
    16.0570  16.0602  16.0727  16.0728  16.1262  16.1262  16.1262  16.1706
    16.1937  16.1937  16.2152  16.2152  16.2405  16.2570  16.2570  16.2609
    16.2768  16.2768  16.2936  16.2939  16.2939  16.3108  16.3108  16.3158
    16.3289  16.3289  16.3294  16.3607  16.3607  16.3624  16.3634  16.3992
    16.3992  16.4268  16.4384  16.4402  16.4402  16.4535  16.4998  16.4998
    16.5451  16.5451  16.5633  16.5798  16.5798  16.5988  16.6052  16.6052
    16.6082  16.6095  16.6225  16.6266  16.6266  16.6350  16.6367  16.6367
    16.6495  16.6496  16.6754  16.6834  16.6834  16.7301  16.7301  16.7806
    16.9218  16.9515

     occupation numbers 
     1.0000   1.0000   1.0000   1.0000   1.0000   1.0000   1.0000   1.0000
     1.0000   1.0000   1.0000   1.0000   1.0000   1.0000   1.0000   1.0000
     1.0000   1.0000   1.0000   1.0000   1.0000   1.0000   1.0000   1.0000
     1.0000   1.0000   1.0000   1.0000   1.0000   1.0000   1.0000   1.0000
     1.0000   1.0000   1.0000   1.0000   1.0000   1.0000   1.0000   1.0000
     1.0000   1.0000   1.0000   1.0000   1.0000   1.0000   1.0000   1.0000
     1.0000   1.0000   1.0000   1.0000   1.0000   1.0000   1.0000   1.0000
     1.0000   1.0000   1.0000   1.0000   1.0000   1.0000   1.0000   1.0000
     1.0000   1.0000   1.0000   1.0000   1.0000   1.0000   1.0000   1.0000
     1.0000   1.0000   1.0000   1.0000   1.0000   1.0000   1.0000   1.0000
     1.0000   1.0000   1.0000   1.0000   1.0000   1.0000   1.0000   1.0000
     1.0000   1.0000   1.0000   1.0000   1.0000   1.0000   1.0000   1.0000
     1.0000   1.0000   1.0000   1.0000   1.0000   1.0000   1.0000   1.0000
     1.0000   1.0000   1.0000   1.0000   1.0000   1.0000   1.0000   1.0000
     1.0000   1.0000   1.0000   1.0000   1.0000   1.0000   1.0000   1.0000
     1.0000   1.0000   1.0000   1.0000   1.0000   1.0000   1.0000   1.0000
     1.0000   1.0000   1.0000   1.0000   1.0000   1.0000   1.0000   1.0000
     1.0000   1.0000   1.0000   1.0000   1.0000   1.0000   1.0000   1.0000
     1.0000   1.0000   1.0000   1.0000   1.0000   1.0000   1.0000   1.0000
     1.0000   1.0000   1.0000   1.0000   1.0000   1.0000   1.0000   1.0000
     1.0000   1.0000   1.0000   1.0000   1.0000   1.0000   1.0000   1.0000
     1.0000   1.0000   1.0000   1.0000   1.0000   1.0000   1.0000   1.0000
     1.0000   1.0000   1.0000   1.0000   1.0000   1.0000   1.0000   1.0000
     1.0000   1.0000   1.0000   1.0000   1.0000   1.0000   1.0000   1.0000
     1.0000   1.0000   1.0000   1.0000   1.0000   1.0000   1.0000   1.0000
     1.0000   1.0000   1.0000   1.0000   1.0000   1.0000   1.0000   1.0000
     1.0000   1.0000   1.0000   1.0000   1.0000   1.0000   1.0000   1.0000
     1.0000   1.0000   1.0000   1.0000   1.0000   1.0000   1.0000   1.0000
     1.0000   1.0000   1.0000   1.0000   1.0000   1.0000   1.0000   1.0000
     1.0000   1.0000   1.0000   1.0000   1.0000   1.0000   1.0000   1.0000
     1.0000   1.0000   1.0000   1.0000   1.0000   1.0000   1.0000   1.0000
     1.0000   1.0000   1.0000   1.0000   1.0000   1.0000   1.0000   1.0000
     1.0000   1.0000   1.0000   1.0000   1.0000   1.0000   1.0000   1.0000
     1.0000   1.0000   1.0000   1.0000   1.0000   1.0000   1.0000   1.0000
     1.0000   1.0000   1.0000   1.0000   1.0000   1.0000   1.0000   1.0000
     1.0000   1.0000   1.0000   1.0000   1.0000   1.0000   1.0000   1.0000
     1.0000   1.0000   1.0000   1.0000   1.0000   1.0000   1.0000   1.0000
     1.0000   1.0000   1.0000   1.0000   1.0000   1.0000   1.0000   1.0000
     1.0000   1.0000   1.0000   1.0000   1.0000   1.0000   1.0000   1.0000
     1.0000   1.0000   1.0000   1.0000   1.0000   1.0000   1.0000   1.0000
     1.0000   1.0000   1.0000   1.0000   1.0000   1.0000   1.0000   1.0000
     1.0000   1.0000   1.0000   1.0000   1.0000   1.0000   1.0000   1.0000
     1.0000   1.0000   1.0000   1.0000   1.0000   1.0000   1.0000   1.0000
     1.0000   1.0000   1.0000   1.0000   1.0000   1.0000   1.0000   1.0000
     1.0000   1.0000   1.0000   1.0000   1.0000   1.0000   1.0000   1.0000
     1.0000   1.0000   1.0000   1.0000   1.0000   1.0000   1.0000   1.0000
     1.0000   1.0000   1.0000   1.0000   1.0000   1.0000   1.0000   1.0000
     1.0000   1.0000   1.0000   1.0000   1.0000   1.0000   1.0000   1.0000
     1.0000   1.0000   1.0000   1.0000   1.0000   1.0000   1.0000   1.0000
     1.0000   1.0000   1.0000   1.0000   1.0000   1.0000   1.0000   1.0000
     1.0000   1.0000   1.0000   1.0000   1.0000   1.0000   1.0000   1.0000
     1.0000   1.0000   1.0000   1.0000   1.0000   1.0000   1.0000   1.0000
     1.0000   1.0000   1.0000   1.0000   1.0000   1.0000   1.0000   1.0000
     1.0000   1.0000   1.0000   1.0000   1.0000   1.0000   1.0000   1.0000
     1.0000   1.0000   1.0000   1.0000   1.0000   1.0000   1.0000   1.0000
     1.0000   1.0000   1.0000   1.0000   1.0000   1.0000   1.0000   1.0000
     1.0000   1.0000   1.0000   1.0000   1.0000   1.0000   1.0000   1.0000
     1.0000   1.0000   1.0000   1.0000   1.0000   1.0000   1.0000   1.0000
     1.0000   1.0000   1.0000   1.0000   1.0000   1.0000   1.0000   1.0000
     1.0000   1.0000   1.0000   1.0000   1.0000   1.0000   1.0000   1.0000
     1.0000   1.0000   1.0000   1.0000   1.0000   1.0000   1.0000   1.0000
     1.0000   1.0000   1.0000   1.0000   1.0000   1.0000   1.0000   1.0000
     1.0000   1.0000   1.0000   1.0000   1.0000   1.0000   1.0000   1.0000
     1.0000   1.0000   1.0000   1.0000   1.0000   1.0000   1.0000   1.0000
     1.0000   1.0000   1.0000   1.0000   1.0000   1.0000   1.0000   1.0000
     1.0000   1.0000   1.0000   1.0000   1.0000   1.0000   1.0000   1.0000
     1.0000   1.0000   1.0000   1.0000   1.0000   1.0000   1.0000   1.0000
     1.0000   1.0000   1.0000   1.0000   1.0000   1.0000   1.0000   1.0000
     1.0000   1.0000   1.0000   1.0000   1.0000   1.0000   1.0000   1.0000
     1.0000   1.0000   1.0000   1.0000   1.0000   1.0000   1.0000   1.0000
     1.0000   1.0000   1.0000   1.0000   1.0000   1.0000   1.0000   1.0000
[...]
              0.165966903678010E+03
              0.476426596523437E+01
              0.517253354096263E+03
              0.719152970302835E+02
             -0.754071286168419E+02
              0.291101386583127E+02
             -0.691543932026050E+02
              0.406400182004055E+03
             -0.263381986582635E+01
              0.777462365630790E+02
              0.282170419874712E+03
              0.755307395221562E+02
             -0.214440915590722E+03
             -0.347505836052716E+03
              0.194757044635771E+02
             -0.395276546144325E+03
              0.132561539101493E+03
             -0.687323681026974E+02
             -0.152519178421298E+03
              0.154464399465990E+03
              0.534605829604957E+02
              0.148468917577315E+03
              0.649520490046882E+01
              0.220463536349725E+03
             -0.374233527998835E+03
             -0.267104389966094E+02
             -0.328447505455382E+03
              0.730753703872529E+02
              0.180224778869863E+03
             -0.183158123639221E+02
             -0.120082704534820E+03
              0.269314687820404E+03
             -0.124662202488396E+03
              0.921916642010410E+02
             -0.792647246764245E+02
              0.213135485100499E+03
              0.224565829134339E+03
             -0.972186350417624E+02
              0.192436980671327E+03
              0.722502385386192E+02
             -0.194207724708783E+03
             -0.126908004911968E+03
              0.312116345811202E+03
              0.153122529623380E+03
             -0.132482784781778E+02
             -0.331673631427457E+02
              0.480562310562187E+03
              0.283437367230449E+03
              0.100862850638731E+03
             -0.302523419060885E+03
              0.484929554587962E+03
             -0.226375285057646E+03
             -0.279538818099950E+03
             -0.421359645231401E+03
              0.187812375942438E+03
             -0.378777724992707E+03
              0.171312266483670E+03
              0.276692438716126E+03
              0.197140349640277E+03
              0.500401604344600E+02
              0.130616481792573E+03
             -0.312050067017866E+03
             -0.111768463361855E+03
             -0.848788291924593E+02
              0.160141382886979E+03
              0.317516193293803E+03
              0.328029081811473E+03
              0.252911189798798E+03
             -0.579100947392194E+02
              0.807795116076786E+02
              0.458356005702581E+01
             -0.103983426644420E+03
              0.133897501374639E+03
              0.145631143738045E+03
             -0.184555308014376E+03
             -0.219235648723290E+03
             -0.865232486873347E+02
              0.227610350185673E+03
              0.109088694323561E+03
             -0.156166145546593E+03
             -0.239556132219758E+03
             -0.348756929715110E+03
              0.725084661304203E+01
              0.936631099687875E+02
             -0.131730945471618E+03
              0.487687358457703E+03
              0.234539528237597E+02
             -0.552557885887911E+03
              0.122378867997455E+03
              0.242204161989856E+03
             -0.110872703841679E+03
              0.134146509939651E+02
             -0.153765652039829E+03
              0.225899058632544E+03
              0.104556032481278E+03
             -0.289189788112707E+03
              0.344331879774809E+03
              0.988878455071108E+01
             -0.147681743090800E+03
             -0.175291729869374E+03
              0.685816044461445E+03
              0.305462935579526E+03
             -0.852224633603496E+02
              0.168159286955263E+03
             -0.300159737268476E+03
             -0.537155573349282E+02
             -0.304052010082954E+03
              0.121800278094535E+03
              0.207221576167417E+03
              0.245853355735791E+03
             -0.979509953413381E+02
              0.288288345101764E+02
              0.280863350383235E+03
              0.103816681100900E+03
              0.175960850606729E+03
              0.748237720306397E+02
             -0.504634698227737E+02
              0.757540235179113E+01
             -0.463951154838596E+02
              0.714119970089419E+02
              0.157788340715488E+02
             -0.255968816324023E+03
              0.389343926800031E+03
              0.155719909501310E+03
             -0.279889541333247E+03
             -0.207633897194190E+03
             -0.300804818914080E+03
             -0.142272317606652E+03
             -0.104841137027443E+03
             -0.232632534332171E+03
             -0.227789085853428E+03
              0.286904414940569E+03
              0.226409686164337E+03
             -0.281545194032042E+02
              0.330305622210765E+03
              0.622925113100655E+02
             -0.532988958176649E+03
              0.300705548976397E+03
              0.693763187604493E+02
              0.231836051043094E+03
              0.516833184739921E+02
              0.386790965086203E+02
              0.458482757100753E+02
              0.120695188534797E+03
             -0.221094757627504E+03
             -0.110339468822183E+03
             -0.203138296148762E+03
             -0.168719065687103E+03
              0.767459689037510E+02
             -0.192981435907963E+03
              0.903637949477711E+02
              0.119513857343315E+03
             -0.126991829872457E+03
             -0.670437050704315E+02
             -0.586837689642039E+01
              0.329931070723918E+03
              0.524666776355243E+02
              0.326901698616029E+03
              0.116509264954118E+03
             -0.422640943473287E+03
             -0.143773495947785E+03
              0.144426627701841E+03
              0.325231273430323E+03
              0.623522824406297E+02
              0.127130280617233E+03
              0.306521055092893E+03
             -0.178285393626281E+03
             -0.289439289793630E+03
              0.376184528264994E+03
              0.644159355810280E+01
             -0.398777284571022E+03
              0.133705989902613E+03
              0.263939076353542E+03
             -0.611560110436617E+02
             -0.249761509499847E+03
              0.445772538210047E+02
              0.162448148255617E+02
             -0.136591271873818E+03
              0.495362135476389E+02
             -0.425881868753759E+02
              0.587751852765876E+03
              0.162229849372125E+03
             -0.269521658428939E+03
              0.814721194553956E+02
              0.377349888593095E+03
             -0.241961596217438E+03
             -0.643520213442382E+02
             -0.214181451684722E+03
              0.171079940572808E+03
              0.724699629771402E+02
              0.113612401139334E+03
              0.878916148849976E+01
              0.423895269939133E+03
             -0.236969395194186E+03
             -0.179906298264255E+03
             -0.198565670811701E+03
              0.170586232100354E+03
              0.407812123876733E+03
             -0.517360556792556E+02
              0.168414648404021E+03
             -0.228013235385618E+03
              0.231831816723934E+02
             -0.675881718956674E+02
             -0.224007122946473E+02
             -0.969910125226673E+02
             -0.892496623095348E+02
             -0.658929018156015E+02
              0.702586769070253E+02
              0.118734199461901E+03
             -0.273519043811027E+03
              0.198727431373280E+03
             -0.321331435174600E+03
              0.239889329244943E+03
             -0.278407125837603E+03
              0.421238545218546E+03
              0.224598988351775E+03
              0.250863494520866E+03
              0.574983351880189E+02
              0.645539997884962E+02
             -0.565549656744535E+03
              0.968713475187487E+02
              0.256602050148131E+02
              0.444909818102560E+02
             -0.844067938848024E+02
              0.440235507338282E+03
             -0.133549826545099E+03
             -0.174015538275541E+03
             -0.436237824584153E+03
             -0.145197372643467E+03
             -0.198270439516064E+03
             -0.175676750569221E+03
             -0.480652431700230E+02
             -0.921153118488182E+02
             -0.121868906903953E+03
             -0.183357190466288E+03
              0.136689819568211E+03
              0.451574736925119E+03
              0.385011044883216E+03
             -0.763267644584430E+02
             -0.472419547862202E+03
             -0.198709802463562E+03
              0.910075299751986E+02
              0.100995950361258E+03
              0.146166275161108E+03
              0.113629134392423E+03
              0.369671145112216E+02
              0.437343052825220E+03
             -0.108471043699668E+03
              0.221824512640560E+03
              0.101990940331742E+03
             -0.143213190514010E+03
             -0.899443409668309E+02
              0.202118186064569E+03
             -0.117072041402959E+03
             -0.830204738087928E+02
             -0.539078093782848E+02
              0.252595275677473E+03
             -0.338565548040965E+03
             -0.372449778628079E+02
             -0.277089286401737E+03
             -0.599058918286793E+03
              0.204231089991913E+01
             -0.742354423467651E+02
              0.205828554499584E+03
              0.244645370932703E+03
              0.335624998473760E+03
             -0.220813330961706E+03
              0.359090434468049E+03
              0.939175738726898E+02
             -0.107301380823185E+03
              0.647731819670530E+02
             -0.113919611929318E+03
             -0.796253707214701E+02
              0.182992521417340E+03
             -0.178208150339099E+03
              0.433717474296774E+03
             -0.110920495781937E+03
             -0.231985569070522E+03
              0.441464524310640E+03
             -0.247925337028750E+03
             -0.365235200847851E+02
              0.449292735500883E+02
              0.136958110730293E+03
             -0.202171593719345E+03
             -0.151428653803281E+03
              0.230320486755427E+03
             -0.373188147788488E+03
              0.274273884191472E+03
              0.358446317151535E+02
              0.214243627945109E+03
              0.296942168082439E+03
              0.749195491846648E+02
             -0.391058936057340E+03
             -0.172641473445189E+03
             -0.289011098747303E+03
             -0.181218086440973E+03
             -0.594811886038788E+02
              0.711354637101938E+02
             -0.135720165882984E+03
              0.943622948918437E+01
             -0.439221112092633E+03
              0.109951979622746E+02
             -0.277619191647550E+03
              0.272811061829804E+03
             -0.146795999734719E+03
             -0.288685946094413E+02
              0.196393247217469E+03
              0.212362892004899E+02
              0.195387170960016E+03
             -0.350277858357748E+03
              0.767431444460190E+02
              0.240938951476813E+02
              0.140895198163945E+03
              0.252772498223189E+03
             -0.443263130967432E+02
             -0.277127400830534E+03
             -0.158677651363119E+03
             -0.109629904087083E+03
             -0.532496536830968E+02
              0.261483561978010E+03
              0.160931173769078E+03
             -0.168276696482452E+03
             -0.153387625551499E+03
              0.126584591617309E+03
              0.124096647876943E+03
             -0.343822925431585E+03
              0.961579808096448E+02
              0.252251517506637E+03
             -0.123876567859106E+02
              0.295717792030652E+03
              0.149948415404914E+03
              0.236322910059796E+03
              0.359048468533442E+03
              0.589710728847152E+02
             -0.501658630164215E+03
              0.516433554165511E+02
              0.556480270378078E+03
              0.400449352364250E+03
             -0.268406577446063E+03
              0.267487535115942E+02
              0.348585839602177E+03
              0.316737569109945E+03
              0.150694402014908E+03
             -0.798532396904225E+02
              0.144394695691244E+03
              0.302948829141569E+03
             -0.135673872057491E+03
             -0.969581166341220E+02
              0.189295232000369E+03
             -0.135859738980068E+02
              0.177676665764573E+03
             -0.445429851031861E+02
              0.366426343623652E+03
             -0.139568794385473E+03
              0.836708549226296E+02
             -0.170530434284075E+03
              0.173063984625715E+03
             -0.229337795400922E+02
              0.273351559579664E+03
              0.192147044594949E+02
              0.108130228498237E+03
             -0.181417232101833E+03
             -0.111677645877892E+03
             -0.527063866683818E+02
             -0.454413609191960E+02
              0.287129942936067E+03
              0.119190574762985E+03
              0.368382156019602E+03
              0.306863326924255E+03
              0.687840678975936E+02
              0.270022323827226E+01
              0.360044307272824E+03
              0.189474443504568E+03
              0.506256667324510E+01
              0.319904960707773E+03
             -0.286960452138479E+03
              0.940855522417912E+02
             -0.180489763537805E+03
             -0.720161241760445E+02
              0.460782642931847E+03
             -0.705123781980956E+02
             -0.347810007652788E+01
             -0.605532549215939E+02
              0.382922139496016E+03
             -0.892393435119495E+02
             -0.106190007036744E+02
              0.772983918366229E+03
             -0.249560766386722E+03
             -0.267023199100278E+03
             -0.279874304055492E+03
             -0.164333420561440E+03
              0.163447663235957E+03
             -0.697933303771783E+02
              0.451230777936810E+02
             -0.141986627071888E+02
              0.978762803464959E+02
              0.159442240614708E+03
              0.183780671540452E+03
              0.270195656064275E+03
              0.149408904167801E+03
              0.189670012320057E+03
             -0.306669739687651E+03
             -0.293804805463956E+03
             -0.741785153158226E+02
             -0.287819932843179E+03
              0.460629498716185E+03
              0.394749605165342E+03
              0.188643842667035E+03
              0.510963761991396E+03
             -0.265833922605764E+03
             -0.108307439356700E+03
             -0.150834791043552E+03
              0.422712057355324E+03
 
 BEEF-vdW xc energy contributions
            1 :    -3873.432872340658     
            2 :     3489.483534119813     
            3 :    -2846.036759449640     
            4 :     2131.204665073276     
            5 :    -1510.734138315163     
            6 :     1065.007631637017     
            7 :    -779.8684122305212     
            8 :     587.2488675206769     
            9 :    -422.8927973728332     
           10 :     263.6760351600969     
           11 :    -126.5824247552709     
           12 :     39.46791608548392     
           13 :    -10.52470798661216     
           14 :     19.05367532789114     
           15 :    -30.76802985200084     
           16 :     22.22241322217906     
           17 :     5.616149873140785     
           18 :    -33.70672775843650     
           19 :     43.89424601737574     
           20 :    -34.38388386829229     
           21 :     20.14226592322757     
           22 :    -19.58008125294054     
           23 :     39.41546180151909     
           24 :    -69.87214179330385     
           25 :     93.13572791959086     
           26 :    -97.34203270730632     
           27 :     84.73008055337914     
           28 :    -68.17236738246811     
           29 :     59.91401830183486     
           30 :    -62.11278140840204     
           31 :    -331.4738289783572     
           32 :    -227.2302825889938     

     Writing all to output data dir ./GaN.save/
 
     init_run     :      5.12s CPU     10.68s WALL (       1 calls)
     electrons    :    967.58s CPU    978.20s WALL (       1 calls)
     forces       :     10.65s CPU     10.89s WALL (       1 calls)
     stress       :    172.37s CPU    174.44s WALL (       1 calls)

     Called by init_run:
     wfcinit      :      2.37s CPU      7.68s WALL (       1 calls)
     potinit      :      1.05s CPU      1.21s WALL (       1 calls)
     hinit0       :      0.78s CPU      0.83s WALL (       1 calls)

     Called by electrons:
     c_bands      :    957.71s CPU    967.70s WALL (       2 calls)
     sum_band     :      7.95s CPU      8.12s WALL (       2 calls)
     v_of_rho     :      1.19s CPU      1.30s WALL (       2 calls)
     v_h          :      0.01s CPU      0.01s WALL (       2 calls)
     v_xc         :     19.47s CPU     19.81s WALL (      38 calls)
     newd         :      0.24s CPU      0.24s WALL (       2 calls)
     PAW_pot      :      0.53s CPU      0.54s WALL (       2 calls)
     mix_rho      :      0.00s CPU      0.00s WALL (       2 calls)
     vdW_kernel   :      0.16s CPU      0.17s WALL (       1 calls)

     Called by c_bands:
     init_us_2    :      0.26s CPU      0.33s WALL (       4 calls)
     init_us_2:cp :      0.26s CPU      0.33s WALL (       4 calls)
     cegterg      :    848.93s CPU    857.28s WALL (       3 calls)

     Called by sum_band:
     sum_band:wei :      0.01s CPU      0.01s WALL (       2 calls)
     sum_band:loo :      6.49s CPU      6.56s WALL (       2 calls)
     sum_band:buf :      0.00s CPU      0.00s WALL (       2 calls)
     sum_band:ini :      0.21s CPU      0.21s WALL (       2 calls)
     sum_band:cal :      3.92s CPU      3.95s WALL (       2 calls)
     sum_band:bec :      0.05s CPU      0.05s WALL (       2 calls)
     addusdens    :      0.20s CPU      0.22s WALL (       2 calls)
     addusd:skk   :      0.03s CPU      0.03s WALL (       4 calls)
     addusd:dgemm :      0.09s CPU      0.10s WALL (       4 calls)
     addusd:qvan2 :      0.03s CPU      0.03s WALL (       4 calls)

     Called by *egterg:
     cdiaghg      :    673.99s CPU    677.65s WALL (      30 calls)
     cegterg:over :     38.48s CPU     39.64s WALL (      30 calls)
     cegterg:upda :     23.64s CPU     23.97s WALL (      30 calls)
     cegterg:last :     15.34s CPU     15.46s WALL (       4 calls)
     h_psi        :     68.84s CPU     70.01s WALL (      33 calls)
     s_psi        :     21.15s CPU     21.66s WALL (      33 calls)
     g_psi        :      0.14s CPU      0.15s WALL (      30 calls)

     Called by h_psi:
     h_psi:calbec :     22.40s CPU     22.57s WALL (      33 calls)
     vloc_psi     :     24.92s CPU     25.18s WALL (      33 calls)
     add_vuspsi   :     21.14s CPU     21.67s WALL (      33 calls)

     General routines
     calbec       :     36.13s CPU     36.41s WALL (      40 calls)
     fft          :      7.97s CPU      8.09s WALL (    2232 calls)
     ffts         :      0.25s CPU      0.25s WALL (       4 calls)
     fftw         :     25.41s CPU     25.68s WALL (   24972 calls)
     interpolate  :      0.01s CPU      0.01s WALL (       2 calls)
 
     Parallel routines

     PAW routines
     PAW_pot      :      0.53s CPU      0.54s WALL (       2 calls)
     PAW_symme    :      0.01s CPU      0.01s WALL (       3 calls)
 
     PWSCF        :  19m36.57s CPU  20m 1.34s WALL

 
   This run was terminated on:   7:34:43  18Feb2024            

=------------------------------------------------------------------------------=
   JOB DONE.
=------------------------------------------------------------------------------=
