
     Program PWSCF v.7.1 starts on 28Mar2024 at  6:25:43 

     This program is part of the open-source Quantum ESPRESSO suite
     for quantum simulation of materials; please cite
         "P. Giannozzi et al., J. Phys.:Condens. Matter 21 395502 (2009);
         "P. Giannozzi et al., J. Phys.:Condens. Matter 29 465901 (2017);
         "P. Giannozzi et al., J. Chem. Phys. 152 154105 (2020);
          URL http://www.quantum-espresso.org", 
     in publications or presentations arising from this work. More details at
     http://www.quantum-espresso.org/quote

     Parallel version (MPI & OpenMP), running on      27 processor cores
     Number of MPI processes:                27
     Threads/MPI process:                     1

     MPI processes distributed on     1 nodes
     1971102 MiB available memory on the printing compute node when the environment starts
 
     Reading input from espresso.pwi
Warning: card &CELL ignored
Warning: card    CELL_DYNAMICS    = 'BFGS' ignored
Warning: card / ignored

     Current dimensions of program PWSCF are:
     Max number of different atomic species (ntypx) = 10
     Max number of k-points (npk) =  40000
     Max angular momentum in pseudopotentials (lmaxx) =  4
     file Ga.pbe-dn-kjpaw_psl.1.0.0.UPF: wavefunction(s)  4S renormalized
     file N.pbe-n-kjpaw_psl.1.0.0.UPF: wavefunction(s)  2S renormalized

     **************************************************************************
     Initializing libbeef V0.1.2 with the BEEF-vdW functional.
     Citation: Wellendorff et al., PRB 85, 235149 (2012).
     **************************************************************************


     IMPORTANT: XC functional enforced from input :
     Exchange-correlation= BEEF-VDW
                           (   1   4  43  14   2   0   0)
     Any further DFT definition will be discarded
     Please, verify this is what you really want

 
     R & G space division:  proc/nbgrp/npool/nimage =      27
     Subspace diagonalization in iterative solution of the eigenvalue problem:
     a serial algorithm will be used

 
     Parallelization info
     --------------------
     sticks:   dense  smooth     PW     G-vecs:    dense   smooth      PW
     Min         134     107     28                10662     7629    1068
     Max         135     108     29                10667     7636    1077
     Sum        3643    2905    769               287969   206075   28939
 
     Using Slab Decomposition
 


     bravais-lattice index     =            4
     lattice parameter (alat)  =      12.2626  a.u.
     unit-cell volume          =    2602.7676 (a.u.)^3
     number of atoms/cell      =           31
     number of atomic types    =            2
     number of electrons       =       281.00
     number of Kohn-Sham states=          169
     kinetic-energy cutoff     =      70.0000  Ry
     charge density cutoff     =     350.0000  Ry
     scf convergence threshold =      1.0E-07
     mixing beta               =       0.7000
     number of iterations used =            8  plain     mixing
     Exchange-correlation= BEEF-VDW
                           (   1   4  43  14   2   0   0)

     celldm(1)=  12.262616  celldm(2)=   0.000000  celldm(3)=   1.629879
     celldm(4)=   0.000000  celldm(5)=   0.000000  celldm(6)=   0.000000

     crystal axes: (cart. coord. in units of alat)
               a(1) = (   1.000000   0.000000   0.000000 )  
               a(2) = (  -0.500000   0.866025   0.000000 )  
               a(3) = (   0.000000   0.000000   1.629879 )  

     reciprocal axes: (cart. coord. in units 2 pi/alat)
               b(1) = (  1.000000  0.577350 -0.000000 )  
               b(2) = (  0.000000  1.154701  0.000000 )  
               b(3) = (  0.000000 -0.000000  0.613542 )  


     PseudoPot. # 1 for Ga read from file:
     /trace/group/acmegroup/atimmins/packages/espresso/pseudo/psl_1.0.0/pslibrary.1.0.0/pbe/PSEUDOPOTENTIALS/Ga.pbe-dn-kjpaw_psl.1.0.0.UPF
     MD5 check sum: cd2a01e492f15b435d17032472d8505c
     Pseudo is Projector augmented-wave + core cor, Zval = 13.0
     Generated using 'atomic' code by A. Dal Corso  v.7.1
     Shape of augmentation charge: PSQ
     Using radial grid of 1205 points,  6 beta functions with: 
                l(1) =   0
                l(2) =   0
                l(3) =   1
                l(4) =   1
                l(5) =   2
                l(6) =   2
     Q(r) pseudized with 0 coefficients 


     PseudoPot. # 2 for N  read from file:
     /trace/group/acmegroup/atimmins/packages/espresso/pseudo/psl_1.0.0/pslibrary.1.0.0/pbe/PSEUDOPOTENTIALS/N.pbe-n-kjpaw_psl.1.0.0.UPF
     MD5 check sum: f77f775694dac7e2c3fe1c82443d1a16
     Pseudo is Projector augmented-wave + core cor, Zval =  5.0
     Generated using 'atomic' code by A. Dal Corso  v.7.1
     Shape of augmentation charge: PSQ
     Using radial grid of 1085 points,  4 beta functions with: 
                l(1) =   0
                l(2) =   0
                l(3) =   1
                l(4) =   1
     Q(r) pseudized with 0 coefficients 


     atomic species   valence    mass     pseudopotential
        Ga            13.00    69.72300     Ga( 1.00)
        N              5.00    14.00700     N ( 1.00)

      6 Sym. Ops. (no inversion) found ( 4 have fractional translation)


                                    s                        frac. trans.

      isym =  1     identity                                     

 cryst.   s( 1) = (     1          0          0      )
                  (     0          1          0      )
                  (     0          0          1      )

 cart.    s( 1) = (  1.0000000  0.0000000  0.0000000 )
                  (  0.0000000  1.0000000  0.0000000 )
                  (  0.0000000  0.0000000  1.0000000 )


      isym =  2     120 deg rotation - cryst. axis [0,0,1]       

 cryst.   s( 2) = (     0          1          0      )    f =(  0.4999999 )
                  (    -1         -1          0      )       (  0.0000004 )
                  (     0          0          1      )       (  0.0000000 )

 cart.    s( 2) = ( -0.5000000 -0.8660254  0.0000000 )    f =(  0.4999998 )
                  (  0.8660254 -0.5000000  0.0000000 )       (  0.0000003 )
                  (  0.0000000  0.0000000  1.0000000 )       (  0.0000000 )


      isym =  3     120 deg rotation - cryst. axis [0,0,-1]      

 cryst.   s( 3) = (    -1         -1          0      )    f =(  0.4999996 )
                  (     1          0          0      )       (  0.4999999 )
                  (     0          0          1      )       (  0.0000000 )

 cart.    s( 3) = ( -0.5000000  0.8660254  0.0000000 )    f =(  0.2499996 )
                  ( -0.8660254 -0.5000000  0.0000000 )       (  0.4330127 )
                  (  0.0000000  0.0000000  1.0000000 )       (  0.0000000 )


      isym =  4     inv. 180 deg rotation - cart. axis [1,0,0]   

 cryst.   s( 4) = (    -1          0          0      )    f =(  0.4999996 )
                  (     1          1          0      )       (  0.0000000 )
                  (     0          0          1      )       (  0.0000000 )

 cart.    s( 4) = ( -1.0000000  0.0000000  0.0000000 )    f =(  0.4999996 )
                  (  0.0000000  1.0000000  0.0000000 )       (  0.0000000 )
                  (  0.0000000  0.0000000  1.0000000 )       (  0.0000000 )


      isym =  5     inv. 180 deg rotation - cryst. axis [0,1,0]  

 cryst.   s( 5) = (     1          1          0      )
                  (     0         -1          0      )
                  (     0          0          1      )

 cart.    s( 5) = (  0.5000000  0.8660254  0.0000000 )
                  (  0.8660254 -0.5000000  0.0000000 )
                  (  0.0000000  0.0000000  1.0000000 )


      isym =  6     inv. 180 deg rotation - cryst. axis [1,1,0]  

 cryst.   s( 6) = (     0         -1          0      )    f =(  0.4999999 )
                  (    -1          0          0      )       (  0.4999999 )
                  (     0          0          1      )       (  0.0000000 )

 cart.    s( 6) = (  0.5000000 -0.8660254  0.0000000 )    f =(  0.2500000 )
                  ( -0.8660254 -0.5000000  0.0000000 )       (  0.4330127 )
                  (  0.0000000  0.0000000  1.0000000 )       (  0.0000000 )


     point group C_3v (3m)  
     there are  3 classes
     the character table:

       E     2C3   3s_v 
A_1    1.00  1.00  1.00
A_2    1.00  1.00 -1.00
E      2.00 -1.00  0.00

     the symmetry operations in each class and the name of the first element:

     E        1
          identity                                               
     2C3      2    3
          120 deg rotation - cryst. axis [0,0,1]                 
     3s_v     4    5    6
          inv. 180 deg rotation - cart. axis [1,0,0]             

   Cartesian axes

     site n.     atom                  positions (alat units)
         1           Ga  tau(   1) = (   0.2500002   0.1443375   0.4067871  )
         2           Ga  tau(   2) = (   0.2500002   0.1443375   1.2217266  )
         3           Ga  tau(   3) = (   0.0000002   0.5773502   0.4067871  )
         4           Ga  tau(   4) = (   0.0000002   0.5773502   1.2217266  )
         5           Ga  tau(   5) = (   0.7500002   0.1443375   0.4067871  )
         6           Ga  tau(   6) = (   0.7500002   0.1443375   1.2217266  )
         7           Ga  tau(   7) = (   0.5000002   0.5773502   0.4067871  )
         8           Ga  tau(   8) = (   0.5000002   0.5773502   1.2217266  )
         9           Ga  tau(   9) = (  -0.0000003   0.2886754   0.8142568  )
        10           Ga  tau(  10) = (  -0.0000003   0.2886754   1.6291964  )
        11           Ga  tau(  11) = (  -0.2500003   0.7216881   0.8142568  )
        12           Ga  tau(  12) = (  -0.2500003   0.7216881   1.6291964  )
        13           Ga  tau(  13) = (   0.4999997   0.2886754   0.8142568  )
        14           Ga  tau(  14) = (   0.4999997   0.2886754   1.6291964  )
        15           Ga  tau(  15) = (   0.2499997   0.7216881   0.8142568  )
        16           Ga  tau(  16) = (   0.2499997   0.7216881   1.6291964  )
        17           N   tau(  17) = (   0.2500002   0.1443375   1.5286943  )
        18           N   tau(  18) = (   0.0000002   0.5773502   0.7137548  )
        19           N   tau(  19) = (   0.0000002   0.5773502   1.5286943  )
        20           N   tau(  20) = (   0.7500002   0.1443375   0.7137548  )
        21           N   tau(  21) = (   0.7500002   0.1443375   1.5286943  )
        22           N   tau(  22) = (   0.5000002   0.5773502   0.7137548  )
        23           N   tau(  23) = (   0.5000002   0.5773502   1.5286943  )
        24           N   tau(  24) = (  -0.0000003   0.2886754   0.3062850  )
        25           N   tau(  25) = (  -0.0000003   0.2886754   1.1212245  )
        26           N   tau(  26) = (  -0.2500003   0.7216881   0.3062850  )
        27           N   tau(  27) = (  -0.2500003   0.7216881   1.1212245  )
        28           N   tau(  28) = (   0.4999997   0.2886754   0.3062850  )
        29           N   tau(  29) = (   0.4999997   0.2886754   1.1212245  )
        30           N   tau(  30) = (   0.2499997   0.7216881   0.3062850  )
        31           N   tau(  31) = (   0.2499997   0.7216881   1.1212245  )

   Crystallographic axes

     site n.     atom                  positions (cryst. coord.)
         1           Ga  tau(   1) = (  0.3333335  0.1666666  0.2495811  )
         2           Ga  tau(   2) = (  0.3333335  0.1666666  0.7495811  )
         3           Ga  tau(   3) = (  0.3333335  0.6666666  0.2495811  )
         4           Ga  tau(   4) = (  0.3333335  0.6666666  0.7495811  )
         5           Ga  tau(   5) = (  0.8333335  0.1666666  0.2495811  )
         6           Ga  tau(   6) = (  0.8333335  0.1666666  0.7495811  )
         7           Ga  tau(   7) = (  0.8333335  0.6666666  0.2495811  )
         8           Ga  tau(   8) = (  0.8333335  0.6666666  0.7495811  )
         9           Ga  tau(   9) = (  0.1666665  0.3333336  0.4995811  )
        10           Ga  tau(  10) = (  0.1666665  0.3333336  0.9995811  )
        11           Ga  tau(  11) = (  0.1666665  0.8333336  0.4995811  )
        12           Ga  tau(  12) = (  0.1666665  0.8333336  0.9995811  )
        13           Ga  tau(  13) = (  0.6666665  0.3333336  0.4995811  )
        14           Ga  tau(  14) = (  0.6666665  0.3333336  0.9995811  )
        15           Ga  tau(  15) = (  0.6666665  0.8333336  0.4995811  )
        16           Ga  tau(  16) = (  0.6666665  0.8333336  0.9995811  )
        17           N   tau(  17) = (  0.3333335  0.1666666  0.9379189  )
        18           N   tau(  18) = (  0.3333335  0.6666666  0.4379189  )
        19           N   tau(  19) = (  0.3333335  0.6666666  0.9379189  )
        20           N   tau(  20) = (  0.8333335  0.1666666  0.4379189  )
        21           N   tau(  21) = (  0.8333335  0.1666666  0.9379189  )
        22           N   tau(  22) = (  0.8333335  0.6666666  0.4379189  )
        23           N   tau(  23) = (  0.8333335  0.6666666  0.9379189  )
        24           N   tau(  24) = (  0.1666665  0.3333336  0.1879189  )
        25           N   tau(  25) = (  0.1666665  0.3333336  0.6879189  )
        26           N   tau(  26) = (  0.1666665  0.8333336  0.1879189  )
        27           N   tau(  27) = (  0.1666665  0.8333336  0.6879189  )
        28           N   tau(  28) = (  0.6666665  0.3333336  0.1879189  )
        29           N   tau(  29) = (  0.6666665  0.3333336  0.6879189  )
        30           N   tau(  30) = (  0.6666665  0.8333336  0.1879189  )
        31           N   tau(  31) = (  0.6666665  0.8333336  0.6879189  )

     number of k points=     8  Gaussian smearing, width (Ry)=  0.0100
                       cart. coord. in units 2pi/alat
        k(    1) = (   0.0000000   0.0000000   0.0000000), wk =   0.0625000
        k(    2) = (   0.0000000   0.0000000  -0.3067712), wk =   0.0625000
        k(    3) = (   0.0000000   0.2886751   0.0000000), wk =   0.3750000
        k(    4) = (   0.0000000   0.2886751  -0.3067712), wk =   0.3750000
        k(    5) = (   0.0000000  -0.5773503   0.0000000), wk =   0.1875000
        k(    6) = (   0.0000000  -0.5773503  -0.3067712), wk =   0.1875000
        k(    7) = (   0.2500000   0.4330127   0.0000000), wk =   0.3750000
        k(    8) = (   0.2500000   0.4330127  -0.3067712), wk =   0.3750000

                       cryst. coord.
        k(    1) = (   0.0000000   0.0000000   0.0000000), wk =   0.0625000
        k(    2) = (   0.0000000   0.0000000  -0.5000000), wk =   0.0625000
        k(    3) = (   0.0000000   0.2500000   0.0000000), wk =   0.3750000
        k(    4) = (   0.0000000   0.2500000  -0.5000000), wk =   0.3750000
        k(    5) = (   0.0000000  -0.5000000   0.0000000), wk =   0.1875000
        k(    6) = (   0.0000000  -0.5000000  -0.5000000), wk =   0.1875000
        k(    7) = (   0.2500000   0.2500000   0.0000000), wk =   0.3750000
        k(    8) = (   0.2500000   0.2500000  -0.5000000), wk =   0.3750000

     Dense  grid:   287969 G-vectors     FFT dimensions: (  80,  80, 120)

     Smooth grid:   206075 G-vectors     FFT dimensions: (  72,  72, 108)

     Dynamical RAM for                 wfc:       2.46 MB

     Dynamical RAM for     wfc (w. buffer):      22.12 MB

     Dynamical RAM for           str. fact:       0.33 MB

     Dynamical RAM for           local pot:       0.00 MB

     Dynamical RAM for          nlocal pot:       5.93 MB

     Dynamical RAM for                qrad:       3.00 MB

     Dynamical RAM for          rho,v,vnew:       1.22 MB

     Dynamical RAM for               rhoin:       0.41 MB

     Dynamical RAM for            rho*nmix:       2.60 MB

     Dynamical RAM for           G-vectors:       0.67 MB

     Dynamical RAM for          h,s,v(r/c):      20.92 MB

     Dynamical RAM for          <psi|beta>:       1.05 MB

     Dynamical RAM for                 psi:       9.83 MB

     Dynamical RAM for                hpsi:       9.83 MB

     Dynamical RAM for                spsi:       9.83 MB

     Dynamical RAM for      wfcinit/wfcrot:       5.57 MB

     Dynamical RAM for           addusdens:      32.88 MB

     Dynamical RAM for          addusforce:      37.91 MB

     Dynamical RAM for         addusstress:      32.72 MB

     Estimated static dynamical RAM per process >      35.38 MB

     Estimated max dynamical RAM per process >      89.45 MB

     Estimated total dynamical RAM >       2.36 GB

     Atomic positions and unit cell read from directory:
     ./GaN.save/
     Atomic positions from file used, from input discarded
 

     Check: negative core charge=   -0.000003

     The initial density is read from file :
     ./GaN.save/charge-density



     %%%%%%%%%%%%%%%%%%%%%%%%%%%%%%%%%%%%%%%%%%%%%%%%%%%%%%%%%%%%%%%%%%%%%%%%
     %                                                                      %
     % You are using vdW-DF, which was implemented by the Thonhauser group. %
     % Please cite the following two papers that made this development      %
     % possible and the two reviews that describe the various versions:     %
     %                                                                      %
     %   T. Thonhauser et al., PRL 115, 136402 (2015).                      %
     %   T. Thonhauser et al., PRB 76, 125112 (2007).                       %
     %   K. Berland et al., Rep. Prog. Phys. 78, 066501 (2015).             %
     %   D.C. Langreth et al., J. Phys.: Condens. Matter 21, 084203 (2009). %
     %                                                                      %
     % If you are calculating stress with vdW-DF, please also cite:         %
     %                                                                      %
     %   R. Sabatini et al., J. Phys.: Condens. Matter 24, 424209 (2012).   %
     %                                                                      %
     %%%%%%%%%%%%%%%%%%%%%%%%%%%%%%%%%%%%%%%%%%%%%%%%%%%%%%%%%%%%%%%%%%%%%%%%

     %%%%%%%%%%%%%%%%%%%%%%%%%%%%%%%%%%%%%%%%%%%%%%%%%%%%%%%%%%%%%%%%%%%%%%%%
     %                                                                      %
     %  vdW-DF NEWS:                                                        %
     %                                                                      %
     %  * vdW-DF3 is now available. DOI: 10.1021/acs.jctc.0c00471           %
     %    use with input_dft = 'vdW-DF3-opt1' or 'vdW-DF3-opt2'             %
     %                                                                      %
     %  * Unscreened and range-separated vdW-DF hybrid functionals          %
     %    DOI: 10.1063/1.4986522 and 10.1088/1361-648X/ac2ad2               %
     %    use with input_dft = 'vdW-DF-cx0' (etc) and 'vdW-DF-ahcx'         %
     %                                                                      %
     %%%%%%%%%%%%%%%%%%%%%%%%%%%%%%%%%%%%%%%%%%%%%%%%%%%%%%%%%%%%%%%%%%%%%%%%


     Carrying out vdW-DF run using the following parameters:
     Nqs    =  20  Npoints =  1024  r_max =  100.000
     q_mesh =  0.00001000  0.04494208  0.09755937  0.15916263
               0.23128650  0.31572767  0.41458969  0.53033537
               0.66584808  0.82450364  1.01025438  1.22772762
               1.48234092  1.78043706  2.12944203  2.53805004
               3.01644009  3.57652955  4.23227104  5.00000000


     -----------------------------------------------
     Non-local corr. energy    =       8.65869212 Ry
     -----------------------------------------------

     Starting wfcs from file
     Checking if some PAW data can be deallocated... 
       PAW data deallocated on   15 nodes for type:  1
       PAW data deallocated on   12 nodes for type:  2

     total cpu time spent up to now is        6.4 secs

     Self-consistent Calculation

     iteration #  1     ecut=    70.00 Ry     beta= 0.70
     Davidson diagonalization with overlap

---- Real-time Memory Report at c_bands before calling an iterative solver
           260 MiB given to the printing process from OS
             0 MiB allocation reported by mallinfo(arena+hblkhd)
       1969088 MiB available memory on the node where the printing process lives
------------------
     ethr =  1.00E-05,  avg # of iterations =  1.0

     Threshold (ethr) on eigenvalues was too large:
     Diagonalizing with lowered threshold

     Davidson diagonalization with overlap

---- Real-time Memory Report at c_bands before calling an iterative solver
           312 MiB given to the printing process from OS
             0 MiB allocation reported by mallinfo(arena+hblkhd)
       1967699 MiB available memory on the node where the printing process lives
------------------
     ethr =  6.19E-13,  avg # of iterations = 12.0


     -----------------------------------------------
     Non-local corr. energy    =       8.65868858 Ry
     -----------------------------------------------


     total cpu time spent up to now is       27.7 secs

     End of self-consistent calculation

          k = 0.0000 0.0000 0.0000 ( 25781 PWs)   bands (ev):

    -7.1990  -6.9428  -6.9427  -6.9308  -6.8546  -6.6985  -6.6985  -6.6395
    -6.6395  -6.5814  -6.5023  -6.4513  -6.3636  -6.3636  -6.3478  -6.0313
    -6.0313  -5.9898  -5.9399  -5.9398  -5.8995  -5.8907  -5.8906  -5.8782
    -5.8511  -5.7561  -5.7561  -5.6873  -5.6824  -5.6824  -5.5632  -5.5632
    -5.5198  -5.5177  -5.5177  -5.3208  -5.3030  -5.3030  -5.2590  -5.2590
    -5.2382  -5.2382  -5.2263  -5.2263  -5.2076  -5.1986  -5.1986  -5.1929
    -5.1761  -5.1658  -5.1658  -5.1567  -5.1566  -5.1532  -5.1409  -5.1409
    -5.1275  -5.1173  -5.1173  -5.0733  -5.0733  -5.0623  -5.0623  -5.0589
    -5.0511  -5.0443  -5.0443  -5.0314  -5.0247  -5.0247  -5.0083  -5.0083
    -4.9897  -4.9897  -4.9878  -4.9824  -4.9338  -4.9338  -4.9162  -4.8984
    -4.8606  -4.8606  -4.8304  -3.9248  -3.9248  -3.7226  -3.5596  -3.5595
    -3.5337  -3.5244  -3.5244  -3.4124  -3.1420  -3.1420  -3.1273   1.7483
     2.0056   2.2829   2.2829   2.3486   2.4416   2.4689   2.4690   2.6921
     2.6922   3.2688   3.6364   3.6365   4.3649   4.6144   4.6144   4.6858
     5.3244   5.9247   6.0939   6.0939   6.4183   6.4183   6.5403   6.6591
     6.6591   6.6762   6.6788   6.7472   6.7480   6.7480   6.8679   6.8679
     7.0450   7.0451   7.5155   7.5156   7.6012   7.6942   7.8976   7.8977
     8.0496   8.0497   8.2103   8.5450   8.5451  10.5292  11.4794  12.3617
    12.4481  12.4482  12.6139  12.8873  13.0734  13.0786  13.0786  13.2728
    13.2728  13.5806  13.8045  13.8045  13.8840  14.4159  14.4160  15.0458
    15.0458  15.3692  15.9900  16.2260  16.2260  16.3918  16.5017  16.5017
    16.7653

     occupation numbers 
     1.0000   1.0000   1.0000   1.0000   1.0000   1.0000   1.0000   1.0000
     1.0000   1.0000   1.0000   1.0000   1.0000   1.0000   1.0000   1.0000
     1.0000   1.0000   1.0000   1.0000   1.0000   1.0000   1.0000   1.0000
     1.0000   1.0000   1.0000   1.0000   1.0000   1.0000   1.0000   1.0000
     1.0000   1.0000   1.0000   1.0000   1.0000   1.0000   1.0000   1.0000
     1.0000   1.0000   1.0000   1.0000   1.0000   1.0000   1.0000   1.0000
     1.0000   1.0000   1.0000   1.0000   1.0000   1.0000   1.0000   1.0000
     1.0000   1.0000   1.0000   1.0000   1.0000   1.0000   1.0000   1.0000
     1.0000   1.0000   1.0000   1.0000   1.0000   1.0000   1.0000   1.0000
     1.0000   1.0000   1.0000   1.0000   1.0000   1.0000   1.0000   1.0000
     1.0000   1.0000   1.0000   1.0000   1.0000   1.0000   1.0000   1.0000
     1.0000   1.0000   1.0000   1.0000   1.0000   1.0000   1.0000   1.0000
     1.0000   1.0000   1.0000   1.0000   1.0000   1.0000   1.0000   1.0000
     1.0000   1.0000   1.0000   1.0000   1.0000   1.0000   1.0000   1.0000
     1.0000   1.0000   1.0000   1.0000   1.0000   1.0000   1.0000   1.0000
     1.0000   1.0000   1.0000   1.0000   1.0000   1.0000   1.0000   1.0000
     1.0000   1.0000   1.0000   1.0000   1.0000   1.0000   1.0000   1.0000
     1.0000   1.0000   1.0000   1.0000   1.0000   0.0000   0.0000   0.0000
     0.0000   0.0000   0.0000   0.0000   0.0000   0.0000   0.0000   0.0000
     0.0000   0.0000   0.0000   0.0000   0.0000   0.0000   0.0000   0.0000
     0.0000   0.0000   0.0000   0.0000   0.0000   0.0000   0.0000   0.0000
     0.0000

          k = 0.0000 0.0000-0.3068 ( 25758 PWs)   bands (ev):

    -7.1605  -6.9783  -6.9422  -6.9421  -6.8581  -6.6908  -6.6908  -6.6482
    -6.6482  -6.5749  -6.5046  -6.4513  -6.3640  -6.3639  -6.3474  -6.0312
    -6.0312  -5.9895  -5.9394  -5.9394  -5.8979  -5.8906  -5.8906  -5.8782
    -5.8511  -5.7559  -5.7559  -5.6875  -5.6822  -5.6822  -5.5640  -5.5639
    -5.5231  -5.5176  -5.5176  -5.3081  -5.3019  -5.3019  -5.2581  -5.2581
    -5.2317  -5.2317  -5.2272  -5.2272  -5.2023  -5.2023  -5.2018  -5.1962
    -5.1946  -5.1694  -5.1694  -5.1563  -5.1542  -5.1542  -5.1502  -5.1502
    -5.1488  -5.1256  -5.1143  -5.1143  -5.0720  -5.0720  -5.0634  -5.0634
    -5.0595  -5.0487  -5.0435  -5.0435  -5.0314  -5.0216  -5.0215  -5.0086
    -5.0086  -4.9900  -4.9900  -4.9883  -4.9741  -4.9340  -4.9340  -4.9162
    -4.8606  -4.8606  -4.2679  -4.0429  -3.9219  -3.9218  -3.6379  -3.6379
    -3.5652  -3.4204  -3.4204  -3.4045  -3.1678  -3.1678  -3.1282   1.8534
     2.1143   2.2116   2.2116   2.4250   2.4250   2.5125   2.7648   2.9359
     3.0125   3.0126   3.2321   3.2322   3.2610   5.1945   5.3327   5.3328
     5.5522   5.5523   6.0300   6.0333   6.2175   6.2175   6.2846   6.3476
     6.4097   6.4097   6.8770   6.8770   6.9374   7.0493   7.1158   7.1158
     7.2109   7.2591   7.2592   7.4185   7.4414   7.4415   7.8048   7.8049
     8.1345   8.1345   8.2689   8.5228   8.5228  10.7425  11.4804  12.2495
    12.2837  12.2838  12.3963  12.6986  13.0097  13.0097  13.1923  13.5449
    13.5946  13.5946  13.8246  13.8247  13.8895  13.8895  14.2197  15.5538
    15.7505  15.9929  15.9929  16.0670  16.0670  16.2452  16.2988  16.2989
    16.7727

     occupation numbers 
     1.0000   1.0000   1.0000   1.0000   1.0000   1.0000   1.0000   1.0000
     1.0000   1.0000   1.0000   1.0000   1.0000   1.0000   1.0000   1.0000
     1.0000   1.0000   1.0000   1.0000   1.0000   1.0000   1.0000   1.0000
     1.0000   1.0000   1.0000   1.0000   1.0000   1.0000   1.0000   1.0000
     1.0000   1.0000   1.0000   1.0000   1.0000   1.0000   1.0000   1.0000
     1.0000   1.0000   1.0000   1.0000   1.0000   1.0000   1.0000   1.0000
     1.0000   1.0000   1.0000   1.0000   1.0000   1.0000   1.0000   1.0000
     1.0000   1.0000   1.0000   1.0000   1.0000   1.0000   1.0000   1.0000
     1.0000   1.0000   1.0000   1.0000   1.0000   1.0000   1.0000   1.0000
     1.0000   1.0000   1.0000   1.0000   1.0000   1.0000   1.0000   1.0000
     1.0000   1.0000   1.0000   1.0000   1.0000   1.0000   1.0000   1.0000
     1.0000   1.0000   1.0000   1.0000   1.0000   1.0000   1.0000   1.0000
     1.0000   1.0000   1.0000   1.0000   1.0000   1.0000   1.0000   1.0000
     1.0000   1.0000   1.0000   1.0000   1.0000   1.0000   1.0000   1.0000
     1.0000   1.0000   1.0000   1.0000   1.0000   1.0000   1.0000   1.0000
     1.0000   1.0000   1.0000   1.0000   1.0000   1.0000   1.0000   1.0000
     1.0000   1.0000   1.0000   1.0000   1.0000   1.0000   1.0000   1.0000
     1.0000   1.0000   1.0000   1.0000   1.0000   0.0000   0.0000   0.0000
     0.0000   0.0000   0.0000   0.0000   0.0000   0.0000   0.0000   0.0000
     0.0000   0.0000   0.0000   0.0000   0.0000   0.0000   0.0000   0.0000
     0.0000   0.0000   0.0000   0.0000   0.0000   0.0000   0.0000   0.0000
     0.0000

          k = 0.0000 0.2887 0.0000 ( 25764 PWs)   bands (ev):

    -7.1276  -6.9517  -6.9384  -6.8865  -6.8060  -6.7144  -6.6960  -6.6507
    -6.6344  -6.5563  -6.4912  -6.4473  -6.3750  -6.3600  -6.3467  -6.0356
    -6.0235  -5.9781  -5.9427  -5.9364  -5.8973  -5.8926  -5.8874  -5.8865
    -5.8551  -5.7561  -5.7556  -5.7058  -5.6735  -5.6734  -5.5850  -5.5723
    -5.5095  -5.5050  -5.4615  -5.3136  -5.3036  -5.3022  -5.2497  -5.2450
    -5.2403  -5.2349  -5.2201  -5.2128  -5.1994  -5.1963  -5.1914  -5.1903
    -5.1729  -5.1646  -5.1624  -5.1596  -5.1463  -5.1455  -5.1412  -5.1404
    -5.1255  -5.1183  -5.1154  -5.0921  -5.0828  -5.0768  -5.0752  -5.0695
    -5.0690  -5.0507  -5.0500  -5.0432  -5.0409  -5.0303  -5.0150  -5.0085
    -5.0085  -4.9948  -4.9903  -4.9842  -4.9519  -4.9444  -4.9321  -4.8778
    -4.8703  -4.7608  -4.7171  -4.3008  -3.9812  -3.8898  -3.8303  -3.6617
    -3.5656  -3.5438  -3.5358  -3.4533  -3.1383  -3.0571  -3.0202   1.9807
     2.3150   2.5172   2.5348   2.6104   2.7166   2.8441   2.9015   2.9197
     2.9419   3.4586   3.8304   3.8555   4.3733   4.5031   4.5981   4.6863
     5.2389   5.4940   5.6005   5.9406   5.9987   6.0348   6.1398   6.3086
     6.5466   6.5608   6.6053   6.6986   6.8362   6.8601   6.9197   6.9485
     7.0056   7.0481   7.1198   7.1393   7.1595   7.3362   7.3803   7.5351
     7.7660   7.8274   8.1053   8.3895   8.4115  11.2940  11.6413  11.8576
    12.3120  12.9200  13.2432  13.3843  13.4649  13.4909  13.6164  13.6818
    13.8541  13.9061  14.1443  14.3745  14.6250  14.8020  14.8261  15.2112
    15.2377  15.5359  16.0523  16.2595  16.3328  16.3943  16.4693  16.5251
    16.5633

     occupation numbers 
     1.0000   1.0000   1.0000   1.0000   1.0000   1.0000   1.0000   1.0000
     1.0000   1.0000   1.0000   1.0000   1.0000   1.0000   1.0000   1.0000
     1.0000   1.0000   1.0000   1.0000   1.0000   1.0000   1.0000   1.0000
     1.0000   1.0000   1.0000   1.0000   1.0000   1.0000   1.0000   1.0000
     1.0000   1.0000   1.0000   1.0000   1.0000   1.0000   1.0000   1.0000
     1.0000   1.0000   1.0000   1.0000   1.0000   1.0000   1.0000   1.0000
     1.0000   1.0000   1.0000   1.0000   1.0000   1.0000   1.0000   1.0000
     1.0000   1.0000   1.0000   1.0000   1.0000   1.0000   1.0000   1.0000
     1.0000   1.0000   1.0000   1.0000   1.0000   1.0000   1.0000   1.0000
     1.0000   1.0000   1.0000   1.0000   1.0000   1.0000   1.0000   1.0000
     1.0000   1.0000   1.0000   1.0000   1.0000   1.0000   1.0000   1.0000
     1.0000   1.0000   1.0000   1.0000   1.0000   1.0000   1.0000   1.0000
     1.0000   1.0000   1.0000   1.0000   1.0000   1.0000   1.0000   1.0000
     1.0000   1.0000   1.0000   1.0000   1.0000   1.0000   1.0000   1.0000
     1.0000   1.0000   1.0000   1.0000   1.0000   1.0000   1.0000   1.0000
     1.0000   1.0000   1.0000   1.0000   1.0000   1.0000   1.0000   1.0000
     1.0000   1.0000   1.0000   1.0000   1.0000   1.0000   1.0000   1.0000
     1.0000   1.0000   1.0000   1.0000   1.0000   0.0000   0.0000   0.0000
     0.0000   0.0000   0.0000   0.0000   0.0000   0.0000   0.0000   0.0000
     0.0000   0.0000   0.0000   0.0000   0.0000   0.0000   0.0000   0.0000
     0.0000   0.0000   0.0000   0.0000   0.0000   0.0000   0.0000   0.0000
     0.0000

          k = 0.0000 0.2887-0.3068 ( 25732 PWs)   bands (ev):

    -7.1038  -6.9500  -6.9378  -6.9008  -6.8234  -6.7050  -6.6887  -6.6617
    -6.6425  -6.5490  -6.4982  -6.4462  -6.3750  -6.3605  -6.3465  -6.0355
    -6.0235  -5.9778  -5.9422  -5.9360  -5.8972  -5.8926  -5.8865  -5.8863
    -5.8551  -5.7561  -5.7555  -5.7078  -5.6732  -5.6712  -5.5874  -5.5730
    -5.5093  -5.5060  -5.4595  -5.3083  -5.3026  -5.3006  -5.2499  -5.2435
    -5.2365  -5.2326  -5.2220  -5.2072  -5.2046  -5.1924  -5.1895  -5.1878
    -5.1800  -5.1621  -5.1609  -5.1567  -5.1545  -5.1498  -5.1440  -5.1421
    -5.1266  -5.1153  -5.1118  -5.0956  -5.0822  -5.0816  -5.0754  -5.0700
    -5.0696  -5.0509  -5.0506  -5.0478  -5.0422  -5.0378  -5.0282  -5.0148
    -5.0091  -4.9975  -4.9962  -4.9905  -4.9828  -4.9445  -4.9440  -4.9323
    -4.8736  -4.8704  -4.2921  -4.1370  -4.0996  -3.9691  -3.9167  -3.7007
    -3.6493  -3.5888  -3.3706  -3.3394  -3.2230  -3.1053  -3.0701   2.1684
     2.3167   2.4535   2.5284   2.6308   2.6482   2.8143   2.9752   3.1328
     3.2286   3.3658   3.4718   3.5002   3.7040   5.0356   5.1272   5.2363
     5.3074   5.3465   5.5898   5.7543   5.8251   5.9730   6.0361   6.2884
     6.3857   6.4734   6.5419   6.6344   6.6979   6.7977   6.8501   6.9510
     7.0741   7.0747   7.1943   7.2301   7.2607   7.3521   7.5197   7.5901
     7.7101   7.9380   7.9588   8.3533   8.5595  11.3123  11.5091  12.1450
    12.2135  12.6236  12.9206  13.2155  13.4343  13.5217  13.5726  13.7593
    13.9636  13.9858  14.2570  14.5285  14.6862  14.8417  14.9277  15.4686
    15.7658  15.8570  15.8717  15.9932  16.1024  16.2762  16.4109  16.4570
    16.5695

     occupation numbers 
     1.0000   1.0000   1.0000   1.0000   1.0000   1.0000   1.0000   1.0000
     1.0000   1.0000   1.0000   1.0000   1.0000   1.0000   1.0000   1.0000
     1.0000   1.0000   1.0000   1.0000   1.0000   1.0000   1.0000   1.0000
     1.0000   1.0000   1.0000   1.0000   1.0000   1.0000   1.0000   1.0000
     1.0000   1.0000   1.0000   1.0000   1.0000   1.0000   1.0000   1.0000
     1.0000   1.0000   1.0000   1.0000   1.0000   1.0000   1.0000   1.0000
     1.0000   1.0000   1.0000   1.0000   1.0000   1.0000   1.0000   1.0000
     1.0000   1.0000   1.0000   1.0000   1.0000   1.0000   1.0000   1.0000
     1.0000   1.0000   1.0000   1.0000   1.0000   1.0000   1.0000   1.0000
     1.0000   1.0000   1.0000   1.0000   1.0000   1.0000   1.0000   1.0000
     1.0000   1.0000   1.0000   1.0000   1.0000   1.0000   1.0000   1.0000
     1.0000   1.0000   1.0000   1.0000   1.0000   1.0000   1.0000   1.0000
     1.0000   1.0000   1.0000   1.0000   1.0000   1.0000   1.0000   1.0000
     1.0000   1.0000   1.0000   1.0000   1.0000   1.0000   1.0000   1.0000
     1.0000   1.0000   1.0000   1.0000   1.0000   1.0000   1.0000   1.0000
     1.0000   1.0000   1.0000   1.0000   1.0000   1.0000   1.0000   1.0000
     1.0000   1.0000   1.0000   1.0000   1.0000   1.0000   1.0000   1.0000
     1.0000   1.0000   1.0000   1.0000   1.0000   0.0000   0.0000   0.0000
     0.0000   0.0000   0.0000   0.0000   0.0000   0.0000   0.0000   0.0000
     0.0000   0.0000   0.0000   0.0000   0.0000   0.0000   0.0000   0.0000
     0.0000   0.0000   0.0000   0.0000   0.0000   0.0000   0.0000   0.0000
     0.0000

          k = 0.0000-0.5774 0.0000 ( 25772 PWs)   bands (ev):

    -7.0347  -6.9796  -6.9339  -6.8064  -6.7664  -6.7334  -6.6936  -6.6818
    -6.6291  -6.5385  -6.4623  -6.4298  -6.4123  -6.3564  -6.3438  -6.0400
    -6.0151  -5.9651  -5.9439  -5.9305  -5.9066  -5.9035  -5.8854  -5.8804
    -5.8596  -5.7563  -5.7551  -5.7214  -5.6629  -5.6611  -5.5949  -5.5824
    -5.5010  -5.4848  -5.4193  -5.3054  -5.3044  -5.3040  -5.2565  -5.2410
    -5.2224  -5.2194  -5.2090  -5.2044  -5.1974  -5.1899  -5.1887  -5.1730
    -5.1688  -5.1635  -5.1562  -5.1546  -5.1363  -5.1347  -5.1314  -5.1265
    -5.1208  -5.1164  -5.1145  -5.1034  -5.0931  -5.0910  -5.0868  -5.0785
    -5.0742  -5.0728  -5.0527  -5.0401  -5.0310  -5.0281  -5.0224  -5.0184
    -5.0136  -4.9960  -4.9898  -4.9639  -4.9603  -4.9548  -4.9488  -4.8882
    -4.8787  -4.8359  -4.4164  -4.3952  -4.3432  -4.2992  -4.0289  -3.6969
    -3.5713  -3.5563  -3.4659  -3.3706  -3.2881  -2.9876  -2.9782   2.2805
     2.4993   2.6637   2.8598   3.0033   3.0879   3.1294   3.1611   3.3815
     3.6345   3.9722   4.0762   4.1235   4.2212   4.7479   4.7526   4.8013
     4.8637   4.9564   5.1851   5.3979   5.4304   5.4763   5.5264   5.5965
     6.2544   6.5140   6.5317   6.5649   6.5763   6.6060   6.6452   6.6751
     6.9049   6.9281   7.0028   7.0550   7.0931   7.2642   7.2928   7.3976
     7.5993   7.9078   7.9231   8.1158   9.1281  10.4266  11.8757  12.1983
    12.7057  12.8658  13.3642  13.7028  13.9806  14.0133  14.2984  14.3536
    14.3853  14.5117  14.6580  14.7531  14.8484  15.2609  15.3821  15.7155
    15.9019  16.0255  16.0562  16.0708  16.2100  16.3129  16.3251  16.3778
    16.4456

     occupation numbers 
     1.0000   1.0000   1.0000   1.0000   1.0000   1.0000   1.0000   1.0000
     1.0000   1.0000   1.0000   1.0000   1.0000   1.0000   1.0000   1.0000
     1.0000   1.0000   1.0000   1.0000   1.0000   1.0000   1.0000   1.0000
     1.0000   1.0000   1.0000   1.0000   1.0000   1.0000   1.0000   1.0000
     1.0000   1.0000   1.0000   1.0000   1.0000   1.0000   1.0000   1.0000
     1.0000   1.0000   1.0000   1.0000   1.0000   1.0000   1.0000   1.0000
     1.0000   1.0000   1.0000   1.0000   1.0000   1.0000   1.0000   1.0000
     1.0000   1.0000   1.0000   1.0000   1.0000   1.0000   1.0000   1.0000
     1.0000   1.0000   1.0000   1.0000   1.0000   1.0000   1.0000   1.0000
     1.0000   1.0000   1.0000   1.0000   1.0000   1.0000   1.0000   1.0000
     1.0000   1.0000   1.0000   1.0000   1.0000   1.0000   1.0000   1.0000
     1.0000   1.0000   1.0000   1.0000   1.0000   1.0000   1.0000   1.0000
     1.0000   1.0000   1.0000   1.0000   1.0000   1.0000   1.0000   1.0000
     1.0000   1.0000   1.0000   1.0000   1.0000   1.0000   1.0000   1.0000
     1.0000   1.0000   1.0000   1.0000   1.0000   1.0000   1.0000   1.0000
     1.0000   1.0000   1.0000   1.0000   1.0000   1.0000   1.0000   1.0000
     1.0000   1.0000   1.0000   1.0000   1.0000   1.0000   1.0000   1.0000
     1.0000   1.0000   1.0000   1.0000   0.0487   0.0000   0.0000   0.0000
     0.0000   0.0000   0.0000   0.0000   0.0000   0.0000   0.0000   0.0000
     0.0000   0.0000   0.0000   0.0000   0.0000   0.0000   0.0000   0.0000
     0.0000   0.0000   0.0000   0.0000   0.0000   0.0000   0.0000   0.0000
     0.0000

          k = 0.0000-0.5774-0.3068 ( 25740 PWs)   bands (ev):

    -7.0291  -6.9745  -6.9334  -6.7879  -6.7625  -6.7489  -6.7016  -6.6866
    -6.6368  -6.5289  -6.4780  -6.4297  -6.4076  -6.3569  -6.3439  -6.0398
    -6.0151  -5.9648  -5.9434  -5.9302  -5.9066  -5.9035  -5.8854  -5.8798
    -5.8595  -5.7564  -5.7551  -5.7234  -5.6625  -5.6586  -5.5974  -5.5831
    -5.5009  -5.4842  -5.4204  -5.3052  -5.3047  -5.3031  -5.2570  -5.2403
    -5.2218  -5.2204  -5.2163  -5.2075  -5.2022  -5.1892  -5.1849  -5.1758
    -5.1627  -5.1605  -5.1543  -5.1542  -5.1394  -5.1347  -5.1287  -5.1266
    -5.1136  -5.1133  -5.1099  -5.1029  -5.0974  -5.0934  -5.0853  -5.0763
    -5.0748  -5.0735  -5.0518  -5.0450  -5.0305  -5.0272  -5.0210  -5.0145
    -5.0133  -4.9967  -4.9909  -4.9604  -4.9588  -4.9490  -4.9236  -4.8868
    -4.8789  -4.7450  -4.7296  -4.6976  -4.0074  -3.9261  -3.8264  -3.7497
    -3.7153  -3.5929  -3.5543  -3.3555  -3.3292  -3.0568  -3.0233   2.2852
     2.6195   2.8067   2.9123   2.9623   2.9724   3.1040   3.2640   3.3842
     3.4345   3.6830   3.7545   4.3285   4.7195   4.8012   4.8640   4.9347
     4.9845   5.0346   5.2089   5.3904   5.5539   5.5815   5.5990   5.7221
     5.7561   5.8145   6.1047   6.2899   6.3304   6.3470   6.6625   6.8820
     6.9967   7.0606   7.0876   7.2693   7.3160   7.3762   7.5141   7.6575
     7.7025   7.7474   7.9178   7.9855   9.1221  10.4890  11.8648  12.1297
    12.6955  12.8725  13.1268  13.3395  14.0810  14.3254  14.3950  14.4734
    14.4771  14.5035  14.7085  14.8754  15.0130  15.3358  15.3759  15.6303
    15.8939  15.9427  16.0670  16.1859  16.2757  16.3779  16.3897  16.4363
    16.4916

     occupation numbers 
     1.0000   1.0000   1.0000   1.0000   1.0000   1.0000   1.0000   1.0000
     1.0000   1.0000   1.0000   1.0000   1.0000   1.0000   1.0000   1.0000
     1.0000   1.0000   1.0000   1.0000   1.0000   1.0000   1.0000   1.0000
     1.0000   1.0000   1.0000   1.0000   1.0000   1.0000   1.0000   1.0000
     1.0000   1.0000   1.0000   1.0000   1.0000   1.0000   1.0000   1.0000
     1.0000   1.0000   1.0000   1.0000   1.0000   1.0000   1.0000   1.0000
     1.0000   1.0000   1.0000   1.0000   1.0000   1.0000   1.0000   1.0000
     1.0000   1.0000   1.0000   1.0000   1.0000   1.0000   1.0000   1.0000
     1.0000   1.0000   1.0000   1.0000   1.0000   1.0000   1.0000   1.0000
     1.0000   1.0000   1.0000   1.0000   1.0000   1.0000   1.0000   1.0000
     1.0000   1.0000   1.0000   1.0000   1.0000   1.0000   1.0000   1.0000
     1.0000   1.0000   1.0000   1.0000   1.0000   1.0000   1.0000   1.0000
     1.0000   1.0000   1.0000   1.0000   1.0000   1.0000   1.0000   1.0000
     1.0000   1.0000   1.0000   1.0000   1.0000   1.0000   1.0000   1.0000
     1.0000   1.0000   1.0000   1.0000   1.0000   1.0000   1.0000   1.0000
     1.0000   1.0000   1.0000   1.0000   1.0000   1.0000   1.0000   1.0000
     1.0000   1.0000   1.0000   1.0000   1.0000   1.0000   1.0000   1.0000
     1.0000   1.0000   1.0000   1.0000   0.0554   0.0000   0.0000   0.0000
     0.0000   0.0000   0.0000   0.0000   0.0000   0.0000   0.0000   0.0000
     0.0000   0.0000   0.0000   0.0000   0.0000   0.0000   0.0000   0.0000
     0.0000   0.0000   0.0000   0.0000   0.0000   0.0000   0.0000   0.0000
     0.0000

          k = 0.2500 0.4330 0.0000 ( 25702 PWs)   bands (ev):

    -7.0419  -6.9694  -6.9375  -6.8176  -6.7498  -6.7341  -6.7029  -6.6717
    -6.6336  -6.5392  -6.4652  -6.4336  -6.3873  -6.3800  -6.3376  -6.0351
    -6.0206  -5.9659  -5.9420  -5.9315  -5.9074  -5.9031  -5.8864  -5.8789
    -5.8597  -5.7563  -5.7549  -5.7213  -5.6654  -5.6586  -5.5928  -5.5871
    -5.5145  -5.4625  -5.4268  -5.3058  -5.3047  -5.3036  -5.2600  -5.2402
    -5.2264  -5.2154  -5.2128  -5.2054  -5.1966  -5.1878  -5.1838  -5.1794
    -5.1688  -5.1660  -5.1605  -5.1503  -5.1429  -5.1317  -5.1307  -5.1254
    -5.1218  -5.1156  -5.1080  -5.1017  -5.0949  -5.0921  -5.0879  -5.0813
    -5.0761  -5.0734  -5.0572  -5.0384  -5.0322  -5.0296  -5.0206  -5.0167
    -5.0131  -4.9947  -4.9931  -4.9887  -4.9632  -4.9512  -4.9495  -4.8904
    -4.8802  -4.6147  -4.5740  -4.5026  -4.3218  -4.0457  -4.0273  -3.9659
    -3.8564  -3.4348  -3.3041  -3.2575  -3.1836  -3.0815  -3.0073   2.2790
     2.5965   2.6309   2.7229   2.9253   3.0546   3.2190   3.4433   3.4868
     3.5350   3.6856   3.9953   4.1321   4.2093   4.4993   4.5532   4.7626
     4.8515   4.9321   5.2009   5.5278   5.6130   5.7876   5.9923   6.1168
     6.2089   6.3297   6.3733   6.4048   6.5425   6.5931   6.7068   6.8057
     6.8250   6.8418   7.0186   7.0750   7.1185   7.2935   7.3192   7.3834
     7.4512   7.4974   7.9434   7.9667   9.0684  10.8339  11.7305  11.9018
    12.5620  13.3209  13.6943  13.8700  13.8966  13.9817  14.1857  14.3382
    14.3993  14.4614  14.6800  14.7065  15.0650  15.2078  15.4304  15.6151
    15.8349  15.9791  16.0268  16.1105  16.1790  16.2457  16.2934  16.3756
    16.4481

     occupation numbers 
     1.0000   1.0000   1.0000   1.0000   1.0000   1.0000   1.0000   1.0000
     1.0000   1.0000   1.0000   1.0000   1.0000   1.0000   1.0000   1.0000
     1.0000   1.0000   1.0000   1.0000   1.0000   1.0000   1.0000   1.0000
     1.0000   1.0000   1.0000   1.0000   1.0000   1.0000   1.0000   1.0000
     1.0000   1.0000   1.0000   1.0000   1.0000   1.0000   1.0000   1.0000
     1.0000   1.0000   1.0000   1.0000   1.0000   1.0000   1.0000   1.0000
     1.0000   1.0000   1.0000   1.0000   1.0000   1.0000   1.0000   1.0000
     1.0000   1.0000   1.0000   1.0000   1.0000   1.0000   1.0000   1.0000
     1.0000   1.0000   1.0000   1.0000   1.0000   1.0000   1.0000   1.0000
     1.0000   1.0000   1.0000   1.0000   1.0000   1.0000   1.0000   1.0000
     1.0000   1.0000   1.0000   1.0000   1.0000   1.0000   1.0000   1.0000
     1.0000   1.0000   1.0000   1.0000   1.0000   1.0000   1.0000   1.0000
     1.0000   1.0000   1.0000   1.0000   1.0000   1.0000   1.0000   1.0000
     1.0000   1.0000   1.0000   1.0000   1.0000   1.0000   1.0000   1.0000
     1.0000   1.0000   1.0000   1.0000   1.0000   1.0000   1.0000   1.0000
     1.0000   1.0000   1.0000   1.0000   1.0000   1.0000   1.0000   1.0000
     1.0000   1.0000   1.0000   1.0000   1.0000   1.0000   1.0000   1.0000
     1.0000   1.0000   1.0000   1.0000   0.1501   0.0000   0.0000   0.0000
     0.0000   0.0000   0.0000   0.0000   0.0000   0.0000   0.0000   0.0000
     0.0000   0.0000   0.0000   0.0000   0.0000   0.0000   0.0000   0.0000
     0.0000   0.0000   0.0000   0.0000   0.0000   0.0000   0.0000   0.0000
     0.0000

          k = 0.2500 0.4330-0.3068 ( 25730 PWs)   bands (ev):

    -7.0339  -6.9669  -6.9365  -6.8021  -6.7680  -6.7290  -6.6943  -6.6866
    -6.6439  -6.5298  -6.4804  -6.4307  -6.3870  -6.3792  -6.3379  -6.0350
    -6.0205  -5.9657  -5.9415  -5.9311  -5.9074  -5.9030  -5.8864  -5.8784
    -5.8597  -5.7563  -5.7549  -5.7234  -5.6649  -5.6562  -5.5954  -5.5880
    -5.5141  -5.4625  -5.4267  -5.3056  -5.3050  -5.3028  -5.2603  -5.2399
    -5.2263  -5.2221  -5.2137  -5.2129  -5.1909  -5.1897  -5.1840  -5.1773
    -5.1647  -5.1613  -5.1581  -5.1497  -5.1472  -5.1328  -5.1295  -5.1243
    -5.1196  -5.1125  -5.1044  -5.1002  -5.0964  -5.0927  -5.0894  -5.0796
    -5.0757  -5.0724  -5.0558  -5.0375  -5.0370  -5.0296  -5.0191  -5.0154
    -4.9981  -4.9943  -4.9916  -4.9740  -4.9596  -4.9499  -4.9374  -4.8889
    -4.8850  -4.8452  -4.5752  -4.3583  -4.3104  -4.2839  -3.8679  -3.6838
    -3.6104  -3.5343  -3.3522  -3.3298  -3.2650  -3.2318  -3.0145   2.3233
     2.6290   2.7226   2.8839   3.0020   3.0447   3.1317   3.1881   3.2270
     3.5744   3.6832   4.1088   4.1857   4.2521   4.3476   4.4762   5.1088
     5.2017   5.2908   5.3581   5.4254   5.5747   5.7147   5.8431   5.9221
     5.9318   6.0599   6.1565   6.1644   6.2734   6.4993   6.6843   6.7768
     6.8938   6.9190   7.0405   7.2273   7.2703   7.3190   7.4967   7.5603
     7.6180   7.7110   7.7812   7.8995   9.0766  10.8637  11.6681  11.8950
    12.7694  13.0562  13.3879  13.5782  13.6433  14.1575  14.2753  14.4910
    14.6734  14.7040  14.9914  15.0629  15.2041  15.4367  15.5079  15.5399
    15.6544  15.6831  15.7866  15.9759  16.0764  16.2384  16.3201  16.4533
    16.5152

     occupation numbers 
     1.0000   1.0000   1.0000   1.0000   1.0000   1.0000   1.0000   1.0000
     1.0000   1.0000   1.0000   1.0000   1.0000   1.0000   1.0000   1.0000
     1.0000   1.0000   1.0000   1.0000   1.0000   1.0000   1.0000   1.0000
     1.0000   1.0000   1.0000   1.0000   1.0000   1.0000   1.0000   1.0000
     1.0000   1.0000   1.0000   1.0000   1.0000   1.0000   1.0000   1.0000
     1.0000   1.0000   1.0000   1.0000   1.0000   1.0000   1.0000   1.0000
     1.0000   1.0000   1.0000   1.0000   1.0000   1.0000   1.0000   1.0000
     1.0000   1.0000   1.0000   1.0000   1.0000   1.0000   1.0000   1.0000
     1.0000   1.0000   1.0000   1.0000   1.0000   1.0000   1.0000   1.0000
     1.0000   1.0000   1.0000   1.0000   1.0000   1.0000   1.0000   1.0000
     1.0000   1.0000   1.0000   1.0000   1.0000   1.0000   1.0000   1.0000
     1.0000   1.0000   1.0000   1.0000   1.0000   1.0000   1.0000   1.0000
     1.0000   1.0000   1.0000   1.0000   1.0000   1.0000   1.0000   1.0000
     1.0000   1.0000   1.0000   1.0000   1.0000   1.0000   1.0000   1.0000
     1.0000   1.0000   1.0000   1.0000   1.0000   1.0000   1.0000   1.0000
     1.0000   1.0000   1.0000   1.0000   1.0000   1.0000   1.0000   1.0000
     1.0000   1.0000   1.0000   1.0000   1.0000   1.0000   1.0000   1.0000
     1.0000   1.0000   1.0000   1.0000   0.1311   0.0000   0.0000   0.0000
     0.0000   0.0000   0.0000   0.0000   0.0000   0.0000   0.0000   0.0000
     0.0000   0.0000   0.0000   0.0000   0.0000   0.0000   0.0000   0.0000
     0.0000   0.0000   0.0000   0.0000   0.0000   0.0000   0.0000   0.0000
     0.0000

     the Fermi energy is     8.9687 ev

!    total energy              =   -4968.93125241 Ry
     total all-electron energy =    -63951.047803 Ry
     estimated scf accuracy    <          2.4E-09 Ry
     smearing contrib. (-TS)   =      -0.00146543 Ry
     internal energy E=F+TS    =   -4968.92978697 Ry

     The total energy is F=E-TS. E is the sum of the following terms:
     one-electron contribution =   -1564.29888020 Ry
     hartree contribution      =    1076.37150762 Ry
     xc contribution           =    -720.22351308 Ry
     ewald contribution        =   -1781.75983045 Ry
     one-center paw contrib.   =   -1979.01907087 Ry
      -> PAW hartree energy AE =     288.02874863 Ry
      -> PAW hartree energy PS =    -285.11132115 Ry
      -> PAW xc energy AE      =    -313.80771368 Ry
      -> PAW xc energy PS      =      79.37123219 Ry
      -> total E_H with PAW    =    1079.28893510 Ry
      -> total E_XC with PAW   =    -954.65999457 Ry

     convergence has been achieved in   1 iterations


     -----------------------------------------------
     Non-local corr. energy    =       8.65868858 Ry
     -----------------------------------------------


     Forces acting on atoms (cartesian axes, Ry/au):

     atom    1 type  1   force =     0.00000000    0.00000000   -0.00014175
     atom    2 type  1   force =     0.00000000    0.00000000    0.00024473
     atom    3 type  1   force =     0.00006417    0.00003705   -0.00001916
     atom    4 type  1   force =     0.00010954    0.00006325   -0.00006310
     atom    5 type  1   force =     0.00000000   -0.00007410   -0.00001916
     atom    6 type  1   force =     0.00000000   -0.00012649   -0.00006310
     atom    7 type  1   force =    -0.00006417    0.00003705   -0.00001916
     atom    8 type  1   force =    -0.00010954    0.00006325   -0.00006310
     atom    9 type  1   force =    -0.00032389    0.00018700    0.00012473
     atom   10 type  1   force =    -0.00024524    0.00014159    0.00023987
     atom   11 type  1   force =     0.00000000   -0.00037400    0.00012473
     atom   12 type  1   force =     0.00000000   -0.00028318    0.00023987
     atom   13 type  1   force =     0.00032389    0.00018700    0.00012473
     atom   14 type  1   force =     0.00024524    0.00014159    0.00023987
     atom   15 type  1   force =     0.00000000    0.00000000   -0.00022321
     atom   16 type  1   force =     0.00000000    0.00000000   -0.00012478
     atom   17 type  2   force =     0.00000000    0.00000000    0.00096412
     atom   18 type  2   force =    -0.00001223   -0.00000706   -0.00006099
     atom   19 type  2   force =     0.00012474    0.00007202   -0.00007653
     atom   20 type  2   force =     0.00000000    0.00001412   -0.00006099
     atom   21 type  2   force =     0.00000000   -0.00014404   -0.00007653
     atom   22 type  2   force =     0.00001223   -0.00000706   -0.00006099
     atom   23 type  2   force =    -0.00012474    0.00007202   -0.00007653
     atom   24 type  2   force =    -0.00022380    0.00012921   -0.00019416
     atom   25 type  2   force =    -0.00052487    0.00030304   -0.00014073
     atom   26 type  2   force =     0.00000000   -0.00025843   -0.00019416
     atom   27 type  2   force =     0.00000000   -0.00060607   -0.00014073
     atom   28 type  2   force =     0.00022380    0.00012921   -0.00019416
     atom   29 type  2   force =     0.00052487    0.00030304   -0.00014073
     atom   30 type  2   force =     0.00000000    0.00000000    0.00030576
     atom   31 type  2   force =     0.00000000    0.00000000   -0.00045466
     The non-local contrib.  to forces
     atom    1 type  1   force =     0.00000000   -0.00000000    0.28945020
     atom    2 type  1   force =     0.00000000    0.00000000   -0.03946427
     atom    3 type  1   force =    -0.04384750   -0.02531536    0.07426140
     atom    4 type  1   force =    -0.06051001   -0.03493547   -0.05868496
     atom    5 type  1   force =     0.00000000    0.05063073    0.07426140
     atom    6 type  1   force =     0.00000000    0.06987094   -0.05868496
     atom    7 type  1   force =     0.04384750   -0.02531536    0.07426140
     atom    8 type  1   force =     0.06051001   -0.03493547   -0.05868496
     atom    9 type  1   force =     0.25962619   -0.14989525   -0.22240459
     atom   10 type  1   force =     0.02113507   -0.01220234    0.11200948
     atom   11 type  1   force =     0.00000000    0.29979051   -0.22240459
     atom   12 type  1   force =     0.00000000    0.02440468    0.11200948
     atom   13 type  1   force =    -0.25962619   -0.14989525   -0.22240459
     atom   14 type  1   force =    -0.02113507   -0.01220234    0.11200948
     atom   15 type  1   force =     0.00000000    0.00000000   -0.11435930
     atom   16 type  1   force =     0.00000000    0.00000000    0.01516079
     atom   17 type  2   force =     0.00000000    0.00000000   -0.02788549
     atom   18 type  2   force =    -0.10914323   -0.06301387    0.15410515
     atom   19 type  2   force =    -0.02942404   -0.01698798   -0.02943469
     atom   20 type  2   force =    -0.00000000    0.12602775    0.15410515
     atom   21 type  2   force =     0.00000000    0.03397595   -0.02943469
     atom   22 type  2   force =     0.10914323   -0.06301387    0.15410515
     atom   23 type  2   force =     0.02942404   -0.01698798   -0.02943469
     atom   24 type  2   force =     0.13638893   -0.07874418    0.03217972
     atom   25 type  2   force =     0.00063529   -0.00036679   -0.13317037
     atom   26 type  2   force =     0.00000000    0.15748837    0.03217972
     atom   27 type  2   force =     0.00000000    0.00073357   -0.13317037
     atom   28 type  2   force =    -0.13638893   -0.07874418    0.03217972
     atom   29 type  2   force =    -0.00063529   -0.00036679   -0.13317037
     atom   30 type  2   force =     0.00000000   -0.00000000    0.05529238
     atom   31 type  2   force =     0.00000000    0.00000000   -0.02218330
     The ionic contribution  to forces
     atom    1 type  1   force =    -0.00004413    0.00002713   15.05243720
     atom    2 type  1   force =    -0.00003558    0.00002172   -6.16244981
     atom    3 type  1   force =    -0.23560604   -0.13599123    5.91398487
     atom    4 type  1   force =    -0.14480558   -0.08356804   -3.52059769
     atom    5 type  1   force =    -0.00002896    0.27203927    5.91398479
     atom    6 type  1   force =    -0.00002851    0.16719204   -3.52059797
     atom    7 type  1   force =     0.23553669   -0.13598453    5.91398167
     atom    8 type  1   force =     0.14473878   -0.08356233   -3.52059660
     atom    9 type  1   force =     9.44603881   -5.45367700   -6.63275404
     atom   10 type  1   force =    -0.24589794    0.14196621    1.98912104
     atom   11 type  1   force =     0.00005043   10.90735605   -6.63278538
     atom   12 type  1   force =     0.00003463   -0.28400085    1.98911406
     atom   13 type  1   force =    -9.44601993   -5.45372438   -6.63278375
     atom   14 type  1   force =     0.24596822    0.14196684    1.98911460
     atom   15 type  1   force =     0.00002544   -0.00001531   -3.62770245
     atom   16 type  1   force =     0.00003375   -0.00002055    2.08365734
     atom   17 type  2   force =    -0.00003124    0.00001944   -0.09794695
     atom   18 type  2   force =     0.81050252    0.46797108   -1.44620020
     atom   19 type  2   force =     0.14011501    0.08093268    0.27761836
     atom   20 type  2   force =    -0.00002220   -0.93589852   -1.44619968
     atom   21 type  2   force =    -0.00003033   -0.16180692    0.27761856
     atom   22 type  2   force =    -0.81056315    0.46798059   -1.44620551
     atom   23 type  2   force =    -0.14017626    0.08093310    0.27761880
     atom   24 type  2   force =    -0.23917764    0.13808694    2.83064524
     atom   25 type  2   force =     0.90254398   -0.52108625   -1.78719031
     atom   26 type  2   force =     0.00003115   -0.27624090    2.83065701
     atom   27 type  2   force =     0.00002978    1.04211800   -1.78719440
     atom   28 type  2   force =     0.23924568    0.13809032    2.83065628
     atom   29 type  2   force =    -0.90248685   -0.52108759   -1.78719444
     atom   30 type  2   force =     0.00003064   -0.00001906    1.76054325
     atom   31 type  2   force =     0.00002884   -0.00001791   -1.88235387
     The local contribution  to forces
     atom    1 type  1   force =    -0.00007678    0.00022852  -15.34013382
     atom    2 type  1   force =    -0.00007730    0.00024562    6.20024585
     atom    3 type  1   force =     0.27852936    0.16108505   -5.98667747
     atom    4 type  1   force =     0.20446103    0.11834444    3.57735429
     atom    5 type  1   force =    -0.00007874   -0.32145685   -5.98667796
     atom    6 type  1   force =    -0.00007135   -0.23593941    3.57735421
     atom    7 type  1   force =    -0.27867663    0.16110923   -5.98667705
     atom    8 type  1   force =    -0.20461584    0.11834398    3.57735422
     atom    9 type  1   force =    -9.70288822    5.60208149    6.85275611
     atom   10 type  1   force =     0.22594045   -0.13031622   -2.09939136
     atom   11 type  1   force =     0.00108065  -11.20576778    6.85278603
     atom   12 type  1   force =     0.00108739    0.25914067   -2.09938617
     atom   13 type  1   force =     9.70512300    5.60214979    6.85279484
     atom   14 type  1   force =    -0.22375491   -0.13031551   -2.09938512
     atom   15 type  1   force =     0.00110762   -0.00050046    3.73896005
     atom   16 type  1   force =     0.00109569   -0.00049518   -2.09909765
     atom   17 type  2   force =    -0.00001081    0.00002245    0.12616849
     atom   18 type  2   force =    -0.70319328   -0.40597104    1.29448240
     atom   19 type  2   force =    -0.11106642   -0.06409524   -0.24887476
     atom   20 type  2   force =    -0.00001300    0.81199016    1.29448081
     atom   21 type  2   force =    -0.00001036    0.12825857   -0.24887550
     atom   22 type  2   force =     0.70317809   -0.40595584    1.29448374
     atom   23 type  2   force =     0.11104468   -0.06409481   -0.24887427
     atom   24 type  2   force =     0.10486211   -0.06053213   -2.86260672
     atom   25 type  2   force =    -0.90357534    0.52169020    1.91797430
     atom   26 type  2   force =     0.00007929    0.12095140   -2.86261975
     atom   27 type  2   force =     0.00008500   -1.04349777    1.91798418
     atom   28 type  2   force =    -0.10470256   -0.06052606   -2.86262033
     atom   29 type  2   force =     0.90374896    0.52169139    1.91798577
     atom   30 type  2   force =     0.00008266   -0.00003737   -1.81474826
     atom   31 type  2   force =     0.00008705   -0.00003851    1.90361786
     The core correction contribution to forces
     atom    1 type  1   force =    -0.00000625    0.00001694   -0.00196159
     atom    2 type  1   force =    -0.00000627    0.00001825    0.00178472
     atom    3 type  1   force =     0.00088791    0.00053241   -0.00166448
     atom    4 type  1   force =     0.00086075    0.00051931    0.00173144
     atom    5 type  1   force =    -0.00000648   -0.00101339   -0.00166446
     atom    6 type  1   force =    -0.00000580   -0.00098326    0.00173143
     atom    7 type  1   force =    -0.00089972    0.00053511   -0.00166442
     atom    8 type  1   force =    -0.00087333    0.00051924    0.00173144
     atom    9 type  1   force =    -0.00188263    0.00109451    0.00250427
     atom   10 type  1   force =    -0.00019828    0.00012386   -0.00166943
     atom   11 type  1   force =     0.00008146   -0.00230554    0.00250415
     atom   12 type  1   force =     0.00008020   -0.00035850   -0.00166940
     atom   13 type  1   force =     0.00204282    0.00109744    0.00250433
     atom   14 type  1   force =     0.00035948    0.00012387   -0.00166939
     atom   15 type  1   force =     0.00008033   -0.00003677    0.00287132
     atom   16 type  1   force =     0.00008062   -0.00003669   -0.00001269
     atom   17 type  2   force =     0.00000024   -0.00000033    0.00049534
     atom   18 type  2   force =     0.00178727    0.00103134   -0.00250684
     atom   19 type  2   force =     0.00046348    0.00026711    0.00047881
     atom   20 type  2   force =     0.00000017   -0.00206380   -0.00250682
     atom   21 type  2   force =     0.00000024   -0.00053523    0.00047880
     atom   22 type  2   force =    -0.00178679    0.00103148   -0.00250685
     atom   23 type  2   force =    -0.00046300    0.00026711    0.00047882
     atom   24 type  2   force =    -0.00217173    0.00125371   -0.00050573
     atom   25 type  2   force =    -0.00000986    0.00000566    0.00213732
     atom   26 type  2   force =    -0.00000250   -0.00250399   -0.00050619
     atom   27 type  2   force =    -0.00000245   -0.00000733    0.00213745
     atom   28 type  2   force =     0.00216713    0.00125425   -0.00050598
     atom   29 type  2   force =     0.00000507    0.00000572    0.00213745
     atom   30 type  2   force =    -0.00000235    0.00000146   -0.00087960
     atom   31 type  2   force =    -0.00000235    0.00000131    0.00036681
     The Hubbard contrib.    to forces
     atom    1 type  1   force =     0.00000000    0.00000000    0.00000000
     atom    2 type  1   force =     0.00000000    0.00000000    0.00000000
     atom    3 type  1   force =     0.00000000    0.00000000    0.00000000
     atom    4 type  1   force =     0.00000000    0.00000000    0.00000000
     atom    5 type  1   force =     0.00000000    0.00000000    0.00000000
     atom    6 type  1   force =     0.00000000    0.00000000    0.00000000
     atom    7 type  1   force =     0.00000000    0.00000000    0.00000000
     atom    8 type  1   force =     0.00000000    0.00000000    0.00000000
     atom    9 type  1   force =     0.00000000    0.00000000    0.00000000
     atom   10 type  1   force =     0.00000000    0.00000000    0.00000000
     atom   11 type  1   force =     0.00000000    0.00000000    0.00000000
     atom   12 type  1   force =     0.00000000    0.00000000    0.00000000
     atom   13 type  1   force =     0.00000000    0.00000000    0.00000000
     atom   14 type  1   force =     0.00000000    0.00000000    0.00000000
     atom   15 type  1   force =     0.00000000    0.00000000    0.00000000
     atom   16 type  1   force =     0.00000000    0.00000000    0.00000000
     atom   17 type  2   force =     0.00000000    0.00000000    0.00000000
     atom   18 type  2   force =     0.00000000    0.00000000    0.00000000
     atom   19 type  2   force =     0.00000000    0.00000000    0.00000000
     atom   20 type  2   force =     0.00000000    0.00000000    0.00000000
     atom   21 type  2   force =     0.00000000    0.00000000    0.00000000
     atom   22 type  2   force =     0.00000000    0.00000000    0.00000000
     atom   23 type  2   force =     0.00000000    0.00000000    0.00000000
     atom   24 type  2   force =     0.00000000    0.00000000    0.00000000
     atom   25 type  2   force =     0.00000000    0.00000000    0.00000000
     atom   26 type  2   force =     0.00000000    0.00000000    0.00000000
     atom   27 type  2   force =     0.00000000    0.00000000    0.00000000
     atom   28 type  2   force =     0.00000000    0.00000000    0.00000000
     atom   29 type  2   force =     0.00000000    0.00000000    0.00000000
     atom   30 type  2   force =     0.00000000    0.00000000    0.00000000
     atom   31 type  2   force =     0.00000000    0.00000000    0.00000000
     The SCF correction term to forces
     atom    1 type  1   force =     0.00000000   -0.00000000   -0.00003171
     atom    2 type  1   force =     0.00000000   -0.00000000    0.00003027
     atom    3 type  1   force =    -0.00001172   -0.00000677   -0.00002036
     atom    4 type  1   force =    -0.00001634   -0.00000943    0.00003563
     atom    5 type  1   force =    -0.00000000    0.00001353   -0.00002036
     atom    6 type  1   force =    -0.00000000    0.00001886    0.00003563
     atom    7 type  1   force =     0.00001172   -0.00000677   -0.00002036
     atom    8 type  1   force =     0.00001634   -0.00000943    0.00003563
     atom    9 type  1   force =    -0.00001091    0.00000630   -0.00007751
     atom   10 type  1   force =    -0.00001915    0.00001106    0.00007281
     atom   11 type  1   force =     0.00000000   -0.00001260   -0.00007751
     atom   12 type  1   force =     0.00000000   -0.00002212    0.00007281
     atom   13 type  1   force =     0.00001091    0.00000630   -0.00007751
     atom   14 type  1   force =     0.00001915    0.00001106    0.00007281
     atom   15 type  1   force =     0.00000000   -0.00000000   -0.00009081
     atom   16 type  1   force =     0.00000000   -0.00000000    0.00006945
     atom   17 type  2   force =     0.00000000   -0.00000000    0.00003475
     atom   18 type  2   force =    -0.00000030   -0.00000017   -0.00003780
     atom   19 type  2   force =    -0.00000474   -0.00000274    0.00003765
     atom   20 type  2   force =    -0.00000000    0.00000034   -0.00003780
     atom   21 type  2   force =    -0.00000000    0.00000548    0.00003765
     atom   22 type  2   force =     0.00000030   -0.00000017   -0.00003780
     atom   23 type  2   force =     0.00000474   -0.00000274    0.00003765
     atom   24 type  2   force =    -0.00001080    0.00000623   -0.00000313
     atom   25 type  2   force =    -0.00000668    0.00000385    0.00000590
     atom   26 type  2   force =     0.00000000   -0.00001247   -0.00000313
     atom   27 type  2   force =    -0.00000000   -0.00000771    0.00000590
     atom   28 type  2   force =     0.00001080    0.00000623   -0.00000313
     atom   29 type  2   force =     0.00000668    0.00000385    0.00000590
     atom   30 type  2   force =     0.00000000   -0.00000000    0.00000002
     atom   31 type  2   force =    -0.00000000    0.00000000   -0.00000014

     Total force =     0.001974     Total SCF correction =     0.000261
     SCF correction compared to forces is large: reduce conv_thr to get better values


     Computing stress (Cartesian axis) and pressure



     -----------------------------------------------
     Non-local corr. energy    =       8.65868858 Ry
     -----------------------------------------------

          total   stress  (Ry/bohr**3)                   (kbar)     P=      -97.36
  -0.00066922  -0.00000000   0.00000000          -98.45       -0.00        0.00
   0.00000000  -0.00066922   0.00000000            0.00      -98.45        0.00
   0.00000000   0.00000000  -0.00064707            0.00        0.00      -95.19

     kinetic stress (kbar)  17765.39      0.00      0.00
                                0.00  17765.39     -0.00
                                0.00     -0.00  17746.96

     local   stress (kbar)   3599.13     -0.07      0.00
                               -0.07   3599.04     -0.00
                                0.00     -0.00   4187.49

     nonloc. stress (kbar)    226.35     -0.00      0.00
                               -0.00    226.35      0.00
                                0.00      0.00    246.57

     hartree stress (kbar)  20380.60     -0.00     -0.00
                               -0.00  20380.60      0.00
                               -0.00      0.00  20073.93

     exc-cor stress (kbar)   5313.52      0.00     -0.00
                                0.00   5313.52      0.00
                               -0.00      0.00   5312.26

     corecor stress (kbar) -14069.84     -0.00     -0.00
                               -0.00 -14069.84     -0.00
                               -0.00     -0.00 -14069.10

     ewald   stress (kbar) -33474.52      0.09     -0.00
                                0.09 -33474.40      0.00
                               -0.00      0.00 -33753.86

     hubbard stress (kbar)      0.00      0.00      0.00
                                0.00      0.00      0.00
                                0.00      0.00      0.00

     DFT-D   stress (kbar)      0.00      0.00      0.00
                                0.00      0.00      0.00
                                0.00      0.00      0.00

     XDM     stress (kbar)      0.00      0.00      0.00
                                0.00      0.00      0.00
                                0.00      0.00      0.00

     dft-nl  stress (kbar)    160.91     -0.00      0.00
                               -0.00    160.91     -0.00
                                0.00     -0.00    160.54

     TS-vdW  stress (kbar)      0.00      0.00      0.00
                                0.00      0.00      0.00
                                0.00      0.00      0.00

     MDB     stress (kbar)      0.00      0.00      0.00
                                0.00      0.00      0.00
                                0.00      0.00      0.00

     3D-RISM stress (kbar)      0.00      0.00      0.00
                                0.00      0.00      0.00
                                0.00      0.00      0.00



     -----------------------------------------------
     Non-local corr. energy    =       8.65868858 Ry
     -----------------------------------------------



     -----------------------------------------------
     Non-local corr. energy    =       8.65868858 Ry
     -----------------------------------------------



     -----------------------------------------------
     Non-local corr. energy    =       8.65868858 Ry
     -----------------------------------------------



     -----------------------------------------------
     Non-local corr. energy    =       8.65868858 Ry
     -----------------------------------------------



     -----------------------------------------------
     Non-local corr. energy    =       8.65868858 Ry
     -----------------------------------------------



     -----------------------------------------------
     Non-local corr. energy    =       8.65868858 Ry
     -----------------------------------------------



     -----------------------------------------------
     Non-local corr. energy    =       8.65868858 Ry
     -----------------------------------------------



     -----------------------------------------------
     Non-local corr. energy    =       8.65868858 Ry
     -----------------------------------------------



     -----------------------------------------------
     Non-local corr. energy    =       8.65868858 Ry
     -----------------------------------------------



     -----------------------------------------------
     Non-local corr. energy    =       8.65868858 Ry
     -----------------------------------------------



     -----------------------------------------------
     Non-local corr. energy    =       8.65868858 Ry
     -----------------------------------------------



     -----------------------------------------------
     Non-local corr. energy    =       8.65868858 Ry
     -----------------------------------------------



     -----------------------------------------------
     Non-local corr. energy    =       8.65868858 Ry
     -----------------------------------------------



     -----------------------------------------------
     Non-local corr. energy    =       8.65868858 Ry
     -----------------------------------------------



     -----------------------------------------------
     Non-local corr. energy    =       8.65868858 Ry
     -----------------------------------------------



     -----------------------------------------------
     Non-local corr. energy    =       8.65868858 Ry
     -----------------------------------------------



     -----------------------------------------------
     Non-local corr. energy    =       8.65868858 Ry
     -----------------------------------------------



     -----------------------------------------------
     Non-local corr. energy    =       8.65868858 Ry
     -----------------------------------------------



     -----------------------------------------------
     Non-local corr. energy    =       8.65868858 Ry
     -----------------------------------------------



     -----------------------------------------------
     Non-local corr. energy    =       8.65868858 Ry
     -----------------------------------------------



     -----------------------------------------------
     Non-local corr. energy    =       8.65868858 Ry
     -----------------------------------------------



     -----------------------------------------------
     Non-local corr. energy    =       8.65868858 Ry
     -----------------------------------------------



     -----------------------------------------------
     Non-local corr. energy    =       8.65868858 Ry
     -----------------------------------------------



     -----------------------------------------------
     Non-local corr. energy    =       8.65868858 Ry
     -----------------------------------------------



     -----------------------------------------------
     Non-local corr. energy    =       8.65868858 Ry
     -----------------------------------------------



     -----------------------------------------------
     Non-local corr. energy    =       8.65868858 Ry
     -----------------------------------------------



     -----------------------------------------------
     Non-local corr. energy    =       8.65868858 Ry
     -----------------------------------------------



     -----------------------------------------------
     Non-local corr. energy    =       8.65868858 Ry
     -----------------------------------------------



     -----------------------------------------------
     Non-local corr. energy    =       8.65868858 Ry
     -----------------------------------------------



     -----------------------------------------------
     Non-local corr. energy    =       8.65868858 Ry
     -----------------------------------------------



     -----------------------------------------------
     Non-local corr. energy    =       8.65868858 Ry
     -----------------------------------------------



     -----------------------------------------------
     Non-local corr. energy    =       8.65868858 Ry
     -----------------------------------------------



     -----------------------------------------------
     Non-local corr. energy    =       8.65868858 Ry
     -----------------------------------------------



     -----------------------------------------------
     Non-local corr. energy    =       8.65868858 Ry
     -----------------------------------------------

 BEEFens 2000 ensemble energies
             -0.693504141781122E+01
             -0.628132337001546E+02
             -0.271421858214004E+02
              0.220851736356487E+02
             -0.452785559526353E+02
             -0.581861609351076E+02
              0.298501515004878E+02
             -0.315503286451730E+01
              0.497940522618268E+02
             -0.217825482025526E+01
              0.245989442315940E+02
              0.990331597492201E+00
              0.950924567786359E+00
             -0.215636004018228E+01
              0.325865842601212E+02
             -0.237342205377986E+02
             -0.487783360472151E+02
             -0.160080511476666E+02
              0.119170208216412E+02
             -0.111361477100365E+01
              0.715167794377304E+02
              0.607340357326143E+02
             -0.348485346983915E+02
              0.125356626142456E+02
             -0.762724954990628E+02
              0.611537273061525E+02
              0.199699344071016E+02
              0.593541321369537E+02
              0.389782060321015E+02
             -0.188864930554831E+02
              0.143931152833559E+02
             -0.279824501550118E+02
              0.796075021371028E+01
              0.383151018651125E+02
              0.405589748184719E+02
             -0.147038610257088E+02
              0.899846741082085E+02
             -0.342338818413621E+02
             -0.246071143951932E+02
              0.361178717461833E+02
              0.161416302547955E+02
              0.270018465296648E+02
             -0.515006281910161E+02
             -0.140729440234099E+01
              0.504995789412380E+02
              0.657061315066060E+02
             -0.654419393202708E+02
              0.463245852097766E+01
              0.246172184680826E+02
              0.121223620494085E+02
              0.273367493028427E+02
              0.578402528564696E+02
             -0.349325221232047E+02
             -0.383528557934161E+02
             -0.498509478668699E+02
             -0.762097212242878E+01
             -0.455156183068367E+02
              0.448033201680107E+01
             -0.834541112941031E+01
             -0.353602878439876E+02
              0.574629723936054E+02
              0.563053096333048E+02
             -0.148411888663419E+02
             -0.403128403781021E+02
             -0.263115662855740E+02
              0.128568029175079E+01
              0.427189970742125E+02
             -0.710512247178391E+01
             -0.420115421142184E+02
              0.356818196970999E+02
             -0.716389815379621E+02
              0.602507563761675E+02
             -0.699742365995349E+02
             -0.317707149768944E+02
             -0.935619843852282E+01
             -0.654058319897180E+01
              0.147987854370285E+01
              0.512485792629470E+02
              0.282651603009102E+02
             -0.533747792343717E+02
             -0.666580358094688E+02
             -0.340378454326080E+02
             -0.255377228991086E+02
              0.464911001499587E+01
             -0.874411515645875E+01
             -0.233579147447628E+02
              0.350176285634834E+02
             -0.230840143240969E+02
              0.100912799489548E+03
             -0.454540415329029E+02
              0.927355371615080E+01
              0.140005118870084E+02
              0.160941913276191E+02
              0.381243502423615E+02
              0.258186260910697E+02
              0.246032542752665E+02
             -0.396158582812168E+02
              0.241777282792817E+02
              0.545699460037764E+01
              0.189884958796824E+00
              0.464094144484141E+02
             -0.568944214674666E+02
              0.921411637999527E+02
             -0.240442770886361E+02
             -0.102166105984586E+03
              0.448214114393411E+01
              0.842207377942748E+01
             -0.271835833382394E+02
             -0.518904819054633E+02
             -0.271487974034232E+02
             -0.212780576673083E+02
              0.160047662555712E+01
             -0.409440130634462E+02
              0.152986928479265E+01
              0.434162434520283E+01
              0.766819768721112E+01
              0.899281081920285E+02
              0.101425497354425E+02
             -0.509841797363459E+02
             -0.373829269092640E+02
             -0.103024190398568E+02
             -0.354938373155539E+02
              0.566308087091162E+02
             -0.420298783927400E+02
             -0.272837717984939E+01
             -0.814074373634440E+01
              0.788030782952626E+01
              0.335938333820847E+02
             -0.385814843429879E+02
             -0.775943217906546E+02
             -0.162403472752566E+02
             -0.152741467309172E+02
             -0.626661309455585E+01
              0.375539917625092E+02
             -0.670201440125470E+02
             -0.744672659421976E+02
             -0.101199251741406E+02
             -0.158336890861981E+02
             -0.156522652619614E+01
              0.204220721404809E+02
              0.454161834602325E+02
              0.210221923252558E+02
             -0.211781221284311E+02
             -0.248385184994784E+02
             -0.682619548474511E+02
             -0.573843538381550E+01
             -0.327306535022083E+02
             -0.214565974272459E+02
              0.572586965361003E+02
             -0.446063608434500E+02
             -0.167255410915870E+02
              0.555049440569934E+02
             -0.812083000996500E+01
             -0.157526335771162E+02
              0.919791659227457E+01
              0.218710832407692E+02
             -0.336072202095815E+02
              0.187806567036277E+02
              0.969436549644546E+01
              0.339956172535207E+02
             -0.333119042060610E+02
             -0.227330370758948E+02
              0.377315621740548E+02
             -0.104333856855618E+01
             -0.164917789984195E+02
             -0.114392190904699E+02
             -0.199275935804523E+02
             -0.252284791711417E+02
             -0.604996349691484E+02
             -0.713972249283640E+02
             -0.237955157298639E+02
             -0.266085888946202E+02
             -0.287214449781120E+02
[...]
              0.271749863226293E+02
              0.788199951692290E+00
              0.846602844291471E+02
              0.117263345148156E+02
             -0.122858258192477E+02
              0.464047546557867E+01
             -0.113439635296282E+02
              0.664834562432561E+02
             -0.532919332061510E+00
              0.128126234146189E+02
              0.461444856665267E+02
              0.123129991724426E+02
             -0.351300947353686E+02
             -0.569188068582977E+02
              0.324958571675620E+01
             -0.646920734982626E+02
              0.217056821605393E+02
             -0.112599055865992E+02
             -0.249807300032949E+02
              0.253337911654601E+02
              0.870270536765952E+01
              0.243375950963635E+02
              0.111217680897641E+01
              0.360810871028535E+02
             -0.611713540914136E+02
             -0.438139862917217E+01
             -0.537275485955570E+02
              0.118759683722474E+02
              0.294828421911547E+02
             -0.299527834580940E+01
             -0.197078191348466E+02
              0.440733610999760E+02
             -0.203406766939476E+02
              0.150830315564125E+02
             -0.129791725846762E+02
              0.349077350829004E+02
              0.368851887661372E+02
             -0.159045954348079E+02
              0.313866836592640E+02
              0.118015714258989E+02
             -0.317228032148038E+02
             -0.208162193241967E+02
              0.510576931227521E+02
              0.250379293061416E+02
             -0.226512395781437E+01
             -0.539809811394775E+01
              0.785464342898620E+02
              0.463846334351094E+02
              0.164796375731690E+02
             -0.494519047433040E+02
              0.793745415278822E+02
             -0.369539819604865E+02
             -0.456981062022056E+02
             -0.690263638485070E+02
              0.307137366874672E+02
             -0.620205546518214E+02
              0.279881375918083E+02
              0.452034427440084E+02
              0.322309250360797E+02
              0.808546376598968E+01
              0.213688335642576E+02
             -0.510353281547025E+02
             -0.183013951681679E+02
             -0.138983996547144E+02
              0.261034610430960E+02
              0.520714163208884E+02
              0.536433927031945E+02
              0.413375821196361E+02
             -0.952060732469090E+01
              0.132182148616322E+02
              0.845043412299930E+00
             -0.170637832532914E+02
              0.219885466646978E+02
              0.239448848795818E+02
             -0.302196979689210E+02
             -0.358888127238888E+02
             -0.142202000283781E+02
              0.371275006240028E+02
              0.177727151287026E+02
             -0.254740459222083E+02
             -0.392016617447528E+02
             -0.571440805798081E+02
              0.121298563768535E+01
              0.154245037983339E+02
             -0.215401014263210E+02
              0.799062452499045E+02
              0.387353246801445E+01
             -0.904110128031674E+02
              0.199572470844694E+02
              0.395382554408989E+02
             -0.181405883250509E+02
              0.209055498761765E+01
             -0.250778232109481E+02
              0.370371155609239E+02
              0.171471254670418E+02
             -0.473167840964045E+02
              0.563552418140284E+02
              0.172999942765591E+01
             -0.240684809146489E+02
             -0.286676908249754E+02
              0.112263210289610E+03
              0.499819948323975E+02
             -0.139645972974280E+02
              0.274627867792582E+02
             -0.490773586006316E+02
             -0.888803858391566E+01
             -0.497788384701010E+02
              0.199012614323923E+02
              0.339932557277428E+02
              0.402672810406046E+02
             -0.160052631030186E+02
              0.476971123281260E+01
              0.460069646026569E+02
              0.169392451388217E+02
              0.288610204537842E+02
              0.122832210874060E+02
             -0.820628385265042E+01
              0.131604618653401E+01
             -0.758475176717263E+01
              0.117228801721221E+02
              0.259432517571429E+01
             -0.419207944639753E+02
              0.637335654966768E+02
              0.255072120977746E+02
             -0.458635761339445E+02
             -0.341451031048529E+02
             -0.492844788134787E+02
             -0.232367087872354E+02
             -0.171618663834669E+02
             -0.380530216158698E+02
             -0.372736508399779E+02
              0.468432129086426E+02
              0.370404712782880E+02
             -0.456842393088283E+01
              0.540493966438692E+02
              0.102001767223137E+02
             -0.871936707926241E+02
              0.492955319270974E+02
              0.113428921959492E+02
              0.378627374193515E+02
              0.838991579711546E+01
              0.629773038032556E+01
              0.749766155345756E+01
              0.196872510304425E+02
             -0.362171251828056E+02
             -0.180476460043946E+02
             -0.332981179328057E+02
             -0.276940755781819E+02
              0.125459634959195E+02
             -0.315596136365922E+02
              0.148267795735740E+02
              0.195437172654643E+02
             -0.208627188155011E+02
             -0.110089134927170E+02
             -0.907255305708929E+00
              0.539474437431912E+02
              0.867442166815280E+01
              0.534368903406214E+02
              0.191373472545901E+02
             -0.690761715105243E+02
             -0.234564151237263E+02
              0.236716955037478E+02
              0.533428020665743E+02
              0.101222564838178E+02
              0.208312292099540E+02
              0.501548936785445E+02
             -0.291126902601983E+02
             -0.473411433464138E+02
              0.615094682225607E+02
              0.111911083854466E+01
             -0.652198708212661E+02
              0.218508351226601E+02
              0.430957567678075E+02
             -0.100074951453417E+02
             -0.409410586082532E+02
              0.737221882495641E+01
              0.260462492469810E+01
             -0.224023335438616E+02
              0.804347646822998E+01
             -0.688059385613661E+01
              0.962437359821645E+02
              0.265741039103564E+02
             -0.440843200357120E+02
              0.133527730740417E+02
              0.617687647271844E+02
             -0.396478959827092E+02
             -0.104679498597078E+02
             -0.350175742048712E+02
              0.280771466356828E+02
              0.118436834959110E+02
              0.186749593199501E+02
              0.146995710099546E+01
              0.694180697863176E+02
             -0.387278266728083E+02
             -0.293802883957694E+02
             -0.324913659200024E+02
              0.278993604381355E+02
              0.667808445148888E+02
             -0.852627709574625E+01
              0.275426480940950E+02
             -0.373945830922551E+02
              0.381290981349628E+01
             -0.110711421826296E+02
             -0.357452946368414E+01
             -0.158549877699337E+02
             -0.145503601951910E+02
             -0.107609035844300E+02
              0.114313324161853E+02
              0.195345487329081E+02
             -0.447658788048190E+02
              0.325591491602941E+02
             -0.525950729151842E+02
              0.392812145016356E+02
             -0.454457475978923E+02
              0.688792901106195E+02
              0.367546715816679E+02
              0.410837516119964E+02
              0.944168425079647E+01
              0.106427158405905E+02
             -0.925244647401592E+02
              0.157783697353187E+02
              0.420157980321164E+01
              0.735035669152307E+01
             -0.138280937728140E+02
              0.721160084599053E+02
             -0.217649872986913E+02
             -0.285019320741071E+02
             -0.713142924851417E+02
             -0.236920413670845E+02
             -0.324360280336640E+02
             -0.287351279503257E+02
             -0.790160607664558E+01
             -0.150705401512099E+02
             -0.199697691274448E+02
             -0.299281329389538E+02
              0.222574495282443E+02
              0.738883401559670E+02
              0.630373166762233E+02
             -0.123857290027047E+02
             -0.772726601019389E+02
             -0.325243627172994E+02
              0.148109382027226E+02
              0.165855486644401E+02
              0.239949858103099E+02
              0.185580594042669E+02
              0.600572750024668E+01
              0.716425357840104E+02
             -0.177414217296060E+02
              0.362801999397681E+02
              0.167624539890202E+02
             -0.233909120599002E+02
             -0.147069528448590E+02
              0.330786166128792E+02
             -0.192432959859161E+02
             -0.135668795455403E+02
             -0.884025694268340E+01
              0.412870052503217E+02
             -0.554304471014201E+02
             -0.595421423149713E+01
             -0.453685758586017E+02
             -0.980592436076768E+02
              0.302871873290940E+00
             -0.121919238383901E+02
              0.336404409647096E+02
              0.400668038257202E+02
              0.548987807641498E+02
             -0.361086864979978E+02
              0.587767168694851E+02
              0.154354663181435E+02
             -0.176805581934948E+02
              0.105799597419953E+02
             -0.185213472294333E+02
             -0.130919491322625E+02
              0.299672242326312E+02
             -0.291039564906901E+02
              0.709283207459514E+02
             -0.181892378585436E+02
             -0.379713577459399E+02
              0.722350136843035E+02
             -0.405995561796595E+02
             -0.600010817708068E+01
              0.735976143890196E+01
              0.223990164998072E+02
             -0.330979014471345E+02
             -0.247927707636525E+02
              0.376947907782392E+02
             -0.610848757263413E+02
              0.448955044055447E+02
              0.581710924998834E+01
              0.350558052971140E+02
              0.486476725636762E+02
              0.123999983187049E+02
             -0.641587055211501E+02
             -0.282320586570907E+02
             -0.472916365577350E+02
             -0.296252306153574E+02
             -0.959575341953217E+01
              0.117230576834918E+02
             -0.222597509414973E+02
              0.151426252087060E+01
             -0.717102679679697E+02
              0.178300953969423E+01
             -0.454406828160041E+02
              0.446172856919559E+02
             -0.240759536125492E+02
             -0.468785889913818E+01
              0.321264531496146E+02
              0.343892043582614E+01
              0.318991178149332E+02
             -0.574012988790701E+02
              0.125922005014136E+02
              0.386488511656250E+01
              0.231654961785952E+02
              0.413865498702174E+02
             -0.729919833669740E+01
             -0.453075723369752E+02
             -0.259903935496305E+02
             -0.178338057871989E+02
             -0.864251993301298E+01
              0.427861821661203E+02
              0.263676214861603E+02
             -0.276106782324231E+02
             -0.250221784397922E+02
              0.206834949506402E+02
              0.203064217539346E+02
             -0.563458032981429E+02
              0.157125378108472E+02
              0.412531352104535E+02
             -0.205507889474726E+01
              0.484355573190778E+02
              0.244652045102451E+02
              0.386913379085423E+02
              0.588578324146320E+02
              0.975063874582597E+01
             -0.820443718179881E+02
              0.844368137009991E+01
              0.910611761265477E+02
              0.655957323888830E+02
             -0.439556918940419E+02
              0.440560777903422E+01
              0.571656473632902E+02
              0.518888733799441E+02
              0.247514875156255E+02
             -0.130618275830205E+02
              0.236740490531177E+02
              0.495563286424340E+02
             -0.222002143176585E+02
             -0.159263737699569E+02
              0.309808042695074E+02
             -0.216243630620849E+01
              0.292078717876506E+02
             -0.730706104244592E+01
              0.599275046428594E+02
             -0.228963017222640E+02
              0.138128236162676E+02
             -0.278506833640667E+02
              0.282627271541522E+02
             -0.375050271457496E+01
              0.447643435183245E+02
              0.316118770050758E+01
              0.178047503136191E+02
             -0.296867809097849E+02
             -0.182351309416715E+02
             -0.860940154086023E+01
             -0.747717154836938E+01
              0.469164446953133E+02
              0.195476296805373E+02
              0.601844842911060E+02
              0.503703209467317E+02
              0.112772834998749E+02
              0.408489363363230E+00
              0.589148756896982E+02
              0.310039532200171E+02
              0.865225212601217E+00
              0.523164966809087E+02
             -0.469404581638393E+02
              0.153464974810902E+02
             -0.296188800534906E+02
             -0.116560310631153E+02
              0.754630748472836E+02
             -0.115159680868144E+02
             -0.591847828731318E+00
             -0.990129467837536E+01
              0.627384177580998E+02
             -0.145794933983804E+02
             -0.171877933052542E+01
              0.126480831823375E+03
             -0.408274437835822E+02
             -0.437844153939114E+02
             -0.457813835854419E+02
             -0.268614971761077E+02
              0.267277523322246E+02
             -0.114008193451510E+02
              0.734597006374224E+01
             -0.235521346545568E+01
              0.160838484101086E+02
              0.261012001208823E+02
              0.301968081472194E+02
              0.441532410958008E+02
              0.245005269522005E+02
              0.309287373270330E+02
             -0.501525082971827E+02
             -0.481862340283351E+02
             -0.120948748035354E+02
             -0.471336399202915E+02
              0.753324607701806E+02
              0.645720366439242E+02
              0.309060659418124E+02
              0.836774165047241E+02
             -0.435431689362324E+02
             -0.176756442470423E+02
             -0.247090663201890E+02
              0.693027801448123E+02
 
 BEEF-vdW xc energy contributions
            1 :    -633.6710049394123     
            2 :     570.6193032747168     
            3 :    -465.2079337999151     
            4 :     348.5811861203474     
            5 :    -247.9180510307076     
            6 :     176.0200277682920     
            7 :    -130.0370812370983     
            8 :     98.49754236178296     
            9 :    -70.98863157047344     
           10 :     44.17069105578207     
           11 :    -21.27060884627986     
           12 :     6.984339068447412     
           13 :    -2.430441838618208     
           14 :     3.870302898321142     
           15 :    -5.515734122737513     
           16 :     3.653437820183171     
           17 :     1.270540800816889     
           18 :    -5.950579489472830     
           19 :     7.479652498750283     
           20 :    -5.802277703937079     
           21 :     3.547021740349237     
           22 :    -3.672692185234837     
           23 :     7.032341233581519     
           24 :    -11.81068985795935     
           25 :     15.12047261740918     
           26 :    -15.30713894847531     
           27 :     13.08052160189550     
           28 :    -10.68751345752617     
           29 :     9.960694849421543     
           30 :    -10.89570276465827     
           31 :    -54.01245283578010     
           32 :    -36.95354625124287     

     Writing all to output data dir ./GaN.save/
 
     init_run     :      2.95s CPU      5.74s WALL (       1 calls)
     electrons    :     20.93s CPU     21.41s WALL (       1 calls)
     forces       :      1.36s CPU      1.37s WALL (       1 calls)
     stress       :      5.31s CPU      5.37s WALL (       1 calls)

     Called by init_run:
     wfcinit      :      1.02s CPU      3.70s WALL (       1 calls)
     potinit      :      1.47s CPU      1.54s WALL (       1 calls)
     hinit0       :      0.30s CPU      0.32s WALL (       1 calls)

     Called by electrons:
     c_bands      :     18.89s CPU     19.26s WALL (       2 calls)
     sum_band     :      1.37s CPU      1.41s WALL (       2 calls)
     v_of_rho     :      1.24s CPU      1.27s WALL (       2 calls)
     v_h          :      0.00s CPU      0.00s WALL (       2 calls)
     v_xc         :      7.59s CPU      7.69s WALL (      38 calls)
     newd         :      0.09s CPU      0.11s WALL (       2 calls)
     PAW_pot      :      0.81s CPU      0.82s WALL (       2 calls)
     mix_rho      :      0.00s CPU      0.00s WALL (       2 calls)
     vdW_kernel   :      0.85s CPU      0.86s WALL (       1 calls)

     Called by c_bands:
     init_us_2    :      0.18s CPU      0.18s WALL (      48 calls)
     init_us_2:cp :      0.18s CPU      0.18s WALL (      48 calls)
     cegterg      :     18.55s CPU     18.71s WALL (      16 calls)

     Called by sum_band:
     sum_band:wei :      0.00s CPU      0.00s WALL (       2 calls)
     sum_band:loo :      1.21s CPU      1.23s WALL (       2 calls)
     sum_band:buf :      0.04s CPU      0.05s WALL (      16 calls)
     sum_band:ini :      0.05s CPU      0.05s WALL (      16 calls)
     sum_band:cal :      0.27s CPU      0.27s WALL (      16 calls)
     sum_band:bec :      0.01s CPU      0.01s WALL (      16 calls)
     addusdens    :      0.14s CPU      0.15s WALL (       2 calls)
     addusd:skk   :      0.01s CPU      0.01s WALL (       4 calls)
     addusd:dgemm :      0.09s CPU      0.10s WALL (       4 calls)
     addusd:qvan2 :      0.04s CPU      0.04s WALL (       4 calls)

     Called by *egterg:
     cdiaghg      :      9.59s CPU      9.64s WALL (     104 calls)
     cegterg:over :      1.05s CPU      1.06s WALL (     104 calls)
     cegterg:upda :      0.87s CPU      0.88s WALL (     104 calls)
     cegterg:last :      0.25s CPU      0.25s WALL (      16 calls)
     h_psi        :      5.61s CPU      5.69s WALL (     120 calls)
     s_psi        :      0.70s CPU      0.70s WALL (     120 calls)
     g_psi        :      0.01s CPU      0.01s WALL (     104 calls)

     Called by h_psi:
     h_psi:calbec :      0.88s CPU      0.88s WALL (     120 calls)
     vloc_psi     :      3.99s CPU      4.05s WALL (     120 calls)
     add_vuspsi   :      0.68s CPU      0.69s WALL (     120 calls)

     General routines
     calbec       :      2.17s CPU      2.18s WALL (     176 calls)
     fft          :      3.01s CPU      3.06s WALL (    2232 calls)
     ffts         :      0.01s CPU      0.01s WALL (       4 calls)
     fftw         :      4.55s CPU      4.61s WALL (   16220 calls)
     interpolate  :      0.01s CPU      0.01s WALL (       2 calls)
 
     Parallel routines

     PAW routines
     PAW_pot      :      0.81s CPU      0.82s WALL (       2 calls)
     PAW_symme    :      0.00s CPU      0.00s WALL (       3 calls)
 
     PWSCF        :     37.64s CPU     42.63s WALL

 
   This run was terminated on:   6:26:26  28Mar2024            

=------------------------------------------------------------------------------=
   JOB DONE.
=------------------------------------------------------------------------------=
