
     Program PWSCF v.7.1 starts on 27Mar2024 at  9:49:37 

     This program is part of the open-source Quantum ESPRESSO suite
     for quantum simulation of materials; please cite
         "P. Giannozzi et al., J. Phys.:Condens. Matter 21 395502 (2009);
         "P. Giannozzi et al., J. Phys.:Condens. Matter 29 465901 (2017);
         "P. Giannozzi et al., J. Chem. Phys. 152 154105 (2020);
          URL http://www.quantum-espresso.org", 
     in publications or presentations arising from this work. More details at
     http://www.quantum-espresso.org/quote

     Parallel version (MPI & OpenMP), running on     128 processor cores
     Number of MPI processes:               128
     Threads/MPI process:                     1

     MPI processes distributed on     1 nodes
     1949573 MiB available memory on the printing compute node when the environment starts
 
     Reading input from espresso.pwi
Warning: card &CELL ignored
Warning: card    CELL_DYNAMICS    = 'BFGS' ignored
Warning: card / ignored

     Current dimensions of program PWSCF are:
     Max number of different atomic species (ntypx) = 10
     Max number of k-points (npk) =  40000
     Max angular momentum in pseudopotentials (lmaxx) =  4
     file Pb.pbe-dn-kjpaw_psl.1.0.0.UPF: wavefunction(s)  6S 6P 5D renormalized
     file I.pbe-dn-kjpaw_psl.1.0.0.UPF: wavefunction(s)  5S 5P renormalized

     **************************************************************************
     Initializing libbeef V0.1.2 with the BEEF-vdW functional.
     Citation: Wellendorff et al., PRB 85, 235149 (2012).
     **************************************************************************


     IMPORTANT: XC functional enforced from input :
     Exchange-correlation= BEEF-VDW
                           (   1   4  43  14   2   0   0)
     Any further DFT definition will be discarded
     Please, verify this is what you really want

 
     R & G space division:  proc/nbgrp/npool/nimage =     128
     Subspace diagonalization in iterative solution of the eigenvalue problem:
     a serial algorithm will be used

 
     Parallelization info
     --------------------
     sticks:   dense  smooth     PW     G-vecs:    dense   smooth      PW
     Min         238     190     47                39674    28384    3543
     Max         239     191     48                39685    28397    3554
     Sum       30589   24439   6121              5079105  3634441  454335
 
     Using Slab Decomposition
 


     bravais-lattice index     =            4
     lattice parameter (alat)  =      35.6120  a.u.
     unit-cell volume          =   45937.3577 (a.u.)^3
     number of atoms/cell      =          144
     number of atomic types    =            2
     number of electrons       =      2304.00
     number of Kohn-Sham states=         1382
     kinetic-energy cutoff     =      70.0000  Ry
     charge density cutoff     =     350.0000  Ry
     scf convergence threshold =      1.0E-07
     mixing beta               =       0.7000
     number of iterations used =            8  plain     mixing
     energy convergence thresh.=      1.0E-04
     force convergence thresh. =      1.0E-03
     Exchange-correlation= BEEF-VDW
                           (   1   4  43  14   2   0   0)
     nstep                     =           50


     celldm(1)=  35.612033  celldm(2)=   0.000000  celldm(3)=   1.174479
     celldm(4)=   0.000000  celldm(5)=   0.000000  celldm(6)=   0.000000

     crystal axes: (cart. coord. in units of alat)
               a(1) = (   1.000000   0.000000   0.000000 )  
               a(2) = (  -0.500000   0.866025   0.000000 )  
               a(3) = (   0.000000   0.000000   1.174479 )  

     reciprocal axes: (cart. coord. in units 2 pi/alat)
               b(1) = (  1.000000  0.577350 -0.000000 )  
               b(2) = (  0.000000  1.154701  0.000000 )  
               b(3) = (  0.000000 -0.000000  0.851442 )  


     PseudoPot. # 1 for Pb read from file:
     /trace/group/acmegroup/atimmins/packages/espresso/pseudo/psl_1.0.0/pslibrary.1.0.0/pbe/PSEUDOPOTENTIALS/Pb.pbe-dn-kjpaw_psl.1.0.0.UPF
     MD5 check sum: 39ab5b8a6bbd56b7735ad9f188aac93a
     Pseudo is Projector augmented-wave + core cor, Zval = 14.0
     Generated using 'atomic' code by A. Dal Corso  v.7.1
     Shape of augmentation charge: PSQ
     Using radial grid of 1281 points,  6 beta functions with: 
                l(1) =   0
                l(2) =   0
                l(3) =   1
                l(4) =   1
                l(5) =   2
                l(6) =   2
     Q(r) pseudized with 0 coefficients 


     PseudoPot. # 2 for I  read from file:
     /trace/group/acmegroup/atimmins/packages/espresso/pseudo/psl_1.0.0/pslibrary.1.0.0/pbe/PSEUDOPOTENTIALS/I.pbe-dn-kjpaw_psl.1.0.0.UPF
     MD5 check sum: bfa8781bc1224d19af3f3980e3fab11e
     Pseudo is Projector augmented-wave + core cor, Zval = 17.0
     Generated using 'atomic' code by A. Dal Corso  v.7.1
     Shape of augmentation charge: PSQ
     Using radial grid of 1247 points,  6 beta functions with: 
                l(1) =   0
                l(2) =   0
                l(3) =   1
                l(4) =   1
                l(5) =   2
                l(6) =   2
     Q(r) pseudized with 0 coefficients 


     atomic species   valence    mass     pseudopotential
        Pb            14.00   207.20000     Pb( 1.00)
        I             17.00   126.90447     I ( 1.00)

     No symmetry found


                                    s                        frac. trans.

      isym =  1     identity                                     

 cryst.   s( 1) = (     1          0          0      )
                  (     0          1          0      )
                  (     0          0          1      )

 cart.    s( 1) = (  1.0000000  0.0000000  0.0000000 )
                  (  0.0000000  1.0000000  0.0000000 )
                  (  0.0000000  0.0000000  1.0000000 )


     point group C_1 (1)    
     there are  1 classes
     the character table:

       E    
A      1.00

     the symmetry operations in each class and the name of the first element:

     E        1
          identity                                               

   Cartesian axes

     site n.     atom                  positions (alat units)
         1           Pb  tau(   1) = (   0.1250034   0.2164918   0.3914896  )
         2           Pb  tau(   2) = (   0.1250085   0.2164873   0.7829825  )
         3           Pb  tau(   3) = (   0.0000128   0.4329881   1.1744712  )
         4           Pb  tau(   4) = (   0.0000026   0.4329971   0.3914855  )
         5           Pb  tau(   5) = (   0.0000077   0.4329926   0.7829784  )
         6           Pb  tau(   6) = (  -0.1249881   0.6494934   1.1744671  )
         7           Pb  tau(   7) = (  -0.1249983   0.6495025   0.3914814  )
         8           Pb  tau(   8) = (  -0.1249932   0.6494980   0.7829742  )
         9           Pb  tau(   9) = (  -0.2499889   0.8659988   1.1744630  )
        10           Pb  tau(  10) = (  -0.2499991   0.8660078   0.3914773  )
        11           Pb  tau(  11) = (  -0.2499940   0.8660033   0.7829701  )
        12           Pb  tau(  12) = (   0.3750136   0.2164818   1.1744786  )
        13           Pb  tau(  13) = (   0.3750034   0.2164908   0.3914929  )
        14           Pb  tau(  14) = (   0.3750085   0.2164863   0.7829857  )
        15           Pb  tau(  15) = (   0.2500128   0.4329871   1.1744745  )
        16           Pb  tau(  16) = (   0.2500026   0.4329962   0.3914888  )
        17           Pb  tau(  17) = (   0.2500077   0.4329916   0.7829816  )
        18           Pb  tau(  18) = (   0.1250119   0.6494925   1.1744703  )
        19           Pb  tau(  19) = (   0.1250017   0.6495015   0.3914847  )
        20           Pb  tau(  20) = (   0.1250068   0.6494970   0.7829775  )
        21           Pb  tau(  21) = (   0.0000111   0.8659978   1.1744662  )
        22           Pb  tau(  22) = (   0.0000009   0.8660069   0.3914805  )
        23           Pb  tau(  23) = (   0.0000060   0.8660024   0.7829734  )
        24           Pb  tau(  24) = (   0.6250136   0.2164808   1.1744818  )
        25           Pb  tau(  25) = (   0.6250034   0.2164898   0.3914962  )
        26           Pb  tau(  26) = (   0.6250085   0.2164853   0.7829890  )
        27           Pb  tau(  27) = (   0.5000128   0.4329862   1.1744777  )
        28           Pb  tau(  28) = (   0.5000026   0.4329952   0.3914920  )
        29           Pb  tau(  29) = (   0.5000077   0.4329907   0.7829849  )
        30           Pb  tau(  30) = (   0.3750119   0.6494915   1.1744736  )
        31           Pb  tau(  31) = (   0.3750017   0.6495006   0.3914879  )
        32           Pb  tau(  32) = (   0.3750068   0.6494960   0.7829808  )
        33           Pb  tau(  33) = (   0.2500111   0.8659969   1.1744695  )
        34           Pb  tau(  34) = (   0.2500009   0.8660059   0.3914838  )
        35           Pb  tau(  35) = (   0.2500060   0.8660014   0.7829766  )
        36           Pb  tau(  36) = (   0.8750136   0.2164798   1.1744851  )
        37           Pb  tau(  37) = (   0.8750034   0.2164889   0.3914994  )
        38           Pb  tau(  38) = (   0.8750085   0.2164844   0.7829923  )
        39           Pb  tau(  39) = (   0.7500128   0.4329852   1.1744810  )
        40           Pb  tau(  40) = (   0.7500026   0.4329942   0.3914953  )
        41           Pb  tau(  41) = (   0.7500077   0.4329897   0.7829881  )
        42           Pb  tau(  42) = (   0.6250119   0.6494906   1.1744769  )
        43           Pb  tau(  43) = (   0.6250017   0.6494996   0.3914912  )
        44           Pb  tau(  44) = (   0.6250068   0.6494951   0.7829840  )
        45           Pb  tau(  45) = (   0.5000111   0.8659959   1.1744727  )
        46           Pb  tau(  46) = (   0.5000009   0.8660050   0.3914870  )
        47           Pb  tau(  47) = (   0.5000060   0.8660004   0.7829799  )
        48           I   tau(  48) = (   0.1250054   0.0721550   0.2909325  )
        49           I   tau(  49) = (   0.1250105   0.0721505   0.6824253  )
        50           I   tau(  50) = (   0.1250156   0.0721459   1.0739182  )
        51           I   tau(  51) = (   0.0000045   0.2886603   0.2909283  )
        52           I   tau(  52) = (   0.0000096   0.2886558   0.6824212  )
        53           I   tau(  53) = (   0.0000147   0.2886513   1.0739140  )
        54           I   tau(  54) = (  -0.1249963   0.5051657   0.2909242  )
        55           I   tau(  55) = (  -0.1249912   0.5051612   0.6824171  )
        56           I   tau(  56) = (  -0.1249861   0.5051566   1.0739099  )
        57           I   tau(  57) = (  -0.2499971   0.7216710   0.2909201  )
        58           I   tau(  58) = (  -0.2499920   0.7216665   0.6824129  )
        59           I   tau(  59) = (  -0.2499869   0.7216620   1.0739058  )
        60           I   tau(  60) = (   0.3750054   0.0721540   0.2909357  )
        61           I   tau(  61) = (   0.3750105   0.0721495   0.6824286  )
        62           I   tau(  62) = (   0.3750156   0.0721450   1.0739214  )
        63           I   tau(  63) = (   0.2500045   0.2886594   0.2909316  )
        64           I   tau(  64) = (   0.2500096   0.2886548   0.6824244  )
        65           I   tau(  65) = (   0.2500147   0.2886503   1.0739173  )
        66           I   tau(  66) = (   0.1250037   0.5051647   0.2909275  )
        67           I   tau(  67) = (   0.1250088   0.5051602   0.6824203  )
        68           I   tau(  68) = (   0.1250139   0.5051557   1.0739132  )
        69           I   tau(  69) = (   0.0000029   0.7216701   0.2909233  )
        70           I   tau(  70) = (   0.0000080   0.7216656   0.6824162  )
        71           I   tau(  71) = (   0.0000131   0.7216610   1.0739090  )
        72           I   tau(  72) = (   0.6250054   0.0721530   0.2909390  )
        73           I   tau(  73) = (   0.6250105   0.0721485   0.6824318  )
        74           I   tau(  74) = (   0.6250156   0.0721440   1.0739247  )
        75           I   tau(  75) = (   0.5000045   0.2886584   0.2909348  )
        76           I   tau(  76) = (   0.5000096   0.2886539   0.6824277  )
        77           I   tau(  77) = (   0.5000147   0.2886494   1.0739205  )
        78           I   tau(  78) = (   0.3750037   0.5051638   0.2909307  )
        79           I   tau(  79) = (   0.3750088   0.5051592   0.6824236  )
        80           I   tau(  80) = (   0.3750139   0.5051547   1.0739164  )
        81           I   tau(  81) = (   0.2500029   0.7216691   0.2909266  )
        82           I   tau(  82) = (   0.2500080   0.7216646   0.6824194  )
        83           I   tau(  83) = (   0.2500131   0.7216601   1.0739123  )
        84           I   tau(  84) = (   0.8750054   0.0721521   0.2909422  )
        85           I   tau(  85) = (   0.8750105   0.0721476   0.6824351  )
        86           I   tau(  86) = (   0.8750156   0.0721430   1.0739279  )
        87           I   tau(  87) = (   0.7500045   0.2886574   0.2909381  )
        88           I   tau(  88) = (   0.7500096   0.2886529   0.6824310  )
        89           I   tau(  89) = (   0.7500147   0.2886484   1.0739238  )
        90           I   tau(  90) = (   0.6250037   0.5051628   0.2909340  )
        91           I   tau(  91) = (   0.6250088   0.5051583   0.6824268  )
        92           I   tau(  92) = (   0.6250139   0.5051538   1.0739197  )
        93           I   tau(  93) = (   0.5000029   0.7216681   0.2909299  )
        94           I   tau(  94) = (   0.5000080   0.7216636   0.6824227  )
        95           I   tau(  95) = (   0.5000131   0.7216591   1.0739156  )
        96           I   tau(  96) = (  -0.0000017   0.1443297   0.1005555  )
        97           I   tau(  97) = (   0.0000034   0.1443252   0.4920483  )
        98           I   tau(  98) = (   0.0000085   0.1443207   0.8835412  )
        99           I   tau(  99) = (  -0.1250025   0.3608351   0.1005514  )
       100           I   tau( 100) = (  -0.1249974   0.3608306   0.4920442  )
       101           I   tau( 101) = (  -0.1249923   0.3608260   0.8835371  )
       102           I   tau( 102) = (  -0.2500034   0.5773404   0.1005472  )
       103           I   tau( 103) = (  -0.2499983   0.5773359   0.4920401  )
       104           I   tau( 104) = (  -0.2499932   0.5773314   0.8835329  )
       105           I   tau( 105) = (  -0.3750042   0.7938458   0.1005431  )
       106           I   tau( 106) = (  -0.3749991   0.7938413   0.4920360  )
       107           I   tau( 107) = (  -0.3749940   0.7938368   0.8835288  )
       108           I   tau( 108) = (   0.2499983   0.1443288   0.1005587  )
       109           I   tau( 109) = (   0.2500034   0.1443242   0.4920516  )
       110           I   tau( 110) = (   0.2500085   0.1443197   0.8835444  )
       111           I   tau( 111) = (   0.1249975   0.3608341   0.1005546  )
       112           I   tau( 112) = (   0.1250026   0.3608296   0.4920475  )
       113           I   tau( 113) = (   0.1250077   0.3608251   0.8835403  )
       114           I   tau( 114) = (  -0.0000034   0.5773395   0.1005505  )
       115           I   tau( 115) = (   0.0000017   0.5773350   0.4920433  )
       116           I   tau( 116) = (   0.0000068   0.5773304   0.8835362  )
       117           I   tau( 117) = (  -0.1250042   0.7938448   0.1005464  )
       118           I   tau( 118) = (  -0.1249991   0.7938403   0.4920392  )
       119           I   tau( 119) = (  -0.1249940   0.7938358   0.8835321  )
       120           I   tau( 120) = (   0.4999983   0.1443278   0.1005620  )
       121           I   tau( 121) = (   0.5000034   0.1443233   0.4920548  )
       122           I   tau( 122) = (   0.5000085   0.1443188   0.8835477  )
       123           I   tau( 123) = (   0.3749975   0.3608332   0.1005579  )
       124           I   tau( 124) = (   0.3750026   0.3608286   0.4920507  )
       125           I   tau( 125) = (   0.3750077   0.3608241   0.8835436  )
       126           I   tau( 126) = (   0.2499966   0.5773385   0.1005537  )
       127           I   tau( 127) = (   0.2500017   0.5773340   0.4920466  )
       128           I   tau( 128) = (   0.2500068   0.5773295   0.8835394  )
       129           I   tau( 129) = (   0.1249958   0.7938439   0.1005496  )
       130           I   tau( 130) = (   0.1250009   0.7938394   0.4920425  )
       131           I   tau( 131) = (   0.1250060   0.7938348   0.8835353  )
       132           I   tau( 132) = (   0.7499983   0.1443268   0.1005653  )
       133           I   tau( 133) = (   0.7500034   0.1443223   0.4920581  )
       134           I   tau( 134) = (   0.7500085   0.1443178   0.8835509  )
       135           I   tau( 135) = (   0.6249975   0.3608322   0.1005611  )
       136           I   tau( 136) = (   0.6250026   0.3608277   0.4920540  )
       137           I   tau( 137) = (   0.6250077   0.3608232   0.8835468  )
       138           I   tau( 138) = (   0.4999966   0.5773376   0.1005570  )
       139           I   tau( 139) = (   0.5000017   0.5773330   0.4920499  )
       140           I   tau( 140) = (   0.5000068   0.5773285   0.8835427  )
       141           I   tau( 141) = (   0.3749958   0.7938429   0.1005529  )
       142           I   tau( 142) = (   0.3750009   0.7938384   0.4920457  )
       143           I   tau( 143) = (   0.3750060   0.7938339   0.8835386  )
       144           I   tau( 144) = (   0.1250136   0.2164827   1.1744753  )

   Crystallographic axes

     site n.     atom                  positions (cryst. coord.)
         1           Pb  tau(   1) = (  0.2499950  0.2499832  0.3333306  )
         2           Pb  tau(   2) = (  0.2499975  0.2499780  0.6666639  )
         3           Pb  tau(   3) = (  0.2499986  0.4999716  0.9999938  )
         4           Pb  tau(   4) = (  0.2499936  0.4999820  0.3333271  )
         5           Pb  tau(   5) = (  0.2499961  0.4999768  0.6666604  )
         6           Pb  tau(   6) = (  0.2499972  0.7499704  0.9999902  )
         7           Pb  tau(   7) = (  0.2499922  0.7499809  0.3333236  )
         8           Pb  tau(   8) = (  0.2499947  0.7499757  0.6666569  )
         9           Pb  tau(   9) = (  0.2499957  0.9999693  0.9999867  )
        10           Pb  tau(  10) = (  0.2499908  0.9999797  0.3333201  )
        11           Pb  tau(  11) = (  0.2499932  0.9999745  0.6666534  )
        12           Pb  tau(  12) = (  0.4999994  0.2499716  1.0000000  )
        13           Pb  tau(  13) = (  0.4999944  0.2499821  0.3333334  )
        14           Pb  tau(  14) = (  0.4999969  0.2499768  0.6666667  )
        15           Pb  tau(  15) = (  0.4999980  0.4999705  0.9999965  )
        16           Pb  tau(  16) = (  0.4999930  0.4999809  0.3333299  )
        17           Pb  tau(  17) = (  0.4999955  0.4999757  0.6666632  )
        18           Pb  tau(  18) = (  0.4999966  0.7499693  0.9999930  )
        19           Pb  tau(  19) = (  0.4999916  0.7499798  0.3333264  )
        20           Pb  tau(  20) = (  0.4999941  0.7499745  0.6666597  )
        21           Pb  tau(  21) = (  0.4999952  0.9999682  0.9999895  )
        22           Pb  tau(  22) = (  0.4999902  0.9999786  0.3333228  )
        23           Pb  tau(  23) = (  0.4999927  0.9999734  0.6666562  )
        24           Pb  tau(  24) = (  0.7499989  0.2499705  1.0000028  )
        25           Pb  tau(  25) = (  0.7499939  0.2499809  0.3333362  )
        26           Pb  tau(  26) = (  0.7499964  0.2499757  0.6666695  )
        27           Pb  tau(  27) = (  0.7499975  0.4999694  0.9999993  )
        28           Pb  tau(  28) = (  0.7499925  0.4999798  0.3333326  )
        29           Pb  tau(  29) = (  0.7499950  0.4999746  0.6666660  )
        30           Pb  tau(  30) = (  0.7499960  0.7499682  0.9999958  )
        31           Pb  tau(  31) = (  0.7499910  0.7499786  0.3333291  )
        32           Pb  tau(  32) = (  0.7499935  0.7499734  0.6666625  )
        33           Pb  tau(  33) = (  0.7499946  0.9999671  0.9999923  )
        34           Pb  tau(  34) = (  0.7499896  0.9999775  0.3333256  )
        35           Pb  tau(  35) = (  0.7499921  0.9999723  0.6666590  )
        36           Pb  tau(  36) = (  0.9999983  0.2499694  1.0000056  )
        37           Pb  tau(  37) = (  0.9999933  0.2499798  0.3333389  )
        38           Pb  tau(  38) = (  0.9999958  0.2499746  0.6666723  )
        39           Pb  tau(  39) = (  0.9999969  0.4999682  1.0000021  )
        40           Pb  tau(  40) = (  0.9999919  0.4999787  0.3333354  )
        41           Pb  tau(  41) = (  0.9999944  0.4999735  0.6666687  )
        42           Pb  tau(  42) = (  0.9999955  0.7499671  0.9999986  )
        43           Pb  tau(  43) = (  0.9999905  0.7499775  0.3333319  )
        44           Pb  tau(  44) = (  0.9999930  0.7499723  0.6666652  )
        45           Pb  tau(  45) = (  0.9999941  0.9999659  0.9999951  )
        46           Pb  tau(  46) = (  0.9999891  0.9999764  0.3333284  )
        47           Pb  tau(  47) = (  0.9999916  0.9999712  0.6666617  )
        48           I   tau(  48) = (  0.1666641  0.0833174  0.2477120  )
        49           I   tau(  49) = (  0.1666666  0.0833122  0.5810454  )
        50           I   tau(  50) = (  0.1666691  0.0833070  0.9143787  )
        51           I   tau(  51) = (  0.1666626  0.3333162  0.2477085  )
        52           I   tau(  52) = (  0.1666651  0.3333110  0.5810418  )
        53           I   tau(  53) = (  0.1666676  0.3333058  0.9143752  )
        54           I   tau(  54) = (  0.1666612  0.5833151  0.2477050  )
        55           I   tau(  55) = (  0.1666637  0.5833099  0.5810383  )
        56           I   tau(  56) = (  0.1666662  0.5833047  0.9143717  )
        57           I   tau(  57) = (  0.1666598  0.8333139  0.2477015  )
        58           I   tau(  58) = (  0.1666623  0.8333087  0.5810348  )
        59           I   tau(  59) = (  0.1666648  0.8333035  0.9143682  )
        60           I   tau(  60) = (  0.4166635  0.0833163  0.2477148  )
        61           I   tau(  61) = (  0.4166660  0.0833111  0.5810481  )
        62           I   tau(  62) = (  0.4166685  0.0833058  0.9143815  )
        63           I   tau(  63) = (  0.4166621  0.3333151  0.2477113  )
        64           I   tau(  64) = (  0.4166646  0.3333099  0.5810446  )
        65           I   tau(  65) = (  0.4166671  0.3333047  0.9143780  )
        66           I   tau(  66) = (  0.4166607  0.5833140  0.2477078  )
        67           I   tau(  67) = (  0.4166632  0.5833088  0.5810411  )
        68           I   tau(  68) = (  0.4166657  0.5833035  0.9143744  )
        69           I   tau(  69) = (  0.4166593  0.8333128  0.2477043  )
        70           I   tau(  70) = (  0.4166618  0.8333076  0.5810376  )
        71           I   tau(  71) = (  0.4166643  0.8333024  0.9143709  )
        72           I   tau(  72) = (  0.6666629  0.0833152  0.2477176  )
        73           I   tau(  73) = (  0.6666654  0.0833099  0.5810509  )
        74           I   tau(  74) = (  0.6666679  0.0833047  0.9143842  )
        75           I   tau(  75) = (  0.6666615  0.3333140  0.2477141  )
        76           I   tau(  76) = (  0.6666640  0.3333088  0.5810474  )
        77           I   tau(  77) = (  0.6666665  0.3333036  0.9143807  )
        78           I   tau(  78) = (  0.6666601  0.5833129  0.2477106  )
        79           I   tau(  79) = (  0.6666626  0.5833076  0.5810439  )
        80           I   tau(  80) = (  0.6666651  0.5833024  0.9143772  )
        81           I   tau(  81) = (  0.6666587  0.8333117  0.2477070  )
        82           I   tau(  82) = (  0.6666612  0.8333065  0.5810404  )
        83           I   tau(  83) = (  0.6666637  0.8333013  0.9143737  )
        84           I   tau(  84) = (  0.9166624  0.0833141  0.2477203  )
        85           I   tau(  85) = (  0.9166649  0.0833088  0.5810537  )
        86           I   tau(  86) = (  0.9166674  0.0833036  0.9143870  )
        87           I   tau(  87) = (  0.9166610  0.3333129  0.2477168  )
        88           I   tau(  88) = (  0.9166635  0.3333077  0.5810502  )
        89           I   tau(  89) = (  0.9166660  0.3333025  0.9143835  )
        90           I   tau(  90) = (  0.9166596  0.5833118  0.2477133  )
        91           I   tau(  91) = (  0.9166621  0.5833065  0.5810467  )
        92           I   tau(  92) = (  0.9166646  0.5833013  0.9143800  )
        93           I   tau(  93) = (  0.9166582  0.8333106  0.2477098  )
        94           I   tau(  94) = (  0.9166607  0.8333054  0.5810431  )
        95           I   tau(  95) = (  0.9166632  0.8333002  0.9143765  )
        96           I   tau(  96) = (  0.0833271  0.1666576  0.0856171  )
        97           I   tau(  97) = (  0.0833296  0.1666524  0.4189505  )
        98           I   tau(  98) = (  0.0833321  0.1666472  0.7522838  )
        99           I   tau(  99) = (  0.0833257  0.4166565  0.0856136  )
       100           I   tau( 100) = (  0.0833282  0.4166513  0.4189470  )
       101           I   tau( 101) = (  0.0833307  0.4166460  0.7522803  )
       102           I   tau( 102) = (  0.0833243  0.6666553  0.0856101  )
       103           I   tau( 103) = (  0.0833268  0.6666501  0.4189434  )
       104           I   tau( 104) = (  0.0833293  0.6666449  0.7522768  )
       105           I   tau( 105) = (  0.0833229  0.9166542  0.0856066  )
       106           I   tau( 106) = (  0.0833254  0.9166489  0.4189399  )
       107           I   tau( 107) = (  0.0833279  0.9166437  0.7522733  )
       108           I   tau( 108) = (  0.3333265  0.1666565  0.0856199  )
       109           I   tau( 109) = (  0.3333290  0.1666513  0.4189532  )
       110           I   tau( 110) = (  0.3333315  0.1666461  0.7522866  )
       111           I   tau( 111) = (  0.3333251  0.4166554  0.0856164  )
       112           I   tau( 112) = (  0.3333276  0.4166501  0.4189497  )
       113           I   tau( 113) = (  0.3333301  0.4166449  0.7522831  )
       114           I   tau( 114) = (  0.3333237  0.6666542  0.0856129  )
       115           I   tau( 115) = (  0.3333262  0.6666490  0.4189462  )
       116           I   tau( 116) = (  0.3333287  0.6666438  0.7522795  )
       117           I   tau( 117) = (  0.3333223  0.9166531  0.0856094  )
       118           I   tau( 118) = (  0.3333248  0.9166478  0.4189427  )
       119           I   tau( 119) = (  0.3333273  0.9166426  0.7522760  )
       120           I   tau( 120) = (  0.5833260  0.1666554  0.0856227  )
       121           I   tau( 121) = (  0.5833285  0.1666502  0.4189560  )
       122           I   tau( 122) = (  0.5833310  0.1666450  0.7522893  )
       123           I   tau( 123) = (  0.5833246  0.4166542  0.0856192  )
       124           I   tau( 124) = (  0.5833271  0.4166490  0.4189525  )
       125           I   tau( 125) = (  0.5833296  0.4166438  0.7522858  )
       126           I   tau( 126) = (  0.5833232  0.6666531  0.0856157  )
       127           I   tau( 127) = (  0.5833257  0.6666479  0.4189490  )
       128           I   tau( 128) = (  0.5833282  0.6666427  0.7522823  )
       129           I   tau( 129) = (  0.5833218  0.9166519  0.0856121  )
       130           I   tau( 130) = (  0.5833243  0.9166467  0.4189455  )
       131           I   tau( 131) = (  0.5833268  0.9166415  0.7522788  )
       132           I   tau( 132) = (  0.8333254  0.1666543  0.0856254  )
       133           I   tau( 133) = (  0.8333279  0.1666491  0.4189588  )
       134           I   tau( 134) = (  0.8333304  0.1666438  0.7522921  )
       135           I   tau( 135) = (  0.8333240  0.4166531  0.0856219  )
       136           I   tau( 136) = (  0.8333265  0.4166479  0.4189553  )
       137           I   tau( 137) = (  0.8333290  0.4166427  0.7522886  )
       138           I   tau( 138) = (  0.8333226  0.6666520  0.0856184  )
       139           I   tau( 139) = (  0.8333251  0.6666468  0.4189518  )
       140           I   tau( 140) = (  0.8333276  0.6666415  0.7522851  )
       141           I   tau( 141) = (  0.8333212  0.9166508  0.0856149  )
       142           I   tau( 142) = (  0.8333237  0.9166456  0.4189482  )
       143           I   tau( 143) = (  0.8333262  0.9166404  0.7522816  )
       144           I   tau( 144) = (  0.2500000  0.2499727  0.9999973  )

     number of k points=     1  Gaussian smearing, width (Ry)=  0.0100
                       cart. coord. in units 2pi/alat
        k(    1) = (   0.0000000   0.0000000   0.0000000), wk =   2.0000000

                       cryst. coord.
        k(    1) = (   0.0000000   0.0000000   0.0000000), wk =   2.0000000

     Dense  grid:  5079105 G-vectors     FFT dimensions: ( 216, 216, 250)

     Smooth grid:  3634441 G-vectors     FFT dimensions: ( 192, 192, 225)

     Dynamical RAM for                 wfc:      74.84 MB

     Dynamical RAM for     wfc (w. buffer):      74.84 MB

     Dynamical RAM for           str. fact:       1.21 MB

     Dynamical RAM for           local pot:       0.00 MB

     Dynamical RAM for          nlocal pot:     140.37 MB

     Dynamical RAM for                qrad:       3.00 MB

     Dynamical RAM for          rho,v,vnew:       3.95 MB

     Dynamical RAM for               rhoin:       1.32 MB

     Dynamical RAM for            rho*nmix:       9.69 MB

     Dynamical RAM for           G-vectors:       2.49 MB

     Dynamical RAM for          h,s,v(r/c):    1398.87 MB

     Dynamical RAM for          <psi|beta>:      54.66 MB

     Dynamical RAM for                 psi:     299.36 MB

     Dynamical RAM for                hpsi:     299.36 MB

     Dynamical RAM for                spsi:     299.36 MB

     Dynamical RAM for      wfcinit/wfcrot:     193.41 MB

     Dynamical RAM for           addusdens:     171.33 MB

     Dynamical RAM for          addusforce:     288.25 MB

     Dynamical RAM for         addusstress:     121.69 MB

     Estimated static dynamical RAM per process >     232.55 MB

     Estimated max dynamical RAM per process >       2.53 GB

     Estimated total dynamical RAM >     324.23 GB

     Atomic positions and unit cell read from directory:
     ./PbI2.save/
     Atomic positions from file used, from input discarded
 

     Check: negative core charge=   -0.000001

     The initial density is read from file :
     ./PbI2.save/charge-density



     %%%%%%%%%%%%%%%%%%%%%%%%%%%%%%%%%%%%%%%%%%%%%%%%%%%%%%%%%%%%%%%%%%%%%%%%
     %                                                                      %
     % You are using vdW-DF, which was implemented by the Thonhauser group. %
     % Please cite the following two papers that made this development      %
     % possible and the two reviews that describe the various versions:     %
     %                                                                      %
     %   T. Thonhauser et al., PRL 115, 136402 (2015).                      %
     %   T. Thonhauser et al., PRB 76, 125112 (2007).                       %
     %   K. Berland et al., Rep. Prog. Phys. 78, 066501 (2015).             %
     %   D.C. Langreth et al., J. Phys.: Condens. Matter 21, 084203 (2009). %
     %                                                                      %
     % If you are calculating stress with vdW-DF, please also cite:         %
     %                                                                      %
     %   R. Sabatini et al., J. Phys.: Condens. Matter 24, 424209 (2012).   %
     %                                                                      %
     %%%%%%%%%%%%%%%%%%%%%%%%%%%%%%%%%%%%%%%%%%%%%%%%%%%%%%%%%%%%%%%%%%%%%%%%

     %%%%%%%%%%%%%%%%%%%%%%%%%%%%%%%%%%%%%%%%%%%%%%%%%%%%%%%%%%%%%%%%%%%%%%%%
     %                                                                      %
     %  vdW-DF NEWS:                                                        %
     %                                                                      %
     %  * vdW-DF3 is now available. DOI: 10.1021/acs.jctc.0c00471           %
     %    use with input_dft = 'vdW-DF3-opt1' or 'vdW-DF3-opt2'             %
     %                                                                      %
     %  * Unscreened and range-separated vdW-DF hybrid functionals          %
     %    DOI: 10.1063/1.4986522 and 10.1088/1361-648X/ac2ad2               %
     %    use with input_dft = 'vdW-DF-cx0' (etc) and 'vdW-DF-ahcx'         %
     %                                                                      %
     %%%%%%%%%%%%%%%%%%%%%%%%%%%%%%%%%%%%%%%%%%%%%%%%%%%%%%%%%%%%%%%%%%%%%%%%


     Carrying out vdW-DF run using the following parameters:
     Nqs    =  20  Npoints =  1024  r_max =  100.000
     q_mesh =  0.00001000  0.04494208  0.09755937  0.15916263
               0.23128650  0.31572767  0.41458969  0.53033537
               0.66584808  0.82450364  1.01025438  1.22772762
               1.48234092  1.78043706  2.12944203  2.53805004
               3.01644009  3.57652955  4.23227104  5.00000000


     -----------------------------------------------
     Non-local corr. energy    =      69.32608500 Ry
     -----------------------------------------------

     Starting wfcs from file
     Checking if some PAW data can be deallocated... 
       PAW data deallocated on   97 nodes for type:  1
       PAW data deallocated on   31 nodes for type:  2
     Calculation restarted from scf iteration #     5

     total cpu time spent up to now is       11.0 secs

     Self-consistent Calculation

     iteration #  5     ecut=    70.00 Ry     beta= 0.70
     Calculation restarted from end of k-point loop
     Davidson diagonalization with overlap

---- Real-time Memory Report at c_bands before calling an iterative solver
           433 MiB given to the printing process from OS
             0 MiB allocation reported by mallinfo(arena+hblkhd)
       1917034 MiB available memory on the node where the printing process lives
------------------
     ethr =  2.45E-06,  avg # of iterations = 20.0


     -----------------------------------------------
     Non-local corr. energy    =      69.32710459 Ry
     -----------------------------------------------


     total cpu time spent up to now is       21.9 secs

     total energy              =  -96802.20131543 Ry
     estimated scf accuracy    <       0.01639064 Ry

     iteration #  6     ecut=    70.00 Ry     beta= 0.70
     Davidson diagonalization with overlap

---- Real-time Memory Report at c_bands before calling an iterative solver
           693 MiB given to the printing process from OS
             0 MiB allocation reported by mallinfo(arena+hblkhd)
       1898503 MiB available memory on the node where the printing process lives
------------------
     ethr =  7.11E-07,  avg # of iterations = 18.0


     -----------------------------------------------
     Non-local corr. energy    =      69.32858234 Ry
     -----------------------------------------------


     total cpu time spent up to now is      475.9 secs

     total energy              =  -96802.20224994 Ry
     estimated scf accuracy    <       0.00792595 Ry

     iteration #  7     ecut=    70.00 Ry     beta= 0.70
     Davidson diagonalization with overlap

---- Real-time Memory Report at c_bands before calling an iterative solver
          1727 MiB given to the printing process from OS
             0 MiB allocation reported by mallinfo(arena+hblkhd)
       1881665 MiB available memory on the node where the printing process lives
------------------
     ethr =  3.44E-07,  avg # of iterations = 20.0


     -----------------------------------------------
     Non-local corr. energy    =      69.33037563 Ry
     -----------------------------------------------


     total cpu time spent up to now is      935.1 secs

     total energy              =  -96802.20266673 Ry
     estimated scf accuracy    <       0.00582413 Ry

     iteration #  8     ecut=    70.00 Ry     beta= 0.70
     Davidson diagonalization with overlap

---- Real-time Memory Report at c_bands before calling an iterative solver
          1727 MiB given to the printing process from OS
             0 MiB allocation reported by mallinfo(arena+hblkhd)
       1881453 MiB available memory on the node where the printing process lives
------------------
     ethr =  2.53E-07,  avg # of iterations = 13.0


     -----------------------------------------------
     Non-local corr. energy    =      69.33478240 Ry
     -----------------------------------------------


     total cpu time spent up to now is     1244.9 secs

     total energy              =  -96802.20332732 Ry
     estimated scf accuracy    <       0.00428950 Ry

     iteration #  9     ecut=    70.00 Ry     beta= 0.70
     Davidson diagonalization with overlap

---- Real-time Memory Report at c_bands before calling an iterative solver
          1727 MiB given to the printing process from OS
             0 MiB allocation reported by mallinfo(arena+hblkhd)
       1881217 MiB available memory on the node where the printing process lives
------------------
     c_bands:  1 eigenvalues not converged
     ethr =  1.86E-07,  avg # of iterations = 20.0


     -----------------------------------------------
     Non-local corr. energy    =      69.33780718 Ry
     -----------------------------------------------


     total cpu time spent up to now is     1739.7 secs

     total energy              =  -96802.20366796 Ry
     estimated scf accuracy    <       0.00276509 Ry

     iteration # 10     ecut=    70.00 Ry     beta= 0.70
     Davidson diagonalization with overlap

---- Real-time Memory Report at c_bands before calling an iterative solver
          1764 MiB given to the printing process from OS
             0 MiB allocation reported by mallinfo(arena+hblkhd)
       1880961 MiB available memory on the node where the printing process lives
------------------
     ethr =  1.20E-07,  avg # of iterations =  3.0


     -----------------------------------------------
     Non-local corr. energy    =      69.34135331 Ry
     -----------------------------------------------


     total cpu time spent up to now is     1868.9 secs

     total energy              =  -96802.20388703 Ry
     estimated scf accuracy    <       0.00100021 Ry

     iteration # 11     ecut=    70.00 Ry     beta= 0.70
     Davidson diagonalization with overlap

---- Real-time Memory Report at c_bands before calling an iterative solver
          1764 MiB given to the printing process from OS
             0 MiB allocation reported by mallinfo(arena+hblkhd)
       1880928 MiB available memory on the node where the printing process lives
------------------
     c_bands:  2 eigenvalues not converged
     ethr =  4.34E-08,  avg # of iterations = 20.0


     -----------------------------------------------
     Non-local corr. energy    =      69.34174785 Ry
     -----------------------------------------------


     total cpu time spent up to now is     2407.9 secs

     total energy              =  -96802.20358412 Ry
     estimated scf accuracy    <       0.00106757 Ry

     iteration # 12     ecut=    70.00 Ry     beta= 0.70
     Davidson diagonalization with overlap

---- Real-time Memory Report at c_bands before calling an iterative solver
          1827 MiB given to the printing process from OS
             0 MiB allocation reported by mallinfo(arena+hblkhd)
       1880927 MiB available memory on the node where the printing process lives
------------------
     c_bands:  2 eigenvalues not converged
     ethr =  4.34E-08,  avg # of iterations = 20.0


     -----------------------------------------------
     Non-local corr. energy    =      69.34179132 Ry
     -----------------------------------------------


     total cpu time spent up to now is     3044.3 secs

     total energy              =  -96802.20376073 Ry
     estimated scf accuracy    <       0.00106298 Ry

     iteration # 13     ecut=    70.00 Ry     beta= 0.70
     Davidson diagonalization with overlap

---- Real-time Memory Report at c_bands before calling an iterative solver
          1926 MiB given to the printing process from OS
             0 MiB allocation reported by mallinfo(arena+hblkhd)
       1880867 MiB available memory on the node where the printing process lives
------------------
     c_bands:  1 eigenvalues not converged
     ethr =  4.34E-08,  avg # of iterations = 20.0


     -----------------------------------------------
     Non-local corr. energy    =      69.34190415 Ry
     -----------------------------------------------


     total cpu time spent up to now is     3534.7 secs

     total energy              =  -96802.20378401 Ry
     estimated scf accuracy    <       0.00008403 Ry

     iteration # 14     ecut=    70.00 Ry     beta= 0.70
     Davidson diagonalization with overlap

---- Real-time Memory Report at c_bands before calling an iterative solver
          1926 MiB given to the printing process from OS
             0 MiB allocation reported by mallinfo(arena+hblkhd)
       1880872 MiB available memory on the node where the printing process lives
------------------
     c_bands:  1 eigenvalues not converged
     ethr =  3.65E-09,  avg # of iterations = 20.0


     -----------------------------------------------
     Non-local corr. energy    =      69.34192990 Ry
     -----------------------------------------------


     total cpu time spent up to now is     4352.2 secs

     total energy              =  -96802.20379225 Ry
     estimated scf accuracy    <       0.00006541 Ry

     iteration # 15     ecut=    70.00 Ry     beta= 0.70
     Davidson diagonalization with overlap

---- Real-time Memory Report at c_bands before calling an iterative solver
          2080 MiB given to the printing process from OS
             0 MiB allocation reported by mallinfo(arena+hblkhd)
       1880662 MiB available memory on the node where the printing process lives
------------------
     c_bands:  1 eigenvalues not converged
     ethr =  2.84E-09,  avg # of iterations = 20.0


     -----------------------------------------------
     Non-local corr. energy    =      69.34195676 Ry
     -----------------------------------------------


     total cpu time spent up to now is     4983.1 secs

     total energy              =  -96802.20379886 Ry
     estimated scf accuracy    <       0.00003052 Ry

     iteration # 16     ecut=    70.00 Ry     beta= 0.70
     Davidson diagonalization with overlap

---- Real-time Memory Report at c_bands before calling an iterative solver
          2080 MiB given to the printing process from OS
             0 MiB allocation reported by mallinfo(arena+hblkhd)
       1880663 MiB available memory on the node where the printing process lives
------------------
     c_bands:  1 eigenvalues not converged
     ethr =  1.32E-09,  avg # of iterations = 20.0


     -----------------------------------------------
     Non-local corr. energy    =      69.34197583 Ry
     -----------------------------------------------


     total cpu time spent up to now is     5584.4 secs

     total energy              =  -96802.20380086 Ry
     estimated scf accuracy    <       0.00001340 Ry

     iteration # 17     ecut=    70.00 Ry     beta= 0.70
     Davidson diagonalization with overlap

---- Real-time Memory Report at c_bands before calling an iterative solver
          2080 MiB given to the printing process from OS
             0 MiB allocation reported by mallinfo(arena+hblkhd)
       1880660 MiB available memory on the node where the printing process lives
------------------
     c_bands:  1 eigenvalues not converged
     ethr =  5.82E-10,  avg # of iterations = 20.0


     -----------------------------------------------
     Non-local corr. energy    =      69.34200330 Ry
     -----------------------------------------------


     total cpu time spent up to now is     6178.8 secs

     total energy              =  -96802.20380220 Ry
     estimated scf accuracy    <       0.00000666 Ry

     iteration # 18     ecut=    70.00 Ry     beta= 0.70
     Davidson diagonalization with overlap

---- Real-time Memory Report at c_bands before calling an iterative solver
          2080 MiB given to the printing process from OS
             0 MiB allocation reported by mallinfo(arena+hblkhd)
       1880658 MiB available memory on the node where the printing process lives
------------------
     ethr =  2.89E-10,  avg # of iterations = 20.0


     -----------------------------------------------
     Non-local corr. energy    =      69.34203159 Ry
     -----------------------------------------------


     total cpu time spent up to now is     6720.1 secs

     total energy              =  -96802.20380251 Ry
     estimated scf accuracy    <       0.00000105 Ry

     iteration # 19     ecut=    70.00 Ry     beta= 0.70
     Davidson diagonalization with overlap

---- Real-time Memory Report at c_bands before calling an iterative solver
          2080 MiB given to the printing process from OS
             0 MiB allocation reported by mallinfo(arena+hblkhd)
       1880657 MiB available memory on the node where the printing process lives
------------------
     ethr =  4.57E-11,  avg # of iterations = 15.0


     -----------------------------------------------
     Non-local corr. energy    =      69.34206369 Ry
     -----------------------------------------------


     total cpu time spent up to now is     7743.6 secs

     total energy              =  -96802.20380290 Ry
     estimated scf accuracy    <       0.00000057 Ry

     iteration # 20     ecut=    70.00 Ry     beta= 0.70
     Davidson diagonalization with overlap

---- Real-time Memory Report at c_bands before calling an iterative solver
          2392 MiB given to the printing process from OS
             0 MiB allocation reported by mallinfo(arena+hblkhd)
       1880192 MiB available memory on the node where the printing process lives
------------------
     c_bands:  2 eigenvalues not converged
     ethr =  2.49E-11,  avg # of iterations = 20.0


     -----------------------------------------------
     Non-local corr. energy    =      69.34208802 Ry
     -----------------------------------------------


     total cpu time spent up to now is     8377.3 secs

     total energy              =  -96802.20380295 Ry
     estimated scf accuracy    <       0.00000019 Ry

     iteration # 21     ecut=    70.00 Ry     beta= 0.70
     Davidson diagonalization with overlap

---- Real-time Memory Report at c_bands before calling an iterative solver
          2392 MiB given to the printing process from OS
             0 MiB allocation reported by mallinfo(arena+hblkhd)
       1880182 MiB available memory on the node where the printing process lives
------------------
     c_bands:  1 eigenvalues not converged
     ethr =  8.31E-12,  avg # of iterations = 20.0


     -----------------------------------------------
     Non-local corr. energy    =      69.34211106 Ry
     -----------------------------------------------


     total cpu time spent up to now is     8971.7 secs

     End of self-consistent calculation

          k = 0.0000 0.0000 0.0000 (454335 PWs)   bands (ev):

   -44.1066 -44.0953 -44.0705 -43.9836 -43.9741 -41.9028 -41.9023 -41.8434
   -41.8429 -41.8379 -41.8374 -41.6510 -41.6507 -41.6505 -41.6502 -41.5697
   -41.5695 -41.5244 -41.5241 -41.5190 -41.5187 -41.4759 -41.4742 -41.4345
   -41.4328 -41.4295 -41.4278 -41.3750 -41.3747 -41.3747 -41.3743 -41.2985
   -41.2981 -41.2970 -41.2966 -41.1127 -41.1125 -41.1074 -41.1067 -41.1067
   -41.1065 -41.1012 -41.1006 -41.0986 -41.0984 -41.0935 -41.0929 -41.0762
   -41.0761 -41.0760 -41.0759 -41.0720 -41.0719 -41.0712 -41.0711 -41.0706
   -41.0704 -41.0677 -41.0676 -41.0593 -41.0593 -41.0573 -41.0572 -41.0561
   -41.0555 -41.0533 -41.0532 -41.0513 -41.0507 -41.0467 -41.0466 -41.0453
   -41.0452 -41.0447 -41.0441 -41.0424 -41.0424 -41.0423 -41.0422 -41.0420
   -41.0420 -41.0357 -41.0355 -41.0297 -41.0296 -41.0294 -41.0293 -41.0272
   -41.0270 -41.0266 -41.0264 -41.0195 -41.0194 -41.0193 -41.0192 -40.9890
   -40.9885 -40.9884 -40.9879 -40.9844 -40.9840 -40.9831 -40.9827 -40.9827
   -40.9822 -40.9795 -40.9791 -40.9789 -40.9785 -40.9776 -40.9771 -40.9770
   -40.9765 -40.9760 -40.9756 -40.9746 -40.9744 -40.9743 -40.9742 -40.9740
   -40.9739 -40.9729 -40.9727 -40.9724 -40.9722 -40.9408 -40.9407 -40.9404
   -40.9404 -40.9403 -40.9400 -40.9387 -40.9386 -40.9383 -40.9382 -40.9252
   -40.9248 -40.9236 -40.9232 -40.9228 -40.9221 -40.9218 -40.9213 -40.9211
   -40.9210 -40.9209 -40.9208 -40.9201 -40.9200 -40.9189 -40.9182 -40.9170
   -40.9169 -40.9140 -40.9136 -40.9135 -40.9133 -40.9130 -40.9126 -40.9126
   -40.9119 -40.9119 -40.9118 -40.9112 -40.9111 -40.7483 -40.7481 -40.7478
   -40.7476 -40.7469 -40.7468 -40.7464 -40.7462 -40.7457 -40.7451 -40.7070
   -40.7067 -40.7066 -40.7064 -40.7032 -40.7029 -40.7028 -40.7028 -40.7027
   -40.7024 -40.7024 -40.7022 -40.6950 -40.6948 -40.6920 -40.6918 -40.6912
   -40.6912 -40.6911 -40.6910 -40.6909 -40.6909 -40.6908 -40.6906 -40.6904
   -40.6904 -40.6819 -40.6818 -40.6815 -40.6813 -40.6783 -40.6783 -40.6779
   -40.6779 -40.6779 -40.6778 -40.6776 -40.6775 -40.6775 -40.6774 -40.6771
   -40.6771 -40.6770 -40.6770 -40.6765 -40.6765 -40.6765 -40.6764 -40.6761
   -40.6760 -40.6760 -40.6760 -40.6760 -40.6760 -40.6756 -40.6755 -40.6755
   -40.6755 -40.6750 -40.6750 -40.6735 -40.6733 -40.6729 -40.6729 -40.6728
   -40.6728 -40.6727 -40.6726 -40.6725 -40.6725 -40.6724 -40.6724 -40.6723
   -40.6723 -40.6722 -40.6722 -40.6721 -40.6721 -40.6720 -40.6720 -40.6720
   -40.6720 -40.6720 -40.6720 -40.6717 -40.6717 -40.6716 -40.6716 -40.6716
   -40.6716 -40.6716 -40.6715 -40.6714 -40.6713 -40.6713 -40.6713 -40.6713
   -40.6712 -40.6712 -40.6712 -40.6711 -40.6711 -40.6710 -40.6710 -40.6710
   -40.6709 -40.6709 -40.6709 -40.6709 -40.6709 -40.6709 -40.6708 -40.6708
   -40.6708 -40.6707 -40.6707 -40.6707 -40.6707 -40.6706 -40.6706 -40.6706
   -40.6706 -40.6705 -40.6705 -40.6705 -40.6705 -40.6704 -40.6703 -40.6703
   -40.6703 -40.6703 -40.6703 -40.6703 -40.6703 -40.6703 -40.6702 -40.6702
   -40.6700 -40.6700 -40.6700 -40.6699 -40.6699 -40.6699 -40.6698 -40.6697
   -40.6696 -40.6695 -40.6694 -40.6692 -40.6691 -40.6603 -40.6602 -40.6596
   -40.6595 -40.6594 -40.6591 -40.6591 -40.6590 -40.6586 -40.6586 -40.6585
   -40.6585 -40.6584 -40.6583 -40.6583 -40.6582 -40.6581 -40.6581 -40.6579
   -40.6579 -40.6579 -40.6577 -40.6577 -40.6577 -40.6576 -40.6576 -40.6575
   -40.6575 -40.6575 -40.6575 -40.6575 -40.6575 -40.6574 -40.6573 -40.6573
   -40.6572 -40.6572 -40.6572 -40.6572 -40.6572 -40.6571 -40.6571 -40.6571
   -40.6571 -40.6570 -40.6570 -40.6570 -40.6569 -40.6569 -40.6569 -40.6568
   -40.6567 -40.6567 -40.6567 -40.6567 -40.6567 -40.6567 -40.6567 -40.6566
   -40.6565 -40.6565 -40.6565 -40.6564 -40.6564 -40.6564 -40.6564 -40.6564
   -40.6564 -40.6563 -40.6563 -40.6562 -40.6562 -40.6562 -40.6562 -40.6562
   -40.6562 -40.6562 -40.6561 -40.6561 -40.6561 -40.6561 -40.6560 -40.6560
   -40.6560 -40.6560 -40.6559 -40.6559 -40.6559 -40.6558 -40.6558 -40.6558
   -40.6558 -40.6558 -40.6558 -40.6558 -40.6558 -40.6557 -40.6557 -40.6557
   -40.6557 -40.6556 -40.6556 -40.6556 -40.6556 -40.6556 -40.6556 -40.6556
   -40.6556 -40.6555 -40.6555 -40.6554 -40.6554 -40.6554 -40.6554 -40.6554
   -40.6553 -40.6552 -40.6552 -40.6551 -40.6551 -40.6550 -40.6550 -40.6549
   -40.6549 -40.6548 -40.6548 -40.6547 -40.6547 -40.6546 -40.6545 -40.6544
   -40.6544 -40.6544 -40.6544 -40.6543 -40.6543 -40.6543 -40.6541 -40.6541
   -40.6541 -40.6540 -40.6539 -40.6539 -40.6539 -40.6535 -40.6535 -40.6535
   -40.6535 -40.6535 -40.6534 -40.6532 -40.6532 -40.6531 -40.6531 -40.6529
   -40.6528 -40.6528 -40.6524 -40.6523 -40.6520 -13.2138 -13.2124 -13.2016
   -13.1999 -13.1949 -13.1945 -13.1910 -13.1898 -13.1827 -13.1818 -13.1810
   -13.1808 -13.1781 -13.1772 -13.1755 -13.1754 -13.1698 -13.1690 -13.1650
   -13.1638 -13.1634 -13.1629 -13.1613 -13.1564 -13.1552 -13.1501 -13.1494
   -13.1472 -13.1463 -13.1454 -13.1445 -13.1437 -13.1430 -13.1407 -13.1376
   -13.1347 -13.1345 -13.1344 -13.1335 -13.1326 -13.1319 -13.1317 -13.1217
   -13.1190 -13.1166 -13.1015 -13.0990 -13.0982 -13.0977 -13.0967 -13.0962
   -13.0898 -13.0891 -13.0863 -13.0861 -13.0839 -13.0834 -13.0829 -13.0827
   -13.0825 -13.0818 -13.0814 -13.0811 -13.0789 -13.0786 -13.0773 -13.0772
   -13.0770 -13.0767 -13.0758 -13.0756 -13.0716 -13.0715 -13.0706 -13.0704
   -12.8524 -12.8524 -12.8441 -12.8440 -12.8438 -12.8437 -12.8399 -12.8398
   -12.8394 -12.8393 -12.8347 -12.8346 -12.8315 -12.8314 -12.8298 -12.8297
   -12.8293 -12.8293 -12.8264 -12.8264 -12.8261 -12.8259 -12.8248 -12.8246
   -12.8241 -12.8239 -12.8234 -12.8233 -12.8227 -12.8223 -12.8094 -12.8093
   -12.8090 -12.8088 -12.8082 -12.8082 -12.8051 -12.8050 -12.8040 -12.8038
   -12.8030 -12.8028 -12.8025 -12.8025 -12.8022 -12.8020 -12.8020 -12.8019
   -12.7996 -12.7996 -12.7979 -12.7978 -12.7975 -12.7973 -12.7956 -12.7955
   -12.7945 -12.7944 -12.7935 -12.7934 -12.7930 -12.7929 -12.7926 -12.7926
   -12.7919 -12.7916 -12.7883 -12.7882 -12.7881 -12.7880 -12.7880 -12.7878
   -12.7875 -12.7875 -12.7868 -12.7867 -12.7866 -12.7866 -12.7865 -12.7864
   -12.7862 -12.7862 -12.7860 -12.7859 -12.7858 -12.7857 -12.7857 -12.7855
   -12.7851 -12.7849 -12.7848 -12.7848 -12.7846 -12.7846 -12.7842 -12.7841
   -12.7839 -12.7838 -12.7838 -12.7837 -12.7836 -12.7834 -12.7834 -12.7833
   -12.7828 -12.7828 -12.7826 -12.7826 -12.7825 -12.7824 -12.7822 -12.7821
   -12.7818 -12.7818 -12.7817 -12.7816 -12.7816 -12.7813 -12.7810 -12.7810
   -12.7805 -12.7804 -12.7804 -12.7804 -12.7802 -12.7800 -12.7799 -12.7798
   -12.7797 -12.7795 -12.7789 -12.7788 -12.7787 -12.7786 -12.7785 -12.7784
   -12.7774 -12.7774 -12.7758 -12.7758 -12.7757 -12.7757 -12.7754 -12.7752
   -12.7739 -12.7738 -12.7732 -12.7732 -12.7730 -12.7730 -12.7729 -12.7728
   -12.7727 -12.7725 -12.7712 -12.7711 -12.7709 -12.7708 -12.7702 -12.7701
   -10.6347  -8.4986  -8.2849  -8.2575  -8.2262  -8.1588  -8.1476  -8.1105
    -8.0703  -8.0464  -8.0446  -8.0123  -7.9714  -7.9458  -7.9376  -7.9251
    -7.8646  -7.8543  -7.8417  -7.8346  -7.8301  -7.8097  -7.7905  -7.7891
    -7.7861  -7.7775  -7.7720  -7.7716  -7.7706  -7.7705  -7.7633  -7.7575
    -7.7571  -7.7564  -7.7547  -7.7326  -7.7299  -7.7255  -7.7234  -7.7219
    -7.7110  -7.7098  -7.7089  -7.6856  -7.6777  -7.6722  -7.6661  -7.5529
    -7.5343  -7.5300  -7.5213  -7.5194  -7.5156  -7.5145  -7.5140  -7.5041
    -7.5017  -7.4963  -7.4961  -7.4956  -7.4948  -7.4946  -7.4935  -7.4891
    -7.4858  -7.4786  -7.4776  -7.4598  -7.4576  -7.4574  -7.4565  -7.4560
    -7.4555  -7.4206  -7.4200  -7.4147  -7.4136  -7.4135  -7.4133  -7.4016
    -7.3990  -7.3969  -7.3957  -7.3901  -7.3885  -7.3787  -7.3782  -7.3777
    -7.3757  -7.3757  -7.3748  -7.3675  -7.3662  -7.3648  -7.3613  -7.3581
    -7.3572  -3.8827  -3.8641  -3.8490  -3.8397  -3.8290  -3.8226  -3.8142
    -3.8074  -3.7307  -3.5967  -3.5793  -3.5722  -3.5585  -3.5258  -3.5237
    -3.5233  -3.5206  -3.5203  -3.5078  -3.5024  -3.4987  -3.4980  -3.4965
    -3.4957  -3.4918  -3.4911  -3.4894  -3.4889  -3.4881  -3.4880  -3.4876
    -3.4875  -3.3641  -3.2523  -3.2519  -3.2492  -3.2468  -3.2446  -3.2444
    -3.2316  -3.2309  -3.2285  -3.2261  -3.2238  -3.2236  -3.0404  -3.0034
    -1.0591  -0.7322  -0.6498   0.8000   0.8023   0.8244   1.0066   1.0319
     1.0357   1.0364   1.0430   1.0490   1.0625   1.0633   1.1195   1.1511
     1.1634   1.1936   1.1968   1.1978   1.2015   1.2112   1.2579   1.2592
     1.2736   1.3431   1.3437   1.3681   1.3686   1.3782   1.3819   1.3871
     1.3935   1.4265   1.4405   1.4427   1.4432   1.4443   1.4447   1.5001
     1.5413   1.5488   1.5546   1.5551   1.5591   1.5602   1.5652   1.5670
     1.5709   1.5721   1.5762   1.5882   1.5935   1.5945   1.5972   1.6055
     1.6072   1.6105   1.6133   1.6137   1.6221   1.6304   1.6316   1.6591
     1.6890   1.6912   1.7147   1.7190   1.7261   1.7428   1.7876   1.7916
     1.7973   1.8031   1.8035   1.8445   1.8896   1.8938   1.9042   1.9196
     1.9231   1.9413   1.9441   1.9484   1.9676   1.9688   1.9697   1.9702
     1.9705   1.9801   1.9956   1.9990   2.0019   2.0049   2.0244   2.0344
     2.0468   2.0476   2.0603   2.0632   2.0643   2.0646   2.0735   2.0939
     2.0962   2.1039   2.1043   2.1105   2.1114   2.1129   2.1133   2.1161
     2.1163   2.1184   2.1191   2.1484   2.1708   2.1768   2.1848   2.1866
     2.1918   2.1983   2.2034   2.2167   2.2301   2.2302   2.2366   2.2368
     2.2381   2.2767   2.2836   2.3268   2.3429   2.3460   2.3612   2.3617
     2.3639   2.3644   2.3652   2.3663   2.4108   2.4139   2.4203   2.4207
     2.4218   2.4240   2.4431   2.4501   2.4647   2.4651   2.4672   2.4763
     2.4795   2.4959   2.5302   2.5336   2.5424   2.5465   2.5484   2.5555
     2.5617   2.5626   2.5668   2.5734   2.5853   2.5919   2.6000   2.6082
     2.6087   2.6115   2.6302   2.6310   2.6732   2.6839   2.6871   2.6897
     2.6999   2.7126   2.7209   2.7210   2.7234   2.7423   2.7445   2.7459
     2.7670   2.7684   2.7824   2.7825   2.8144   2.8222   2.8242   2.8302
     2.8311   2.8448   2.8471   2.8486   2.8594   2.8595   2.8599   2.8653
     2.8656   2.8716   2.8856   2.8858   2.9239   2.9248   2.9293   2.9641
     2.9665   2.9748   2.9751   2.9791   2.9819   2.9898   2.9927   2.9970
     3.0029   3.0047   3.0053   3.0076   3.0098   3.0143   3.0170   3.0179
     3.0188   3.0213   3.0218   3.0220   3.0270   3.0275   3.0287   3.0292
     3.0320   3.0370   3.0372   3.0373   3.0413   3.0422   3.0432   3.0439
     3.0589   3.0611   3.0652   3.0707   3.0727   3.0832   3.0852   3.0870
     3.0905   3.0910   3.0961   3.0966   3.1034   3.1035   3.1038   3.1042
     3.1072   3.1077   3.1093   3.2336   3.2488   3.2517   3.3054   3.3454
     3.3592   3.3615   3.3671   3.3687   3.3730   3.3828   3.3878   3.3884
     3.3885   3.3887   3.3929   3.4234   3.4645   3.4652   3.4695   3.4699
     3.4768   3.4827   3.4848   3.4852   3.4895   3.4896   3.4922   3.4929
     3.7260   3.7494   3.8956   5.8751   6.1061   6.2191   6.3159   6.3641
     6.3686   6.3760   6.3830   6.4407   6.4825   6.4904   6.5671   6.6128
     6.6141   6.6169   6.6176   6.6212   6.6355   6.6445   6.6512   6.8086
     6.8159   6.8164   6.8180   6.8291   6.8371   6.8420   6.8426   6.8464
     6.8521   6.8570   6.9006   6.9073   6.9198   6.9262   6.9385   6.9394
     6.9481   6.9494   6.9582   6.9606   6.9625   6.9642   6.9866   6.9940
     7.0051   7.0053   7.0175   7.0371   7.0414   7.0531   7.0558   7.1006
     7.1081   7.1092   7.1184   7.1242   7.1720   7.1795   7.1824   7.2374
     7.2527   7.2566   7.2626   7.2648   7.2724   7.2761   7.2883   7.2916
     7.2986   7.3001   7.3006   7.3066   7.3143   7.3175   7.3182   7.3284
     7.3304   7.3672   7.3689   7.3776   7.3874   7.3879   7.3926   7.3956
     7.3957   7.4017   7.4028   7.4066   7.4067   7.4104   7.4175   7.4251
     7.4662   7.4715   7.4716   7.4820   7.4825   7.4829   7.5090   7.5109
     7.5156   7.5171   7.5241   7.5260   7.5269   7.5288   7.5299   7.5356
     7.5615   7.5660   7.5755   7.5778   7.5791   7.5799   7.5819   7.5839
     7.5856   7.6054   7.6070   7.6224   7.6225   7.6329   7.6728   7.6740
     7.6772   7.7925   7.7943   7.8021   7.8035   7.8048   7.8113   7.8240
     7.8262   7.8323   7.8416   7.8438   7.8446   8.0828   8.0862   8.0867
     9.0546   9.0757   9.0769   9.4795   9.4843   9.4958   9.6203   9.6221
     9.6561   9.6751   9.7074   9.7082   9.7118   9.7537   9.7555   9.7961
     9.9383   9.9636   9.9683   9.9734   9.9740   9.9783   9.9822   9.9866
     9.9883  10.0116  10.0241  10.0360  10.1143  10.1185  10.1453  10.1506
    10.1716  10.2032  10.2443  10.2501  10.2505  10.2603  10.2613  10.2663
    10.2821  10.3660  10.3702  10.3731  10.3815  10.3825  10.3910  10.4054
    10.4281  10.4326  10.4385  10.4427  10.4486  10.4620  10.5462  10.5824
    10.5978  10.6177  10.6613  10.6740  10.6753  10.7603  10.7618  10.7748
    10.7960  10.8084  10.8155  10.8231  10.8243  10.8253  10.8268  10.8421
    10.8617  10.8631  10.8641  10.8672  10.8849  10.8913  10.9766  11.0090
    11.0291  11.0297  11.0342  11.0428  11.0590  11.0691

     occupation numbers 
     1.0000   1.0000   1.0000   1.0000   1.0000   1.0000   1.0000   1.0000
     1.0000   1.0000   1.0000   1.0000   1.0000   1.0000   1.0000   1.0000
     1.0000   1.0000   1.0000   1.0000   1.0000   1.0000   1.0000   1.0000
     1.0000   1.0000   1.0000   1.0000   1.0000   1.0000   1.0000   1.0000
     1.0000   1.0000   1.0000   1.0000   1.0000   1.0000   1.0000   1.0000
     1.0000   1.0000   1.0000   1.0000   1.0000   1.0000   1.0000   1.0000
     1.0000   1.0000   1.0000   1.0000   1.0000   1.0000   1.0000   1.0000
     1.0000   1.0000   1.0000   1.0000   1.0000   1.0000   1.0000   1.0000
     1.0000   1.0000   1.0000   1.0000   1.0000   1.0000   1.0000   1.0000
     1.0000   1.0000   1.0000   1.0000   1.0000   1.0000   1.0000   1.0000
     1.0000   1.0000   1.0000   1.0000   1.0000   1.0000   1.0000   1.0000
     1.0000   1.0000   1.0000   1.0000   1.0000   1.0000   1.0000   1.0000
     1.0000   1.0000   1.0000   1.0000   1.0000   1.0000   1.0000   1.0000
     1.0000   1.0000   1.0000   1.0000   1.0000   1.0000   1.0000   1.0000
     1.0000   1.0000   1.0000   1.0000   1.0000   1.0000   1.0000   1.0000
     1.0000   1.0000   1.0000   1.0000   1.0000   1.0000   1.0000   1.0000
     1.0000   1.0000   1.0000   1.0000   1.0000   1.0000   1.0000   1.0000
     1.0000   1.0000   1.0000   1.0000   1.0000   1.0000   1.0000   1.0000
     1.0000   1.0000   1.0000   1.0000   1.0000   1.0000   1.0000   1.0000
     1.0000   1.0000   1.0000   1.0000   1.0000   1.0000   1.0000   1.0000
     1.0000   1.0000   1.0000   1.0000   1.0000   1.0000   1.0000   1.0000
     1.0000   1.0000   1.0000   1.0000   1.0000   1.0000   1.0000   1.0000
     1.0000   1.0000   1.0000   1.0000   1.0000   1.0000   1.0000   1.0000
     1.0000   1.0000   1.0000   1.0000   1.0000   1.0000   1.0000   1.0000
     1.0000   1.0000   1.0000   1.0000   1.0000   1.0000   1.0000   1.0000
     1.0000   1.0000   1.0000   1.0000   1.0000   1.0000   1.0000   1.0000
     1.0000   1.0000   1.0000   1.0000   1.0000   1.0000   1.0000   1.0000
     1.0000   1.0000   1.0000   1.0000   1.0000   1.0000   1.0000   1.0000
     1.0000   1.0000   1.0000   1.0000   1.0000   1.0000   1.0000   1.0000
     1.0000   1.0000   1.0000   1.0000   1.0000   1.0000   1.0000   1.0000
     1.0000   1.0000   1.0000   1.0000   1.0000   1.0000   1.0000   1.0000
     1.0000   1.0000   1.0000   1.0000   1.0000   1.0000   1.0000   1.0000
     1.0000   1.0000   1.0000   1.0000   1.0000   1.0000   1.0000   1.0000
     1.0000   1.0000   1.0000   1.0000   1.0000   1.0000   1.0000   1.0000
     1.0000   1.0000   1.0000   1.0000   1.0000   1.0000   1.0000   1.0000
     1.0000   1.0000   1.0000   1.0000   1.0000   1.0000   1.0000   1.0000
     1.0000   1.0000   1.0000   1.0000   1.0000   1.0000   1.0000   1.0000
     1.0000   1.0000   1.0000   1.0000   1.0000   1.0000   1.0000   1.0000
     1.0000   1.0000   1.0000   1.0000   1.0000   1.0000   1.0000   1.0000
     1.0000   1.0000   1.0000   1.0000   1.0000   1.0000   1.0000   1.0000
     1.0000   1.0000   1.0000   1.0000   1.0000   1.0000   1.0000   1.0000
     1.0000   1.0000   1.0000   1.0000   1.0000   1.0000   1.0000   1.0000
     1.0000   1.0000   1.0000   1.0000   1.0000   1.0000   1.0000   1.0000
     1.0000   1.0000   1.0000   1.0000   1.0000   1.0000   1.0000   1.0000
     1.0000   1.0000   1.0000   1.0000   1.0000   1.0000   1.0000   1.0000
     1.0000   1.0000   1.0000   1.0000   1.0000   1.0000   1.0000   1.0000
     1.0000   1.0000   1.0000   1.0000   1.0000   1.0000   1.0000   1.0000
     1.0000   1.0000   1.0000   1.0000   1.0000   1.0000   1.0000   1.0000
     1.0000   1.0000   1.0000   1.0000   1.0000   1.0000   1.0000   1.0000
     1.0000   1.0000   1.0000   1.0000   1.0000   1.0000   1.0000   1.0000
     1.0000   1.0000   1.0000   1.0000   1.0000   1.0000   1.0000   1.0000
     1.0000   1.0000   1.0000   1.0000   1.0000   1.0000   1.0000   1.0000
     1.0000   1.0000   1.0000   1.0000   1.0000   1.0000   1.0000   1.0000
     1.0000   1.0000   1.0000   1.0000   1.0000   1.0000   1.0000   1.0000
     1.0000   1.0000   1.0000   1.0000   1.0000   1.0000   1.0000   1.0000
     1.0000   1.0000   1.0000   1.0000   1.0000   1.0000   1.0000   1.0000
     1.0000   1.0000   1.0000   1.0000   1.0000   1.0000   1.0000   1.0000
     1.0000   1.0000   1.0000   1.0000   1.0000   1.0000   1.0000   1.0000
     1.0000   1.0000   1.0000   1.0000   1.0000   1.0000   1.0000   1.0000
     1.0000   1.0000   1.0000   1.0000   1.0000   1.0000   1.0000   1.0000
     1.0000   1.0000   1.0000   1.0000   1.0000   1.0000   1.0000   1.0000
     1.0000   1.0000   1.0000   1.0000   1.0000   1.0000   1.0000   1.0000
     1.0000   1.0000   1.0000   1.0000   1.0000   1.0000   1.0000   1.0000
     1.0000   1.0000   1.0000   1.0000   1.0000   1.0000   1.0000   1.0000
     1.0000   1.0000   1.0000   1.0000   1.0000   1.0000   1.0000   1.0000
     1.0000   1.0000   1.0000   1.0000   1.0000   1.0000   1.0000   1.0000
     1.0000   1.0000   1.0000   1.0000   1.0000   1.0000   1.0000   1.0000
     1.0000   1.0000   1.0000   1.0000   1.0000   1.0000   1.0000   1.0000
     1.0000   1.0000   1.0000   1.0000   1.0000   1.0000   1.0000   1.0000
     1.0000   1.0000   1.0000   1.0000   1.0000   1.0000   1.0000   1.0000
     1.0000   1.0000   1.0000   1.0000   1.0000   1.0000   1.0000   1.0000
     1.0000   1.0000   1.0000   1.0000   1.0000   1.0000   1.0000   1.0000
     1.0000   1.0000   1.0000   1.0000   1.0000   1.0000   1.0000   1.0000
     1.0000   1.0000   1.0000   1.0000   1.0000   1.0000   1.0000   1.0000
     1.0000   1.0000   1.0000   1.0000   1.0000   1.0000   1.0000   1.0000
     1.0000   1.0000   1.0000   1.0000   1.0000   1.0000   1.0000   1.0000
     1.0000   1.0000   1.0000   1.0000   1.0000   1.0000   1.0000   1.0000
     1.0000   1.0000   1.0000   1.0000   1.0000   1.0000   1.0000   1.0000
     1.0000   1.0000   1.0000   1.0000   1.0000   1.0000   1.0000   1.0000
     1.0000   1.0000   1.0000   1.0000   1.0000   1.0000   1.0000   1.0000
     1.0000   1.0000   1.0000   1.0000   1.0000   1.0000   1.0000   1.0000
     1.0000   1.0000   1.0000   1.0000   1.0000   1.0000   1.0000   1.0000
     1.0000   1.0000   1.0000   1.0000   1.0000   1.0000   1.0000   1.0000
     1.0000   1.0000   1.0000   1.0000   1.0000   1.0000   1.0000   1.0000
     1.0000   1.0000   1.0000   1.0000   1.0000   1.0000   1.0000   1.0000
     1.0000   1.0000   1.0000   1.0000   1.0000   1.0000   1.0000   1.0000
     1.0000   1.0000   1.0000   1.0000   1.0000   1.0000   1.0000   1.0000
     1.0000   1.0000   1.0000   1.0000   1.0000   1.0000   1.0000   1.0000
     1.0000   1.0000   1.0000   1.0000   1.0000   1.0000   1.0000   1.0000
     1.0000   1.0000   1.0000   1.0000   1.0000   1.0000   1.0000   1.0000
     1.0000   1.0000   1.0000   1.0000   1.0000   1.0000   1.0000   1.0000
     1.0000   1.0000   1.0000   1.0000   1.0000   1.0000   1.0000   1.0000
     1.0000   1.0000   1.0000   1.0000   1.0000   1.0000   1.0000   1.0000
     1.0000   1.0000   1.0000   1.0000   1.0000   1.0000   1.0000   1.0000
     1.0000   1.0000   1.0000   1.0000   1.0000   1.0000   1.0000   1.0000
     1.0000   1.0000   1.0000   1.0000   1.0000   1.0000   1.0000   1.0000
     1.0000   1.0000   1.0000   1.0000   1.0000   1.0000   1.0000   1.0000
     1.0000   1.0000   1.0000   1.0000   1.0000   1.0000   1.0000   1.0000
     1.0000   1.0000   1.0000   1.0000   1.0000   1.0000   1.0000   1.0000
     1.0000   1.0000   1.0000   1.0000   1.0000   1.0000   1.0000   1.0000
     1.0000   1.0000   1.0000   1.0000   1.0000   1.0000   1.0000   1.0000
     1.0000   1.0000   1.0000   1.0000   1.0000   1.0000   1.0000   1.0000
     1.0000   1.0000   1.0000   1.0000   1.0000   1.0000   1.0000   1.0000
     1.0000   1.0000   1.0000   1.0000   1.0000   1.0000   1.0000   1.0000
     1.0000   1.0000   1.0000   1.0000   1.0000   1.0000   1.0000   1.0000
     1.0000   1.0000   1.0000   1.0000   1.0000   1.0000   1.0000   1.0000
     1.0000   1.0000   1.0000   1.0000   1.0000   1.0000   1.0000   1.0000
     1.0000   1.0000   1.0000   1.0000   1.0000   1.0000   1.0000   1.0000
     1.0000   1.0000   1.0000   1.0000   1.0000   1.0000   1.0000   1.0000
     1.0000   1.0000   1.0000   1.0000   1.0000   1.0000   1.0000   1.0000
     1.0000   1.0000   1.0000   1.0000   1.0000   1.0000   1.0000   1.0000
     1.0000   1.0000   1.0000   1.0000   1.0000   1.0000   1.0000   1.0000
     1.0000   1.0000   1.0000   1.0000   1.0000   1.0000   1.0000   1.0000
     1.0000   1.0000   1.0000   1.0000   1.0000   1.0000   1.0000   1.0000
     1.0000   1.0000   1.0000   1.0000   1.0000   1.0000   1.0000   1.0000
     1.0000   1.0000   1.0000   1.0000   1.0000   1.0000   1.0000   1.0000
     1.0000   1.0000   1.0000   1.0000   1.0000   1.0000   1.0000   1.0000
     1.0000   1.0000   1.0000   1.0000   1.0000   1.0000   1.0000   1.0000
     1.0000   1.0000   1.0000   1.0000   1.0000   1.0000   1.0000   1.0000
     1.0000   1.0000   1.0000   1.0000   1.0000   1.0000   1.0000   1.0000
     1.0000   1.0000   1.0000   1.0000   1.0000   1.0000   1.0000   1.0000
     1.0000   1.0000   1.0000   1.0000   1.0000   1.0000   1.0000   1.0000
     1.0000   1.0000   1.0000   1.0000   1.0000   1.0000   1.0000   1.0000
     1.0000   1.0000   1.0000   1.0000   1.0000   1.0000   1.0000   1.0000
     1.0000   1.0000   1.0000   1.0000   1.0000   1.0000   1.0000   1.0000
     1.0000   1.0000   1.0000   1.0000   1.0000   1.0000   1.0000   1.0000
     1.0000   1.0000   1.0000   1.0000   1.0000   1.0000   1.0000   1.0000
     1.0000   1.0000   1.0000   1.0000   1.0000   1.0000   1.0000   1.0000
     1.0000   1.0000   1.0000   1.0000   1.0000   1.0000   1.0000   1.0000
     1.0000   1.0000   1.0000   1.0000   1.0000   1.0000   1.0000   1.0000
     1.0000   1.0000   1.0000   1.0000   1.0000   1.0000   1.0000   1.0000
     1.0000   1.0000   1.0000   1.0000   1.0000   1.0000   1.0000   1.0000
     1.0000   1.0000   1.0000   1.0000   1.0000   1.0000   1.0000   1.0000
     1.0000   1.0000   1.0000   1.0000   1.0000   1.0000   1.0000   1.0000
     1.0000   1.0000   1.0000   1.0000   1.0000   1.0000   1.0000   1.0000
     1.0000   1.0000   1.0000   1.0000   1.0000   1.0000   1.0000   1.0000
     1.0000   1.0000   1.0000   1.0000   1.0000   1.0000   1.0000   1.0000
     1.0000   1.0000   1.0000   1.0000   1.0000   1.0000   1.0000   1.0000
     1.0000   1.0000   1.0000   1.0000   1.0000   1.0000   1.0000   1.0000
     1.0000   1.0000   1.0000   1.0000   1.0000   1.0000   1.0000   1.0000
     1.0000   1.0000   1.0000   1.0000   1.0000   1.0000   0.9999   0.9994
     0.9991   0.9990   0.9988   0.9987   0.9985   0.9979   0.9976   0.9975
     0.9975   0.9975   0.9971   0.9927   0.9782   0.9777   0.9753   0.9750
     0.9705   0.9662   0.9645   0.9642   0.9605   0.9604   0.9581   0.9575
     0.2414   0.1724   0.0069   0.0000   0.0000   0.0000   0.0000   0.0000
     0.0000   0.0000   0.0000   0.0000   0.0000   0.0000   0.0000   0.0000
     0.0000   0.0000   0.0000   0.0000   0.0000   0.0000   0.0000   0.0000
     0.0000   0.0000   0.0000   0.0000   0.0000   0.0000   0.0000   0.0000
     0.0000   0.0000   0.0000   0.0000   0.0000   0.0000   0.0000   0.0000
     0.0000   0.0000   0.0000   0.0000   0.0000   0.0000   0.0000   0.0000
     0.0000   0.0000   0.0000   0.0000   0.0000   0.0000   0.0000   0.0000
     0.0000   0.0000   0.0000   0.0000   0.0000   0.0000   0.0000   0.0000
     0.0000   0.0000   0.0000   0.0000   0.0000   0.0000   0.0000   0.0000
     0.0000   0.0000   0.0000   0.0000   0.0000   0.0000   0.0000   0.0000
     0.0000   0.0000   0.0000   0.0000   0.0000   0.0000   0.0000   0.0000
     0.0000   0.0000   0.0000   0.0000   0.0000   0.0000   0.0000   0.0000
     0.0000   0.0000   0.0000   0.0000   0.0000   0.0000   0.0000   0.0000
     0.0000   0.0000   0.0000   0.0000   0.0000   0.0000   0.0000   0.0000
     0.0000   0.0000   0.0000   0.0000   0.0000   0.0000   0.0000   0.0000
     0.0000   0.0000   0.0000   0.0000   0.0000   0.0000   0.0000   0.0000
     0.0000   0.0000   0.0000   0.0000   0.0000   0.0000   0.0000   0.0000
     0.0000   0.0000   0.0000   0.0000   0.0000   0.0000   0.0000   0.0000
     0.0000   0.0000   0.0000   0.0000   0.0000   0.0000   0.0000   0.0000
     0.0000   0.0000   0.0000   0.0000   0.0000   0.0000   0.0000   0.0000
     0.0000   0.0000   0.0000   0.0000   0.0000   0.0000   0.0000   0.0000
     0.0000   0.0000   0.0000   0.0000   0.0000   0.0000   0.0000   0.0000
     0.0000   0.0000   0.0000   0.0000   0.0000   0.0000   0.0000   0.0000
     0.0000   0.0000   0.0000   0.0000   0.0000   0.0000   0.0000   0.0000
     0.0000   0.0000   0.0000   0.0000   0.0000   0.0000   0.0000   0.0000
     0.0000   0.0000   0.0000   0.0000   0.0000   0.0000   0.0000   0.0000
     0.0000   0.0000   0.0000   0.0000   0.0000   0.0000   0.0000   0.0000
     0.0000   0.0000   0.0000   0.0000   0.0000   0.0000   0.0000   0.0000
     0.0000   0.0000   0.0000   0.0000   0.0000   0.0000

     the Fermi energy is     3.6585 ev

!    total energy              =  -96802.20380295 Ry
     total all-electron energy =  -3345911.397518 Ry
     estimated scf accuracy    <       0.00000005 Ry
     smearing contrib. (-TS)   =      -0.02186742 Ry
     internal energy E=F+TS    =  -96802.18193553 Ry

     The total energy is F=E-TS. E is the sum of the following terms:
     one-electron contribution =  -18026.80350332 Ry
     hartree contribution      =   10055.80083800 Ry
     xc contribution           =   -6822.75795922 Ry
     ewald contribution        =  -14846.52444317 Ry
     one-center paw contrib.   =  -67161.89686781 Ry
      -> PAW hartree energy AE =     191.64793531 Ry
      -> PAW hartree energy PS =    -192.12009023 Ry
      -> PAW xc energy AE      =   -1596.84549381 Ry
      -> PAW xc energy PS      =      66.60657474 Ry
      -> total E_H with PAW    =   10055.32868307 Ry
      -> total E_XC with PAW   =   -8352.99687829 Ry

     convergence has been achieved in  21 iterations


     -----------------------------------------------
     Non-local corr. energy    =      69.34211106 Ry
     -----------------------------------------------


     Forces acting on atoms (cartesian axes, Ry/au):

     atom    1 type  1   force =    -0.00003874    0.00002806    0.00023638
     atom    2 type  1   force =     0.00004175   -0.00004481   -0.00021480
     atom    3 type  1   force =     0.00210093   -0.00142384    0.00143149
     atom    4 type  1   force =     0.00005251   -0.00071919    0.00016713
     atom    5 type  1   force =     0.00048228   -0.00042357   -0.00013690
     atom    6 type  1   force =    -0.00000463    0.00000973   -0.00002195
     atom    7 type  1   force =    -0.00046240   -0.00026861    0.00016262
     atom    8 type  1   force =     0.00046734    0.00029563   -0.00014369
     atom    9 type  1   force =    -0.00207633    0.00141489   -0.00143333
     atom   10 type  1   force =    -0.00048491    0.00042680    0.00015408
     atom   11 type  1   force =    -0.00005010    0.00071971   -0.00013789
     atom   12 type  1   force =    -0.00183598    0.00077835   -0.00106051
     atom   13 type  1   force =    -0.00063149    0.00021261    0.00014921
     atom   14 type  1   force =    -0.00066314   -0.00034449   -0.00014755
     atom   15 type  1   force =    -0.00198831   -0.00280590    0.00037283
     atom   16 type  1   force =    -0.00004320   -0.00062521    0.00021583
     atom   17 type  1   force =    -0.00052455   -0.00034087   -0.00021350
     atom   18 type  1   force =     0.00033682   -0.00083063   -0.00034651
     atom   19 type  1   force =    -0.00000334   -0.00080781   -0.00021389
     atom   20 type  1   force =     0.00001046    0.00022048   -0.00018660
     atom   21 type  1   force =    -0.00088460    0.00038732   -0.00023008
     atom   22 type  1   force =    -0.00069743    0.00040375   -0.00021644
     atom   23 type  1   force =     0.00017525   -0.00009964   -0.00020064
     atom   24 type  1   force =    -0.00000053   -0.00000929   -0.00001322
     atom   25 type  1   force =     0.00000502    0.00053390    0.00017783
     atom   26 type  1   force =    -0.00001180   -0.00055861   -0.00016278
     atom   27 type  1   force =    -0.00093795   -0.00002763    0.00030022
     atom   28 type  1   force =     0.00017214    0.00010842    0.00020170
     atom   29 type  1   force =    -0.00067480   -0.00038989    0.00022013
     atom   30 type  1   force =    -0.00000034    0.00001266   -0.00002026
     atom   31 type  1   force =     0.00048381   -0.00027718    0.00012717
     atom   32 type  1   force =    -0.00048937    0.00029493   -0.00012316
     atom   33 type  1   force =     0.00094998    0.00003799   -0.00034058
     atom   34 type  1   force =     0.00066976    0.00039195   -0.00020194
     atom   35 type  1   force =    -0.00017800   -0.00011253   -0.00019567
     atom   36 type  1   force =     0.00185796   -0.00080655    0.00104583
     atom   37 type  1   force =     0.00066293    0.00032430    0.00016550
     atom   38 type  1   force =     0.00063274   -0.00022583   -0.00012850
     atom   39 type  1   force =     0.00087992   -0.00037837    0.00020021
     atom   40 type  1   force =    -0.00017135    0.00009905    0.00020895
     atom   41 type  1   force =     0.00070015   -0.00040177    0.00024911
     atom   42 type  1   force =    -0.00033497    0.00084919    0.00030575
     atom   43 type  1   force =    -0.00000890   -0.00019667    0.00018991
     atom   44 type  1   force =     0.00000243    0.00082756    0.00024090
     atom   45 type  1   force =     0.00196461    0.00281907   -0.00037574
     atom   46 type  1   force =     0.00052228    0.00034491    0.00021760
     atom   47 type  1   force =     0.00004734    0.00062589   -0.00019489
     atom   48 type  2   force =     0.00011708   -0.00019521   -0.00022586
     atom   49 type  2   force =    -0.00001389   -0.00015059   -0.00015401
     atom   50 type  2   force =     0.00021414   -0.00845951   -0.00349124
     atom   51 type  2   force =    -0.00021188    0.00010629   -0.00007380
     atom   52 type  2   force =    -0.00012901    0.00008206   -0.00018027
     atom   53 type  2   force =     0.00483258   -0.00286717    0.00337936
     atom   54 type  2   force =     0.00003243    0.00010296   -0.00054008
     atom   55 type  2   force =    -0.00046702   -0.00018478   -0.00019210
     atom   56 type  2   force =    -0.00059510    0.00070921   -0.00023952
     atom   57 type  2   force =     0.00012323   -0.00005888   -0.00054990
     atom   58 type  2   force =    -0.00037338   -0.00031942   -0.00018664
     atom   59 type  2   force =     0.00042260   -0.00077618   -0.00065978
     atom   60 type  2   force =    -0.00005118    0.00003110   -0.00069027
     atom   61 type  2   force =    -0.00003859    0.00001941   -0.00054316
     atom   62 type  2   force =     0.00065818   -0.00031119   -0.00000330
     atom   63 type  2   force =     0.00024119   -0.00001771   -0.00019859
     atom   64 type  2   force =     0.00012452    0.00009701   -0.00015200
     atom   65 type  2   force =     0.00521246    0.00271526   -0.00225657
     atom   66 type  2   force =    -0.00000643    0.00044402   -0.00049169
     atom   67 type  2   force =     0.00002700   -0.00006016   -0.00058436
     atom   68 type  2   force =    -0.00010902    0.00087278   -0.00012635
     atom   69 type  2   force =     0.00029325    0.00005253   -0.00056715
     atom   70 type  2   force =    -0.00012220   -0.00005862   -0.00034863
     atom   71 type  2   force =     0.00002863    0.00000796   -0.00027467
     atom   72 type  2   force =     0.00009134   -0.00028149   -0.00059053
     atom   73 type  2   force =    -0.00000852    0.00014009   -0.00033979
     atom   74 type  2   force =     0.00000906    0.00001583   -0.00026376
[...]
                                0.00      0.00      0.00

     DFT-D   stress (kbar)      0.00      0.00      0.00
                                0.00      0.00      0.00
                                0.00      0.00      0.00

     XDM     stress (kbar)      0.00      0.00      0.00
                                0.00      0.00      0.00
                                0.00      0.00      0.00

     dft-nl  stress (kbar)     83.67      0.01     -0.02
                                0.01     83.70      0.01
                               -0.02      0.01     84.91

     TS-vdW  stress (kbar)      0.00      0.00      0.00
                                0.00      0.00      0.00
                                0.00      0.00      0.00

     MDB     stress (kbar)      0.00      0.00      0.00
                                0.00      0.00      0.00
                                0.00      0.00      0.00

     3D-RISM stress (kbar)      0.00      0.00      0.00
                                0.00      0.00      0.00
                                0.00      0.00      0.00

     Energy error            =      1.8E-03 Ry
     Gradient error          =      1.2E-02 Ry/Bohr

     number of scf cycles    =  25
     number of bfgs steps    =  24

     energy             old  =  -96802.2115209452 Ry
     energy             new  =  -96802.2133102204 Ry

     CASE: energy            _new < energy            _old

     new trust radius        =       0.1628805323 bohr
     new conv_thr            =       0.0000000120 Ry


ATOMIC_POSITIONS (angstrom)
Pb            2.3566867984        4.0789392225        7.4259321478
Pb            2.3542848533        4.0798398904       14.7075991745
Pb            0.0317658000        8.2348042625       22.2171672786
Pb           -0.0112629232        8.1445028307        7.3886007010
Pb            0.0083572344        8.1556959016       14.7517515936
Pb           -2.3555327883       12.2389851808       22.1324283577
Pb           -2.3741916546       12.2302669133        7.3780716937
Pb           -2.3372932274       12.2499092996       14.7558895278
Pb           -4.7415818727       16.2429120249       22.0496721181
Pb           -4.7200526660       16.3238007858        7.3819695237
Pb           -4.7002210513       16.3350837163       14.7456839383
Pb            7.1603821800        4.1108393370       22.0921121510
Pb            7.0580891476        4.0854025205        7.3819294878
Pb            7.0580761324        4.0625242567       14.7461896520
Pb            4.6919327339        8.1919956130       22.1741318270
Pb            4.7250658881        8.1438346519        7.3908268308
Pb            4.6911270952        8.1633127705       14.7435098981
Pb            2.3692283569       12.2718845769       22.1072168764
Pb            2.3544595900       12.2074786217        7.2835914970
Pb            2.3554624252       12.2529213968       14.7360131909
Pb            0.0098810278       16.3012887420       22.1209875189
Pb           -0.0365917972       16.3414071341        7.2766940958
Pb            0.0125686929       16.3129615779       14.7360076200
Pb           11.7784790149        4.0796101579       22.1326739182
Pb           11.7776703727        4.1000075385        7.3789534177
Pb           11.7788152267        4.0590394401       14.7546426799
Pb            9.4377964393        8.1973871088       22.1552427541
Pb            9.4340756087        8.1657697667        7.3982328995
Pb            9.3975281835        8.1434845974       14.8502772739
Pb            7.0674209498       12.2396714324       22.1319702700
Pb            7.0872289823       12.2286355095        7.3777229715
Pb            7.0471625952       12.2516372774       14.7552379085
Pb            4.6966910034       16.2825382108       22.1089158848
Pb            4.7368390309       16.3364168940        7.2833432744
Pb            4.7001287391       16.3140978225       14.7351768249
Pb           16.3976369864        4.0478949173       22.1735671014
Pb           16.4980906320        4.0963626889        7.3876782567
Pb           16.4984406638        4.0737087836       14.7517474403
Pb           14.1243907851        8.1785425774       22.1438918257
Pb           14.1214450890        8.1668040168        7.3972017092
Pb           14.1706872752        8.1381113083       14.8577654331
Pb           11.7644625377       12.2073681374       22.1575893385
Pb           11.7785569222       12.2273725918        7.3973575803
Pb           11.7794566446       12.2722183077       14.8504219689
Pb            9.4418044877       16.2863254195       22.0906274892
Pb            9.4424738339       16.3163154843        7.3895648584
Pb            9.4090371731       16.3360246929       14.7430527111
I             2.3588866842        1.3490922192        5.5113904420
I             2.3532142478        1.3446308181       12.8361668977
I             2.3608851878        1.1822513367       20.0706002564
I            -0.0118360016        5.4408725917        5.5153785926
I            -0.0160338051        5.4493368440       12.8366968863
I             0.3310312792        5.2542282016       20.2863546797
I            -2.3672628628        9.5181806854        5.5004101342
I            -2.3930895107        9.5026969216       12.8801975583
I            -2.3354045049        9.5263687653       20.2598575043
I            -4.7179771052       13.5904905662        5.5027884023
I            -4.7412858051       13.5725852941       12.8739216742
I            -4.6933443486       13.6217239842       20.2308635824
I             7.0006724155        1.3975921507        5.4246986772
I             7.0668485814        1.3595648021       12.8256147887
I             7.0881309594        1.3538156039       20.2653183385
I             4.7243761650        5.4376971427        5.5148126170
I             4.7235143020        5.4501093205       12.8373754441
I             4.6393100246        5.3815035044       20.1725973452
I             2.3551100642        9.4739744581        5.4202858221
I             2.3565268948        9.5210229587       12.8306184516
I             2.3553003997        9.5514228918       20.2633732025
I            -0.0156445782       13.5851430106        5.4531429680
I            -0.0019501691       13.5971370247       12.8120437798
I             0.0044358580       13.5946663548       20.2372107670
I            11.7838243389        1.3826068060        5.4503885055
I            11.7799370781        1.3640959938       12.8119429152
I            11.7850180618        1.3638827314       20.2402720453
I             9.4292949402        5.4493309847        5.5028049081
I             9.4319489882        5.4806407875       12.8759312222
I             9.3995318697        5.4070409406       20.2299872186
I             7.0783538093        9.5179541112        5.4989419918
I             7.1025303848        9.5028742248       12.8803172363
I             7.0520869520        9.5276307677       20.2521187742
I             4.7239980770       13.5934011667        5.4539626000
I             4.7124279122       13.5995083880       12.8141178016
I             4.7077050266       13.6017523015       20.2275383488
I            16.5435875021        1.3909280632        5.4061863114
I            16.4884771466        1.3580753645       12.8289393404
I            16.4614265094        1.3509424062       20.2669540596
I            14.1291684182        5.4485923700        5.5008881799
I            14.1281813462        5.4806910006       12.8795351404
I            14.1489066443        5.4068792627       20.2564004218
I            11.7790306896        9.5195709723        5.5096032587
I            11.7756402210        9.5182543877       12.9714516609
I            11.7724775402        9.5221630720       20.2384694777
I             9.4297539158       13.5931295519        5.4993276607
I             9.4534481533       13.5770914166       12.8775758984
I             9.4024624050       13.6089443448       20.2483063172
I             0.0736350713        2.7734036390        1.9566050371
I            -0.0153561283        2.7106750696        9.2960195400
I            -0.0149467091        2.7233724334       16.6187691464
I            -2.3751496110        6.8040580813        1.8655755791
I            -2.3548325472        6.7987997399        9.3085231618
I            -2.2883520451        6.7606781273       16.7084628387
I            -4.7147456160       10.8831341566        1.8941461607
I            -4.7082312267       10.8806971202        9.3232066553
I            -4.6937665096       10.8920644558       16.6806980999
I            -7.0680564791       14.9266286047        1.8699602762
I            -7.0696967280       14.9585745290        9.3037936726
I            -7.0671614976       15.0046349362       16.7140498255
I             4.3768444986        2.9273107948        1.8463347052
I             4.7250932905        2.7109089927        9.2973508615
I             4.7221125556        2.7185540388       16.6182887850
I             2.3493235024        6.9766632660        2.0560681228
I             2.3552238431        6.8162397048        9.2969438111
I             2.3497179542        6.8105274229       16.6219651414
I            -0.0177194400       10.8564817124        1.9003558739
I             0.0305458574       10.9048574151        9.2599101265
I             0.0061390113       10.8873757306       16.6302387229
I            -2.3741247504       14.9506909914        1.8716782377
I            -2.3172179169       14.9750286848        9.2552840142
I            -2.3429774941       14.9595525549       16.6335537152
I             9.4122940364        2.7506597013        1.8753356864
I             9.4313193182        2.6785311521        9.2561998319
I             9.4296903261        2.7106326814       16.6331236592
I             7.0951389871        6.8108512422        1.8646674181
I             7.0676453441        6.8029769165        9.3053491569
I             7.0131747085        6.7685833419       16.7269894018
I             4.7312285350       10.8687834407        1.8815092326
I             4.6793707037       10.9037280238        9.2556829495
I             4.7027684802       10.8875188807       16.6334566927
I             2.3630276138       14.9568592545        1.8924206607
I             2.3606241534       14.9607409911        9.1624917274
I             2.3555550302       14.9600581197       16.6233976785
I            14.1590203402        2.7520366320        1.9013124319
I            14.1268280406        2.6791035226        9.2585882313
I            14.1286584845        2.7113169855       16.6303843982
I            11.7736681874        6.7954504551        1.8908076642
I            11.7791938476        6.7953081630        9.3237789157
I            11.7762329615        6.7764290287       16.6834350668
I             9.4258285521       10.8781650265        1.9042466372
I             9.4210162677       10.8811953967        9.3203412924
I             9.4106611687       10.8866954013       16.6794474475
I             7.0819721209       14.9525178583        1.8790845279
I             7.0303696543       14.9780341769        9.2532547161
I             7.0543757356       14.9631376168       16.6341783129
I             2.3482562979        4.0832949979       22.1323639519



     Writing config-only to output data dir ./PbI2.save/
     NEW-OLD atomic charge density approx. for the potential

     Check: negative core charge=   -0.000001


     -----------------------------------------------
     Non-local corr. energy    =      69.35002522 Ry
     -----------------------------------------------


     total cpu time spent up to now is   152055.3 secs

     Self-consistent Calculation

     iteration #  1     ecut=    70.00 Ry     beta= 0.70
     Davidson diagonalization with overlap

---- Real-time Memory Report at c_bands before calling an iterative solver
          2786 MiB given to the printing process from OS
             0 MiB allocation reported by mallinfo(arena+hblkhd)
       1890073 MiB available memory on the node where the printing process lives
------------------
     ethr =  1.00E-06,  avg # of iterations = 14.0


     -----------------------------------------------
     Non-local corr. energy    =      69.29991450 Ry
     -----------------------------------------------


     total cpu time spent up to now is   152535.1 secs

     total energy              =  -96802.07294993 Ry
     estimated scf accuracy    <       0.20495054 Ry

     iteration #  2     ecut=    70.00 Ry     beta= 0.70
     Davidson diagonalization with overlap

---- Real-time Memory Report at c_bands before calling an iterative solver
          2786 MiB given to the printing process from OS
             0 MiB allocation reported by mallinfo(arena+hblkhd)
       1875800 MiB available memory on the node where the printing process lives
------------------
     ethr =  8.90E-06,  avg # of iterations = 11.0


     -----------------------------------------------
     Non-local corr. energy    =      69.31554347 Ry
     -----------------------------------------------


     total cpu time spent up to now is   152917.9 secs

     total energy              =  -96802.13340703 Ry
     estimated scf accuracy    <       0.46552746 Ry

     iteration #  3     ecut=    70.00 Ry     beta= 0.70
     Davidson diagonalization with overlap

---- Real-time Memory Report at c_bands before calling an iterative solver
          2786 MiB given to the printing process from OS
             0 MiB allocation reported by mallinfo(arena+hblkhd)
       1875752 MiB available memory on the node where the printing process lives
------------------
     ethr =  8.90E-06,  avg # of iterations = 17.0


     -----------------------------------------------
     Non-local corr. energy    =      69.32036731 Ry
     -----------------------------------------------


     total cpu time spent up to now is   153553.6 secs

     total energy              =  -96802.14654606 Ry
     estimated scf accuracy    <       0.61601978 Ry

     iteration #  4     ecut=    70.00 Ry     beta= 0.70
     Davidson diagonalization with overlap

---- Real-time Memory Report at c_bands before calling an iterative solver
          2786 MiB given to the printing process from OS
             0 MiB allocation reported by mallinfo(arena+hblkhd)
       1875710 MiB available memory on the node where the printing process lives
------------------
     ethr =  8.90E-06,  avg # of iterations = 18.0


     -----------------------------------------------
     Non-local corr. energy    =      69.32334580 Ry
     -----------------------------------------------


     total cpu time spent up to now is   154151.4 secs

     total energy              =  -96802.17741452 Ry
     estimated scf accuracy    <       0.89785430 Ry

     iteration #  5     ecut=    70.00 Ry     beta= 0.70
     Davidson diagonalization with overlap

---- Real-time Memory Report at c_bands before calling an iterative solver
          2786 MiB given to the printing process from OS
             0 MiB allocation reported by mallinfo(arena+hblkhd)
       1875677 MiB available memory on the node where the printing process lives
------------------
     ethr =  8.90E-06,  avg # of iterations = 18.0


     -----------------------------------------------
     Non-local corr. energy    =      69.32722948 Ry
     -----------------------------------------------


     total cpu time spent up to now is   154617.5 secs

     total energy              =  -96802.21067720 Ry
     estimated scf accuracy    <       0.06057662 Ry

     iteration #  6     ecut=    70.00 Ry     beta= 0.70
     Davidson diagonalization with overlap

---- Real-time Memory Report at c_bands before calling an iterative solver
          2786 MiB given to the printing process from OS
             0 MiB allocation reported by mallinfo(arena+hblkhd)
       1875560 MiB available memory on the node where the printing process lives
------------------

     Maximum CPU time exceeded

     max_seconds     =  154800.00
     elapsed seconds =  154817.24
     Calculation stopped in k-point loop, point #     1
     Calculation stopped in scf loop at iteration #     5

     Writing config to output data dir ./PbI2.save/
     Message from routine punch:
     wavefunctions written to file
 
     init_run     :      7.61s CPU      9.55s WALL (       1 calls)
     electrons    : 147876.00s CPU 149927.19s WALL (      13 calls)
     update_pot   :     32.57s CPU     32.86s WALL (      12 calls)
     forces       :    240.49s CPU    248.86s WALL (      12 calls)
     stress       :   4446.17s CPU   4514.35s WALL (      12 calls)

     Called by init_run:
     wfcinit      :      0.50s CPU      1.73s WALL (       1 calls)
     potinit      :      1.74s CPU      1.99s WALL (       1 calls)
     hinit0       :      1.09s CPU      1.20s WALL (       1 calls)

     Called by electrons:
     c_bands      : 145428.71s CPU 147333.58s WALL (     242 calls)
     sum_band     :   1940.47s CPU   2026.86s WALL (     241 calls)
     v_of_rho     :    202.44s CPU    209.60s WALL (     249 calls)
     v_h          :      2.80s CPU      2.84s WALL (     249 calls)
     v_xc         :    219.02s CPU    226.43s WALL (     273 calls)
     newd         :    136.31s CPU    185.72s WALL (     249 calls)
     PAW_pot      :    149.72s CPU    151.17s WALL (     261 calls)
     mix_rho      :     12.19s CPU     12.81s WALL (     241 calls)
     vdW_kernel   :      0.25s CPU      0.25s WALL (       1 calls)

     Called by c_bands:
     init_us_2    :     51.39s CPU     52.13s WALL (     494 calls)
     init_us_2:cp :     51.39s CPU     52.12s WALL (     494 calls)
     cegterg      : 145298.80s CPU 147060.76s WALL (     241 calls)

     Called by sum_band:
     sum_band:wei :      0.29s CPU      0.31s WALL (     241 calls)
     sum_band:loo :   1802.22s CPU   1816.62s WALL (     241 calls)
     sum_band:buf :      0.00s CPU      0.00s WALL (     241 calls)
     sum_band:ini :     37.82s CPU     38.31s WALL (     241 calls)
     sum_band:cal :   1011.67s CPU   1020.21s WALL (     253 calls)
     sum_band:bec :     10.72s CPU     10.88s WALL (     253 calls)
     addusdens    :    121.11s CPU    181.24s WALL (     241 calls)
     addusd:skk   :      6.95s CPU     21.51s WALL (     482 calls)
     addusd:dgemm :     67.51s CPU    110.98s WALL (     482 calls)
     addusd:qvan2 :     44.16s CPU     44.62s WALL (     482 calls)

     Called by *egterg:
     cdiaghg      : 123527.18s CPU 124373.13s WALL (    4588 calls)
     cegterg:over :   4654.65s CPU   4774.37s WALL (    4364 calls)
     cegterg:upda :   2792.48s CPU   2836.91s WALL (    4364 calls)
     cegterg:last :   1334.10s CPU   1344.66s WALL (     246 calls)
     h_psi        :   9044.54s CPU   9175.80s WALL (    4605 calls)
     s_psi        :   2541.23s CPU   2581.70s WALL (    4605 calls)
     g_psi        :     12.63s CPU     12.79s WALL (    4364 calls)

     Called by h_psi:
     h_psi:calbec :   2790.02s CPU   2810.20s WALL (    4605 calls)
     vloc_psi     :   3667.47s CPU   3699.00s WALL (    4605 calls)
     add_vuspsi   :   2543.74s CPU   2590.73s WALL (    4605 calls)

     General routines
     calbec       :   4038.43s CPU   4069.10s WALL (    4918 calls)
     fft          :    158.89s CPU    160.69s WALL (   17708 calls)
     ffts         :      7.70s CPU      7.86s WALL (     490 calls)
     fftw         :   4229.01s CPU   4264.46s WALL ( 2070214 calls)
     interpolate  :      4.79s CPU      4.85s WALL (     249 calls)
     davcio       :      0.00s CPU      1.24s WALL (      20 calls)
 
     Parallel routines

     PAW routines
     PAW_pot      :    149.72s CPU    151.17s WALL (     261 calls)
 
     PWSCF        :   1d18h24m CPU   1d19h 0m WALL

 
   This run was terminated on:   4:50: 2  29Mar2024            

=------------------------------------------------------------------------------=
   JOB DONE.
=------------------------------------------------------------------------------=
