
     Program PWSCF v.7.1 starts on 24Mar2024 at 21:31:13 

     This program is part of the open-source Quantum ESPRESSO suite
     for quantum simulation of materials; please cite
         "P. Giannozzi et al., J. Phys.:Condens. Matter 21 395502 (2009);
         "P. Giannozzi et al., J. Phys.:Condens. Matter 29 465901 (2017);
         "P. Giannozzi et al., J. Chem. Phys. 152 154105 (2020);
          URL http://www.quantum-espresso.org", 
     in publications or presentations arising from this work. More details at
     http://www.quantum-espresso.org/quote

     Parallel version (MPI & OpenMP), running on     128 processor cores
     Number of MPI processes:               128
     Threads/MPI process:                     1

     MPI processes distributed on     1 nodes
     1998879 MiB available memory on the printing compute node when the environment starts
 
     Reading input from espresso.pwi
Warning: card &CELL ignored
Warning: card    CELL_DYNAMICS    = 'BFGS' ignored
Warning: card / ignored

     Current dimensions of program PWSCF are:
     Max number of different atomic species (ntypx) = 10
     Max number of k-points (npk) =  40000
     Max angular momentum in pseudopotentials (lmaxx) =  4
     file Pb.pbe-dn-kjpaw_psl.1.0.0.UPF: wavefunction(s)  6S 6P 5D renormalized
     file I.pbe-dn-kjpaw_psl.1.0.0.UPF: wavefunction(s)  5S 5P renormalized

     **************************************************************************
     Initializing libbeef V0.1.2 with the BEEF-vdW functional.
     Citation: Wellendorff et al., PRB 85, 235149 (2012).
     **************************************************************************


     IMPORTANT: XC functional enforced from input :
     Exchange-correlation= BEEF-VDW
                           (   1   4  43  14   2   0   0)
     Any further DFT definition will be discarded
     Please, verify this is what you really want

 
     R & G space division:  proc/nbgrp/npool/nimage =     128
     Subspace diagonalization in iterative solution of the eigenvalue problem:
     a serial algorithm will be used

 
     Parallelization info
     --------------------
     sticks:   dense  smooth     PW     G-vecs:    dense   smooth      PW
     Min         238     190     47                39674    28384    3543
     Max         239     191     48                39685    28397    3554
     Sum       30589   24439   6121              5079105  3634441  454335
 
     Using Slab Decomposition
 


     bravais-lattice index     =            4
     lattice parameter (alat)  =      35.6120  a.u.
     unit-cell volume          =   45937.3577 (a.u.)^3
     number of atoms/cell      =          144
     number of atomic types    =            2
     number of electrons       =      2304.00
     number of Kohn-Sham states=         1382
     kinetic-energy cutoff     =      70.0000  Ry
     charge density cutoff     =     350.0000  Ry
     scf convergence threshold =      1.0E-07
     mixing beta               =       0.7000
     number of iterations used =            8  plain     mixing
     energy convergence thresh.=      1.0E-04
     force convergence thresh. =      1.0E-03
     Exchange-correlation= BEEF-VDW
                           (   1   4  43  14   2   0   0)
     nstep                     =           50


     celldm(1)=  35.612033  celldm(2)=   0.000000  celldm(3)=   1.174479
     celldm(4)=   0.000000  celldm(5)=   0.000000  celldm(6)=   0.000000

     crystal axes: (cart. coord. in units of alat)
               a(1) = (   1.000000   0.000000   0.000000 )  
               a(2) = (  -0.500000   0.866025   0.000000 )  
               a(3) = (   0.000000   0.000000   1.174479 )  

     reciprocal axes: (cart. coord. in units 2 pi/alat)
               b(1) = (  1.000000  0.577350 -0.000000 )  
               b(2) = (  0.000000  1.154701  0.000000 )  
               b(3) = (  0.000000 -0.000000  0.851442 )  


     PseudoPot. # 1 for Pb read from file:
     /trace/group/acmegroup/atimmins/packages/espresso/pseudo/psl_1.0.0/pslibrary.1.0.0/pbe/PSEUDOPOTENTIALS/Pb.pbe-dn-kjpaw_psl.1.0.0.UPF
     MD5 check sum: 39ab5b8a6bbd56b7735ad9f188aac93a
     Pseudo is Projector augmented-wave + core cor, Zval = 14.0
     Generated using 'atomic' code by A. Dal Corso  v.7.1
     Shape of augmentation charge: PSQ
     Using radial grid of 1281 points,  6 beta functions with: 
                l(1) =   0
                l(2) =   0
                l(3) =   1
                l(4) =   1
                l(5) =   2
                l(6) =   2
     Q(r) pseudized with 0 coefficients 


     PseudoPot. # 2 for I  read from file:
     /trace/group/acmegroup/atimmins/packages/espresso/pseudo/psl_1.0.0/pslibrary.1.0.0/pbe/PSEUDOPOTENTIALS/I.pbe-dn-kjpaw_psl.1.0.0.UPF
     MD5 check sum: bfa8781bc1224d19af3f3980e3fab11e
     Pseudo is Projector augmented-wave + core cor, Zval = 17.0
     Generated using 'atomic' code by A. Dal Corso  v.7.1
     Shape of augmentation charge: PSQ
     Using radial grid of 1247 points,  6 beta functions with: 
                l(1) =   0
                l(2) =   0
                l(3) =   1
                l(4) =   1
                l(5) =   2
                l(6) =   2
     Q(r) pseudized with 0 coefficients 


     atomic species   valence    mass     pseudopotential
        Pb            14.00   207.20000     Pb( 1.00)
        I             17.00   126.90447     I ( 1.00)

     No symmetry found


                                    s                        frac. trans.

      isym =  1     identity                                     

 cryst.   s( 1) = (     1          0          0      )
                  (     0          1          0      )
                  (     0          0          1      )

 cart.    s( 1) = (  1.0000000  0.0000000  0.0000000 )
                  (  0.0000000  1.0000000  0.0000000 )
                  (  0.0000000  0.0000000  1.0000000 )


     point group C_1 (1)    
     there are  1 classes
     the character table:

       E    
A      1.00

     the symmetry operations in each class and the name of the first element:

     E        1
          identity                                               

   Cartesian axes

     site n.     atom                  positions (alat units)
         1           Pb  tau(   1) = (   0.1250034   0.2164918   0.3914896  )
         2           Pb  tau(   2) = (   0.1250085   0.2164873   0.7829825  )
         3           Pb  tau(   3) = (   0.0000128   0.4329881   1.1744712  )
         4           Pb  tau(   4) = (   0.0000026   0.4329971   0.3914855  )
         5           Pb  tau(   5) = (   0.0000077   0.4329926   0.7829784  )
         6           Pb  tau(   6) = (  -0.1249881   0.6494934   1.1744671  )
         7           Pb  tau(   7) = (  -0.1249983   0.6495025   0.3914814  )
         8           Pb  tau(   8) = (  -0.1249932   0.6494980   0.7829742  )
         9           Pb  tau(   9) = (  -0.2499889   0.8659988   1.1744630  )
        10           Pb  tau(  10) = (  -0.2499991   0.8660078   0.3914773  )
        11           Pb  tau(  11) = (  -0.2499940   0.8660033   0.7829701  )
        12           Pb  tau(  12) = (   0.3750136   0.2164818   1.1744786  )
        13           Pb  tau(  13) = (   0.3750034   0.2164908   0.3914929  )
        14           Pb  tau(  14) = (   0.3750085   0.2164863   0.7829857  )
        15           Pb  tau(  15) = (   0.2500128   0.4329871   1.1744745  )
        16           Pb  tau(  16) = (   0.2500026   0.4329962   0.3914888  )
        17           Pb  tau(  17) = (   0.2500077   0.4329916   0.7829816  )
        18           Pb  tau(  18) = (   0.1250119   0.6494925   1.1744703  )
        19           Pb  tau(  19) = (   0.1250017   0.6495015   0.3914847  )
        20           Pb  tau(  20) = (   0.1250068   0.6494970   0.7829775  )
        21           Pb  tau(  21) = (   0.0000111   0.8659978   1.1744662  )
        22           Pb  tau(  22) = (   0.0000009   0.8660069   0.3914805  )
        23           Pb  tau(  23) = (   0.0000060   0.8660024   0.7829734  )
        24           Pb  tau(  24) = (   0.6250136   0.2164808   1.1744818  )
        25           Pb  tau(  25) = (   0.6250034   0.2164898   0.3914962  )
        26           Pb  tau(  26) = (   0.6250085   0.2164853   0.7829890  )
        27           Pb  tau(  27) = (   0.5000128   0.4329862   1.1744777  )
        28           Pb  tau(  28) = (   0.5000026   0.4329952   0.3914920  )
        29           Pb  tau(  29) = (   0.5000077   0.4329907   0.7829849  )
        30           Pb  tau(  30) = (   0.3750119   0.6494915   1.1744736  )
        31           Pb  tau(  31) = (   0.3750017   0.6495006   0.3914879  )
        32           Pb  tau(  32) = (   0.3750068   0.6494960   0.7829808  )
        33           Pb  tau(  33) = (   0.2500111   0.8659969   1.1744695  )
        34           Pb  tau(  34) = (   0.2500009   0.8660059   0.3914838  )
        35           Pb  tau(  35) = (   0.2500060   0.8660014   0.7829766  )
        36           Pb  tau(  36) = (   0.8750136   0.2164798   1.1744851  )
        37           Pb  tau(  37) = (   0.8750034   0.2164889   0.3914994  )
        38           Pb  tau(  38) = (   0.8750085   0.2164844   0.7829923  )
        39           Pb  tau(  39) = (   0.7500128   0.4329852   1.1744810  )
        40           Pb  tau(  40) = (   0.7500026   0.4329942   0.3914953  )
        41           Pb  tau(  41) = (   0.7500077   0.4329897   0.7829881  )
        42           Pb  tau(  42) = (   0.6250119   0.6494906   1.1744769  )
        43           Pb  tau(  43) = (   0.6250017   0.6494996   0.3914912  )
        44           Pb  tau(  44) = (   0.6250068   0.6494951   0.7829840  )
        45           Pb  tau(  45) = (   0.5000111   0.8659959   1.1744727  )
        46           Pb  tau(  46) = (   0.5000009   0.8660050   0.3914870  )
        47           Pb  tau(  47) = (   0.5000060   0.8660004   0.7829799  )
        48           I   tau(  48) = (   0.1250054   0.0721550   0.2909325  )
        49           I   tau(  49) = (   0.1250105   0.0721505   0.6824253  )
        50           I   tau(  50) = (   0.1250156   0.0721459   1.0739182  )
        51           I   tau(  51) = (   0.0000045   0.2886603   0.2909283  )
        52           I   tau(  52) = (   0.0000096   0.2886558   0.6824212  )
        53           I   tau(  53) = (   0.0000147   0.2886513   1.0739140  )
        54           I   tau(  54) = (  -0.1249963   0.5051657   0.2909242  )
        55           I   tau(  55) = (  -0.1249912   0.5051612   0.6824171  )
        56           I   tau(  56) = (  -0.1249861   0.5051566   1.0739099  )
        57           I   tau(  57) = (  -0.2499971   0.7216710   0.2909201  )
        58           I   tau(  58) = (  -0.2499920   0.7216665   0.6824129  )
        59           I   tau(  59) = (  -0.2499869   0.7216620   1.0739058  )
        60           I   tau(  60) = (   0.3750054   0.0721540   0.2909357  )
        61           I   tau(  61) = (   0.3750105   0.0721495   0.6824286  )
        62           I   tau(  62) = (   0.3750156   0.0721450   1.0739214  )
        63           I   tau(  63) = (   0.2500045   0.2886594   0.2909316  )
        64           I   tau(  64) = (   0.2500096   0.2886548   0.6824244  )
        65           I   tau(  65) = (   0.2500147   0.2886503   1.0739173  )
        66           I   tau(  66) = (   0.1250037   0.5051647   0.2909275  )
        67           I   tau(  67) = (   0.1250088   0.5051602   0.6824203  )
        68           I   tau(  68) = (   0.1250139   0.5051557   1.0739132  )
        69           I   tau(  69) = (   0.0000029   0.7216701   0.2909233  )
        70           I   tau(  70) = (   0.0000080   0.7216656   0.6824162  )
        71           I   tau(  71) = (   0.0000131   0.7216610   1.0739090  )
        72           I   tau(  72) = (   0.6250054   0.0721530   0.2909390  )
        73           I   tau(  73) = (   0.6250105   0.0721485   0.6824318  )
        74           I   tau(  74) = (   0.6250156   0.0721440   1.0739247  )
        75           I   tau(  75) = (   0.5000045   0.2886584   0.2909348  )
        76           I   tau(  76) = (   0.5000096   0.2886539   0.6824277  )
        77           I   tau(  77) = (   0.5000147   0.2886494   1.0739205  )
        78           I   tau(  78) = (   0.3750037   0.5051638   0.2909307  )
        79           I   tau(  79) = (   0.3750088   0.5051592   0.6824236  )
        80           I   tau(  80) = (   0.3750139   0.5051547   1.0739164  )
        81           I   tau(  81) = (   0.2500029   0.7216691   0.2909266  )
        82           I   tau(  82) = (   0.2500080   0.7216646   0.6824194  )
        83           I   tau(  83) = (   0.2500131   0.7216601   1.0739123  )
        84           I   tau(  84) = (   0.8750054   0.0721521   0.2909422  )
        85           I   tau(  85) = (   0.8750105   0.0721476   0.6824351  )
        86           I   tau(  86) = (   0.8750156   0.0721430   1.0739279  )
        87           I   tau(  87) = (   0.7500045   0.2886574   0.2909381  )
        88           I   tau(  88) = (   0.7500096   0.2886529   0.6824310  )
        89           I   tau(  89) = (   0.7500147   0.2886484   1.0739238  )
        90           I   tau(  90) = (   0.6250037   0.5051628   0.2909340  )
        91           I   tau(  91) = (   0.6250088   0.5051583   0.6824268  )
        92           I   tau(  92) = (   0.6250139   0.5051538   1.0739197  )
        93           I   tau(  93) = (   0.5000029   0.7216681   0.2909299  )
        94           I   tau(  94) = (   0.5000080   0.7216636   0.6824227  )
        95           I   tau(  95) = (   0.5000131   0.7216591   1.0739156  )
        96           I   tau(  96) = (  -0.0000017   0.1443297   0.1005555  )
        97           I   tau(  97) = (   0.0000034   0.1443252   0.4920483  )
        98           I   tau(  98) = (   0.0000085   0.1443207   0.8835412  )
        99           I   tau(  99) = (  -0.1250025   0.3608351   0.1005514  )
       100           I   tau( 100) = (  -0.1249974   0.3608306   0.4920442  )
       101           I   tau( 101) = (  -0.1249923   0.3608260   0.8835371  )
       102           I   tau( 102) = (  -0.2500034   0.5773404   0.1005472  )
       103           I   tau( 103) = (  -0.2499983   0.5773359   0.4920401  )
       104           I   tau( 104) = (  -0.2499932   0.5773314   0.8835329  )
       105           I   tau( 105) = (  -0.3750042   0.7938458   0.1005431  )
       106           I   tau( 106) = (  -0.3749991   0.7938413   0.4920360  )
       107           I   tau( 107) = (  -0.3749940   0.7938368   0.8835288  )
       108           I   tau( 108) = (   0.2499983   0.1443288   0.1005587  )
       109           I   tau( 109) = (   0.2500034   0.1443242   0.4920516  )
       110           I   tau( 110) = (   0.2500085   0.1443197   0.8835444  )
       111           I   tau( 111) = (   0.1249975   0.3608341   0.1005546  )
       112           I   tau( 112) = (   0.1250026   0.3608296   0.4920475  )
       113           I   tau( 113) = (   0.1250077   0.3608251   0.8835403  )
       114           I   tau( 114) = (  -0.0000034   0.5773395   0.1005505  )
       115           I   tau( 115) = (   0.0000017   0.5773350   0.4920433  )
       116           I   tau( 116) = (   0.0000068   0.5773304   0.8835362  )
       117           I   tau( 117) = (  -0.1250042   0.7938448   0.1005464  )
       118           I   tau( 118) = (  -0.1249991   0.7938403   0.4920392  )
       119           I   tau( 119) = (  -0.1249940   0.7938358   0.8835321  )
       120           I   tau( 120) = (   0.4999983   0.1443278   0.1005620  )
       121           I   tau( 121) = (   0.5000034   0.1443233   0.4920548  )
       122           I   tau( 122) = (   0.5000085   0.1443188   0.8835477  )
       123           I   tau( 123) = (   0.3749975   0.3608332   0.1005579  )
       124           I   tau( 124) = (   0.3750026   0.3608286   0.4920507  )
       125           I   tau( 125) = (   0.3750077   0.3608241   0.8835436  )
       126           I   tau( 126) = (   0.2499966   0.5773385   0.1005537  )
       127           I   tau( 127) = (   0.2500017   0.5773340   0.4920466  )
       128           I   tau( 128) = (   0.2500068   0.5773295   0.8835394  )
       129           I   tau( 129) = (   0.1249958   0.7938439   0.1005496  )
       130           I   tau( 130) = (   0.1250009   0.7938394   0.4920425  )
       131           I   tau( 131) = (   0.1250060   0.7938348   0.8835353  )
       132           I   tau( 132) = (   0.7499983   0.1443268   0.1005653  )
       133           I   tau( 133) = (   0.7500034   0.1443223   0.4920581  )
       134           I   tau( 134) = (   0.7500085   0.1443178   0.8835509  )
       135           I   tau( 135) = (   0.6249975   0.3608322   0.1005611  )
       136           I   tau( 136) = (   0.6250026   0.3608277   0.4920540  )
       137           I   tau( 137) = (   0.6250077   0.3608232   0.8835468  )
       138           I   tau( 138) = (   0.4999966   0.5773376   0.1005570  )
       139           I   tau( 139) = (   0.5000017   0.5773330   0.4920499  )
       140           I   tau( 140) = (   0.5000068   0.5773285   0.8835427  )
       141           I   tau( 141) = (   0.3749958   0.7938429   0.1005529  )
       142           I   tau( 142) = (   0.3750009   0.7938384   0.4920457  )
       143           I   tau( 143) = (   0.3750060   0.7938339   0.8835386  )
       144           I   tau( 144) = (   0.1250136   0.2164827   1.1744753  )

   Crystallographic axes

     site n.     atom                  positions (cryst. coord.)
         1           Pb  tau(   1) = (  0.2499950  0.2499832  0.3333306  )
         2           Pb  tau(   2) = (  0.2499975  0.2499780  0.6666639  )
         3           Pb  tau(   3) = (  0.2499986  0.4999716  0.9999938  )
         4           Pb  tau(   4) = (  0.2499936  0.4999820  0.3333271  )
         5           Pb  tau(   5) = (  0.2499961  0.4999768  0.6666604  )
         6           Pb  tau(   6) = (  0.2499972  0.7499704  0.9999902  )
         7           Pb  tau(   7) = (  0.2499922  0.7499809  0.3333236  )
         8           Pb  tau(   8) = (  0.2499947  0.7499757  0.6666569  )
         9           Pb  tau(   9) = (  0.2499957  0.9999693  0.9999867  )
        10           Pb  tau(  10) = (  0.2499908  0.9999797  0.3333201  )
        11           Pb  tau(  11) = (  0.2499932  0.9999745  0.6666534  )
        12           Pb  tau(  12) = (  0.4999994  0.2499716  1.0000000  )
        13           Pb  tau(  13) = (  0.4999944  0.2499821  0.3333334  )
        14           Pb  tau(  14) = (  0.4999969  0.2499768  0.6666667  )
        15           Pb  tau(  15) = (  0.4999980  0.4999705  0.9999965  )
        16           Pb  tau(  16) = (  0.4999930  0.4999809  0.3333299  )
        17           Pb  tau(  17) = (  0.4999955  0.4999757  0.6666632  )
        18           Pb  tau(  18) = (  0.4999966  0.7499693  0.9999930  )
        19           Pb  tau(  19) = (  0.4999916  0.7499798  0.3333264  )
        20           Pb  tau(  20) = (  0.4999941  0.7499745  0.6666597  )
        21           Pb  tau(  21) = (  0.4999952  0.9999682  0.9999895  )
        22           Pb  tau(  22) = (  0.4999902  0.9999786  0.3333228  )
        23           Pb  tau(  23) = (  0.4999927  0.9999734  0.6666562  )
        24           Pb  tau(  24) = (  0.7499989  0.2499705  1.0000028  )
        25           Pb  tau(  25) = (  0.7499939  0.2499809  0.3333362  )
        26           Pb  tau(  26) = (  0.7499964  0.2499757  0.6666695  )
        27           Pb  tau(  27) = (  0.7499975  0.4999694  0.9999993  )
        28           Pb  tau(  28) = (  0.7499925  0.4999798  0.3333326  )
        29           Pb  tau(  29) = (  0.7499950  0.4999746  0.6666660  )
        30           Pb  tau(  30) = (  0.7499960  0.7499682  0.9999958  )
        31           Pb  tau(  31) = (  0.7499910  0.7499786  0.3333291  )
        32           Pb  tau(  32) = (  0.7499935  0.7499734  0.6666625  )
        33           Pb  tau(  33) = (  0.7499946  0.9999671  0.9999923  )
        34           Pb  tau(  34) = (  0.7499896  0.9999775  0.3333256  )
        35           Pb  tau(  35) = (  0.7499921  0.9999723  0.6666590  )
        36           Pb  tau(  36) = (  0.9999983  0.2499694  1.0000056  )
        37           Pb  tau(  37) = (  0.9999933  0.2499798  0.3333389  )
        38           Pb  tau(  38) = (  0.9999958  0.2499746  0.6666723  )
        39           Pb  tau(  39) = (  0.9999969  0.4999682  1.0000021  )
        40           Pb  tau(  40) = (  0.9999919  0.4999787  0.3333354  )
        41           Pb  tau(  41) = (  0.9999944  0.4999735  0.6666687  )
        42           Pb  tau(  42) = (  0.9999955  0.7499671  0.9999986  )
        43           Pb  tau(  43) = (  0.9999905  0.7499775  0.3333319  )
        44           Pb  tau(  44) = (  0.9999930  0.7499723  0.6666652  )
        45           Pb  tau(  45) = (  0.9999941  0.9999659  0.9999951  )
        46           Pb  tau(  46) = (  0.9999891  0.9999764  0.3333284  )
        47           Pb  tau(  47) = (  0.9999916  0.9999712  0.6666617  )
        48           I   tau(  48) = (  0.1666641  0.0833174  0.2477120  )
        49           I   tau(  49) = (  0.1666666  0.0833122  0.5810454  )
        50           I   tau(  50) = (  0.1666691  0.0833070  0.9143787  )
        51           I   tau(  51) = (  0.1666626  0.3333162  0.2477085  )
        52           I   tau(  52) = (  0.1666651  0.3333110  0.5810418  )
        53           I   tau(  53) = (  0.1666676  0.3333058  0.9143752  )
        54           I   tau(  54) = (  0.1666612  0.5833151  0.2477050  )
        55           I   tau(  55) = (  0.1666637  0.5833099  0.5810383  )
        56           I   tau(  56) = (  0.1666662  0.5833047  0.9143717  )
        57           I   tau(  57) = (  0.1666598  0.8333139  0.2477015  )
        58           I   tau(  58) = (  0.1666623  0.8333087  0.5810348  )
        59           I   tau(  59) = (  0.1666648  0.8333035  0.9143682  )
        60           I   tau(  60) = (  0.4166635  0.0833163  0.2477148  )
        61           I   tau(  61) = (  0.4166660  0.0833111  0.5810481  )
        62           I   tau(  62) = (  0.4166685  0.0833058  0.9143815  )
        63           I   tau(  63) = (  0.4166621  0.3333151  0.2477113  )
        64           I   tau(  64) = (  0.4166646  0.3333099  0.5810446  )
        65           I   tau(  65) = (  0.4166671  0.3333047  0.9143780  )
        66           I   tau(  66) = (  0.4166607  0.5833140  0.2477078  )
        67           I   tau(  67) = (  0.4166632  0.5833088  0.5810411  )
        68           I   tau(  68) = (  0.4166657  0.5833035  0.9143744  )
        69           I   tau(  69) = (  0.4166593  0.8333128  0.2477043  )
        70           I   tau(  70) = (  0.4166618  0.8333076  0.5810376  )
        71           I   tau(  71) = (  0.4166643  0.8333024  0.9143709  )
        72           I   tau(  72) = (  0.6666629  0.0833152  0.2477176  )
        73           I   tau(  73) = (  0.6666654  0.0833099  0.5810509  )
        74           I   tau(  74) = (  0.6666679  0.0833047  0.9143842  )
        75           I   tau(  75) = (  0.6666615  0.3333140  0.2477141  )
        76           I   tau(  76) = (  0.6666640  0.3333088  0.5810474  )
        77           I   tau(  77) = (  0.6666665  0.3333036  0.9143807  )
        78           I   tau(  78) = (  0.6666601  0.5833129  0.2477106  )
        79           I   tau(  79) = (  0.6666626  0.5833076  0.5810439  )
        80           I   tau(  80) = (  0.6666651  0.5833024  0.9143772  )
        81           I   tau(  81) = (  0.6666587  0.8333117  0.2477070  )
        82           I   tau(  82) = (  0.6666612  0.8333065  0.5810404  )
        83           I   tau(  83) = (  0.6666637  0.8333013  0.9143737  )
        84           I   tau(  84) = (  0.9166624  0.0833141  0.2477203  )
        85           I   tau(  85) = (  0.9166649  0.0833088  0.5810537  )
        86           I   tau(  86) = (  0.9166674  0.0833036  0.9143870  )
        87           I   tau(  87) = (  0.9166610  0.3333129  0.2477168  )
        88           I   tau(  88) = (  0.9166635  0.3333077  0.5810502  )
        89           I   tau(  89) = (  0.9166660  0.3333025  0.9143835  )
        90           I   tau(  90) = (  0.9166596  0.5833118  0.2477133  )
        91           I   tau(  91) = (  0.9166621  0.5833065  0.5810467  )
        92           I   tau(  92) = (  0.9166646  0.5833013  0.9143800  )
        93           I   tau(  93) = (  0.9166582  0.8333106  0.2477098  )
        94           I   tau(  94) = (  0.9166607  0.8333054  0.5810431  )
        95           I   tau(  95) = (  0.9166632  0.8333002  0.9143765  )
        96           I   tau(  96) = (  0.0833271  0.1666576  0.0856171  )
        97           I   tau(  97) = (  0.0833296  0.1666524  0.4189505  )
        98           I   tau(  98) = (  0.0833321  0.1666472  0.7522838  )
        99           I   tau(  99) = (  0.0833257  0.4166565  0.0856136  )
       100           I   tau( 100) = (  0.0833282  0.4166513  0.4189470  )
       101           I   tau( 101) = (  0.0833307  0.4166460  0.7522803  )
       102           I   tau( 102) = (  0.0833243  0.6666553  0.0856101  )
       103           I   tau( 103) = (  0.0833268  0.6666501  0.4189434  )
       104           I   tau( 104) = (  0.0833293  0.6666449  0.7522768  )
       105           I   tau( 105) = (  0.0833229  0.9166542  0.0856066  )
       106           I   tau( 106) = (  0.0833254  0.9166489  0.4189399  )
       107           I   tau( 107) = (  0.0833279  0.9166437  0.7522733  )
       108           I   tau( 108) = (  0.3333265  0.1666565  0.0856199  )
       109           I   tau( 109) = (  0.3333290  0.1666513  0.4189532  )
       110           I   tau( 110) = (  0.3333315  0.1666461  0.7522866  )
       111           I   tau( 111) = (  0.3333251  0.4166554  0.0856164  )
       112           I   tau( 112) = (  0.3333276  0.4166501  0.4189497  )
       113           I   tau( 113) = (  0.3333301  0.4166449  0.7522831  )
       114           I   tau( 114) = (  0.3333237  0.6666542  0.0856129  )
       115           I   tau( 115) = (  0.3333262  0.6666490  0.4189462  )
       116           I   tau( 116) = (  0.3333287  0.6666438  0.7522795  )
       117           I   tau( 117) = (  0.3333223  0.9166531  0.0856094  )
       118           I   tau( 118) = (  0.3333248  0.9166478  0.4189427  )
       119           I   tau( 119) = (  0.3333273  0.9166426  0.7522760  )
       120           I   tau( 120) = (  0.5833260  0.1666554  0.0856227  )
       121           I   tau( 121) = (  0.5833285  0.1666502  0.4189560  )
       122           I   tau( 122) = (  0.5833310  0.1666450  0.7522893  )
       123           I   tau( 123) = (  0.5833246  0.4166542  0.0856192  )
       124           I   tau( 124) = (  0.5833271  0.4166490  0.4189525  )
       125           I   tau( 125) = (  0.5833296  0.4166438  0.7522858  )
       126           I   tau( 126) = (  0.5833232  0.6666531  0.0856157  )
       127           I   tau( 127) = (  0.5833257  0.6666479  0.4189490  )
       128           I   tau( 128) = (  0.5833282  0.6666427  0.7522823  )
       129           I   tau( 129) = (  0.5833218  0.9166519  0.0856121  )
       130           I   tau( 130) = (  0.5833243  0.9166467  0.4189455  )
       131           I   tau( 131) = (  0.5833268  0.9166415  0.7522788  )
       132           I   tau( 132) = (  0.8333254  0.1666543  0.0856254  )
       133           I   tau( 133) = (  0.8333279  0.1666491  0.4189588  )
       134           I   tau( 134) = (  0.8333304  0.1666438  0.7522921  )
       135           I   tau( 135) = (  0.8333240  0.4166531  0.0856219  )
       136           I   tau( 136) = (  0.8333265  0.4166479  0.4189553  )
       137           I   tau( 137) = (  0.8333290  0.4166427  0.7522886  )
       138           I   tau( 138) = (  0.8333226  0.6666520  0.0856184  )
       139           I   tau( 139) = (  0.8333251  0.6666468  0.4189518  )
       140           I   tau( 140) = (  0.8333276  0.6666415  0.7522851  )
       141           I   tau( 141) = (  0.8333212  0.9166508  0.0856149  )
       142           I   tau( 142) = (  0.8333237  0.9166456  0.4189482  )
       143           I   tau( 143) = (  0.8333262  0.9166404  0.7522816  )
       144           I   tau( 144) = (  0.2500000  0.2499727  0.9999973  )

     number of k points=     1  Gaussian smearing, width (Ry)=  0.0100
                       cart. coord. in units 2pi/alat
        k(    1) = (   0.0000000   0.0000000   0.0000000), wk =   2.0000000

                       cryst. coord.
        k(    1) = (   0.0000000   0.0000000   0.0000000), wk =   2.0000000

     Dense  grid:  5079105 G-vectors     FFT dimensions: ( 216, 216, 250)

     Smooth grid:  3634441 G-vectors     FFT dimensions: ( 192, 192, 225)

     Dynamical RAM for                 wfc:      74.84 MB

     Dynamical RAM for     wfc (w. buffer):      74.84 MB

     Dynamical RAM for           str. fact:       1.21 MB

     Dynamical RAM for           local pot:       0.00 MB

     Dynamical RAM for          nlocal pot:     140.37 MB

     Dynamical RAM for                qrad:       3.00 MB

     Dynamical RAM for          rho,v,vnew:       3.95 MB

     Dynamical RAM for               rhoin:       1.32 MB

     Dynamical RAM for            rho*nmix:       9.69 MB

     Dynamical RAM for           G-vectors:       2.49 MB

     Dynamical RAM for          h,s,v(r/c):    1398.87 MB

     Dynamical RAM for          <psi|beta>:      54.66 MB

     Dynamical RAM for                 psi:     299.36 MB

     Dynamical RAM for                hpsi:     299.36 MB

     Dynamical RAM for                spsi:     299.36 MB

     Dynamical RAM for      wfcinit/wfcrot:     193.41 MB

     Dynamical RAM for           addusdens:     171.33 MB

     Dynamical RAM for          addusforce:     288.25 MB

     Dynamical RAM for         addusstress:     121.69 MB

     Estimated static dynamical RAM per process >     232.55 MB

     Estimated max dynamical RAM per process >       2.53 GB

     Estimated total dynamical RAM >     324.23 GB

     Atomic positions and unit cell read from directory:
     ./PbI2.save/
     Atomic positions from file used, from input discarded
 

     Check: negative core charge=   -0.000001

     The initial density is read from file :
     ./PbI2.save/charge-density


     starting charge    2305.0000, renormalised to    2304.0000


     %%%%%%%%%%%%%%%%%%%%%%%%%%%%%%%%%%%%%%%%%%%%%%%%%%%%%%%%%%%%%%%%%%%%%%%%
     %                                                                      %
     % You are using vdW-DF, which was implemented by the Thonhauser group. %
     % Please cite the following two papers that made this development      %
     % possible and the two reviews that describe the various versions:     %
     %                                                                      %
     %   T. Thonhauser et al., PRL 115, 136402 (2015).                      %
     %   T. Thonhauser et al., PRB 76, 125112 (2007).                       %
     %   K. Berland et al., Rep. Prog. Phys. 78, 066501 (2015).             %
     %   D.C. Langreth et al., J. Phys.: Condens. Matter 21, 084203 (2009). %
     %                                                                      %
     % If you are calculating stress with vdW-DF, please also cite:         %
     %                                                                      %
     %   R. Sabatini et al., J. Phys.: Condens. Matter 24, 424209 (2012).   %
     %                                                                      %
     %%%%%%%%%%%%%%%%%%%%%%%%%%%%%%%%%%%%%%%%%%%%%%%%%%%%%%%%%%%%%%%%%%%%%%%%

     %%%%%%%%%%%%%%%%%%%%%%%%%%%%%%%%%%%%%%%%%%%%%%%%%%%%%%%%%%%%%%%%%%%%%%%%
     %                                                                      %
     %  vdW-DF NEWS:                                                        %
     %                                                                      %
     %  * vdW-DF3 is now available. DOI: 10.1021/acs.jctc.0c00471           %
     %    use with input_dft = 'vdW-DF3-opt1' or 'vdW-DF3-opt2'             %
     %                                                                      %
     %  * Unscreened and range-separated vdW-DF hybrid functionals          %
     %    DOI: 10.1063/1.4986522 and 10.1088/1361-648X/ac2ad2               %
     %    use with input_dft = 'vdW-DF-cx0' (etc) and 'vdW-DF-ahcx'         %
     %                                                                      %
     %%%%%%%%%%%%%%%%%%%%%%%%%%%%%%%%%%%%%%%%%%%%%%%%%%%%%%%%%%%%%%%%%%%%%%%%


     Carrying out vdW-DF run using the following parameters:
     Nqs    =  20  Npoints =  1024  r_max =  100.000
     q_mesh =  0.00001000  0.04494208  0.09755937  0.15916263
               0.23128650  0.31572767  0.41458969  0.53033537
               0.66584808  0.82450364  1.01025438  1.22772762
               1.48234092  1.78043706  2.12944203  2.53805004
               3.01644009  3.57652955  4.23227104  5.00000000


     -----------------------------------------------
     Non-local corr. energy    =      69.32706790 Ry
     -----------------------------------------------

     Wavefunctions not found or not readable, recomputing them from scratch
     Starting wfcs are 1296 randomized atomic wfcs +   86 random wfcs
     Checking if some PAW data can be deallocated... 
       PAW data deallocated on   97 nodes for type:  1
       PAW data deallocated on   31 nodes for type:  2

     total cpu time spent up to now is       36.0 secs

     Self-consistent Calculation

     iteration #  1     ecut=    70.00 Ry     beta= 0.70
     Davidson diagonalization with overlap

---- Real-time Memory Report at c_bands before calling an iterative solver
           790 MiB given to the printing process from OS
             0 MiB allocation reported by mallinfo(arena+hblkhd)
       1960140 MiB available memory on the node where the printing process lives
------------------
     ethr =  1.00E-05,  avg # of iterations = 21.0


     -----------------------------------------------
     Non-local corr. energy    =      69.38596934 Ry
     -----------------------------------------------


     total cpu time spent up to now is     1086.5 secs

     total energy              =  -96802.18473015 Ry
     estimated scf accuracy    <       0.02466585 Ry

     iteration #  2     ecut=    70.00 Ry     beta= 0.70
     Davidson diagonalization with overlap

---- Real-time Memory Report at c_bands before calling an iterative solver
          2444 MiB given to the printing process from OS
             0 MiB allocation reported by mallinfo(arena+hblkhd)
       1939405 MiB available memory on the node where the printing process lives
------------------
     ethr =  1.07E-06,  avg # of iterations = 13.0


     -----------------------------------------------
     Non-local corr. energy    =      69.38453093 Ry
     -----------------------------------------------


     total cpu time spent up to now is     1794.0 secs

     total energy              =  -96802.10988808 Ry
     estimated scf accuracy    <       3.50887866 Ry

     iteration #  3     ecut=    70.00 Ry     beta= 0.70
     Davidson diagonalization with overlap

---- Real-time Memory Report at c_bands before calling an iterative solver
          2444 MiB given to the printing process from OS
             0 MiB allocation reported by mallinfo(arena+hblkhd)
       1939096 MiB available memory on the node where the printing process lives
------------------
     ethr =  1.07E-06,  avg # of iterations = 18.0


     -----------------------------------------------
     Non-local corr. energy    =      69.37269451 Ry
     -----------------------------------------------


     total cpu time spent up to now is     2631.7 secs

     total energy              =  -96802.19391802 Ry
     estimated scf accuracy    <       0.04552089 Ry

     iteration #  4     ecut=    70.00 Ry     beta= 0.70
     Davidson diagonalization with overlap

---- Real-time Memory Report at c_bands before calling an iterative solver
          2444 MiB given to the printing process from OS
             0 MiB allocation reported by mallinfo(arena+hblkhd)
       1938809 MiB available memory on the node where the printing process lives
------------------
     ethr =  1.07E-06,  avg # of iterations = 20.0


     -----------------------------------------------
     Non-local corr. energy    =      69.36196645 Ry
     -----------------------------------------------


     total cpu time spent up to now is     3372.6 secs

     total energy              =  -96802.19919428 Ry
     estimated scf accuracy    <       0.01858424 Ry

     iteration #  5     ecut=    70.00 Ry     beta= 0.70
     Davidson diagonalization with overlap

---- Real-time Memory Report at c_bands before calling an iterative solver
          2444 MiB given to the printing process from OS
             0 MiB allocation reported by mallinfo(arena+hblkhd)
       1938477 MiB available memory on the node where the printing process lives
------------------
     c_bands:  2 eigenvalues not converged
     ethr =  8.07E-07,  avg # of iterations = 20.0


     -----------------------------------------------
     Non-local corr. energy    =      69.35872474 Ry
     -----------------------------------------------


     total cpu time spent up to now is     3986.5 secs

     total energy              =  -96802.20126449 Ry
     estimated scf accuracy    <       0.00099589 Ry

     iteration #  6     ecut=    70.00 Ry     beta= 0.70
     Davidson diagonalization with overlap

---- Real-time Memory Report at c_bands before calling an iterative solver
          2444 MiB given to the printing process from OS
             0 MiB allocation reported by mallinfo(arena+hblkhd)
       1938175 MiB available memory on the node where the printing process lives
------------------
     c_bands:  2 eigenvalues not converged
     ethr =  4.32E-08,  avg # of iterations = 20.0


     -----------------------------------------------
     Non-local corr. energy    =      69.35614811 Ry
     -----------------------------------------------


     total cpu time spent up to now is     4710.7 secs

     total energy              =  -96802.20140722 Ry
     estimated scf accuracy    <       0.00046559 Ry

     iteration #  7     ecut=    70.00 Ry     beta= 0.70
     Davidson diagonalization with overlap

---- Real-time Memory Report at c_bands before calling an iterative solver
          2444 MiB given to the printing process from OS
             0 MiB allocation reported by mallinfo(arena+hblkhd)
       1937879 MiB available memory on the node where the printing process lives
------------------
     ethr =  2.02E-08,  avg # of iterations = 20.0


     -----------------------------------------------
     Non-local corr. energy    =      69.35159295 Ry
     -----------------------------------------------


     total cpu time spent up to now is     5263.4 secs

     total energy              =  -96802.20142874 Ry
     estimated scf accuracy    <       0.00018495 Ry

     iteration #  8     ecut=    70.00 Ry     beta= 0.70
     Davidson diagonalization with overlap

---- Real-time Memory Report at c_bands before calling an iterative solver
          2444 MiB given to the printing process from OS
             0 MiB allocation reported by mallinfo(arena+hblkhd)
       1937589 MiB available memory on the node where the printing process lives
------------------
     c_bands:  2 eigenvalues not converged
     ethr =  8.03E-09,  avg # of iterations = 20.0


     -----------------------------------------------
     Non-local corr. energy    =      69.34761057 Ry
     -----------------------------------------------


     total cpu time spent up to now is     5859.8 secs

     total energy              =  -96802.20140338 Ry
     estimated scf accuracy    <       0.00038748 Ry

     iteration #  9     ecut=    70.00 Ry     beta= 0.70
     Davidson diagonalization with overlap

---- Real-time Memory Report at c_bands before calling an iterative solver
          2444 MiB given to the printing process from OS
             0 MiB allocation reported by mallinfo(arena+hblkhd)
       1937293 MiB available memory on the node where the printing process lives
------------------
     c_bands:  2 eigenvalues not converged
     ethr =  8.03E-09,  avg # of iterations = 20.0


     -----------------------------------------------
     Non-local corr. energy    =      69.34544595 Ry
     -----------------------------------------------


     total cpu time spent up to now is     6468.3 secs

     total energy              =  -96802.20143275 Ry
     estimated scf accuracy    <       0.00008260 Ry

     iteration # 10     ecut=    70.00 Ry     beta= 0.70
     Davidson diagonalization with overlap

---- Real-time Memory Report at c_bands before calling an iterative solver
          2444 MiB given to the printing process from OS
             0 MiB allocation reported by mallinfo(arena+hblkhd)
       1936993 MiB available memory on the node where the printing process lives
------------------
     c_bands:  1 eigenvalues not converged
     ethr =  3.59E-09,  avg # of iterations = 20.0


     -----------------------------------------------
     Non-local corr. energy    =      69.34547219 Ry
     -----------------------------------------------


     total cpu time spent up to now is     7161.1 secs

     total energy              =  -96802.20143170 Ry
     estimated scf accuracy    <       0.00025406 Ry

     iteration # 11     ecut=    70.00 Ry     beta= 0.70
     Davidson diagonalization with overlap

---- Real-time Memory Report at c_bands before calling an iterative solver
          2444 MiB given to the printing process from OS
             0 MiB allocation reported by mallinfo(arena+hblkhd)
       1936872 MiB available memory on the node where the printing process lives
------------------
     c_bands:  2 eigenvalues not converged
     ethr =  3.59E-09,  avg # of iterations = 20.0


     -----------------------------------------------
     Non-local corr. energy    =      69.34576034 Ry
     -----------------------------------------------


     total cpu time spent up to now is     7770.6 secs

     total energy              =  -96802.20145242 Ry
     estimated scf accuracy    <       0.00000478 Ry

     iteration # 12     ecut=    70.00 Ry     beta= 0.70
     Davidson diagonalization with overlap

---- Real-time Memory Report at c_bands before calling an iterative solver
          2444 MiB given to the printing process from OS
             0 MiB allocation reported by mallinfo(arena+hblkhd)
       1936874 MiB available memory on the node where the printing process lives
------------------
     ethr =  2.08E-10,  avg # of iterations = 11.0


     -----------------------------------------------
     Non-local corr. energy    =      69.34599829 Ry
     -----------------------------------------------


     total cpu time spent up to now is     8287.2 secs

     total energy              =  -96802.20145518 Ry
     estimated scf accuracy    <       0.00001066 Ry

     iteration # 13     ecut=    70.00 Ry     beta= 0.70
     Davidson diagonalization with overlap

---- Real-time Memory Report at c_bands before calling an iterative solver
          2641 MiB given to the printing process from OS
             0 MiB allocation reported by mallinfo(arena+hblkhd)
       1936677 MiB available memory on the node where the printing process lives
------------------
     ethr =  2.08E-10,  avg # of iterations = 19.0


     -----------------------------------------------
     Non-local corr. energy    =      69.34598954 Ry
     -----------------------------------------------


     total cpu time spent up to now is     8887.4 secs

     total energy              =  -96802.20145395 Ry
     estimated scf accuracy    <       0.00009154 Ry

     iteration # 14     ecut=    70.00 Ry     beta= 0.70
     Davidson diagonalization with overlap

---- Real-time Memory Report at c_bands before calling an iterative solver
          2641 MiB given to the printing process from OS
             0 MiB allocation reported by mallinfo(arena+hblkhd)
       1936681 MiB available memory on the node where the printing process lives
------------------
     c_bands:  1 eigenvalues not converged
     ethr =  2.08E-10,  avg # of iterations = 20.0


     -----------------------------------------------
     Non-local corr. energy    =      69.34603685 Ry
     -----------------------------------------------


     total cpu time spent up to now is     9497.0 secs

     total energy              =  -96802.20145644 Ry
     estimated scf accuracy    <       0.00000076 Ry

     iteration # 15     ecut=    70.00 Ry     beta= 0.70
     Davidson diagonalization with overlap

---- Real-time Memory Report at c_bands before calling an iterative solver
          2641 MiB given to the printing process from OS
             0 MiB allocation reported by mallinfo(arena+hblkhd)
       1936683 MiB available memory on the node where the printing process lives
------------------
     c_bands:  2 eigenvalues not converged
     ethr =  3.30E-11,  avg # of iterations = 20.0


     -----------------------------------------------
     Non-local corr. energy    =      69.34608658 Ry
     -----------------------------------------------


     total cpu time spent up to now is    10107.3 secs

     total energy              =  -96802.20145653 Ry
     estimated scf accuracy    <       0.00000016 Ry

     iteration # 16     ecut=    70.00 Ry     beta= 0.70
     Davidson diagonalization with overlap

---- Real-time Memory Report at c_bands before calling an iterative solver
          2641 MiB given to the printing process from OS
             0 MiB allocation reported by mallinfo(arena+hblkhd)
       1936685 MiB available memory on the node where the printing process lives
------------------
     c_bands:  1 eigenvalues not converged
     ethr =  7.07E-12,  avg # of iterations = 20.0


     -----------------------------------------------
     Non-local corr. energy    =      69.34613963 Ry
     -----------------------------------------------


     total cpu time spent up to now is    10790.3 secs

     End of self-consistent calculation

          k = 0.0000 0.0000 0.0000 (454335 PWs)   bands (ev):

   -43.4551 -43.4529 -43.4454 -43.4431 -43.4383 -41.5116 -41.5111 -41.4943
   -41.4937 -41.4894 -41.4892 -41.4698 -41.4693 -41.4675 -41.4670 -41.4533
   -41.4527 -41.4510 -41.4504 -41.4485 -41.4484 -41.4463 -41.4462 -41.3371
   -41.3367 -41.3366 -41.3362 -41.3232 -41.3227 -41.3226 -41.3221 -41.3191
   -41.3190 -41.3186 -41.3185 -40.9575 -40.9574 -40.9574 -40.9572 -40.9556
   -40.9554 -40.9549 -40.9547 -40.9547 -40.9546 -40.9541 -40.9541 -40.9531
   -40.9530 -40.9530 -40.9528 -40.9513 -40.9511 -40.9506 -40.9504 -40.9503
   -40.9503 -40.9498 -40.9498 -40.9477 -40.9476 -40.9476 -40.9474 -40.9459
   -40.9457 -40.9452 -40.9450 -40.9450 -40.9450 -40.9445 -40.9445 -40.9321
   -40.9320 -40.9320 -40.9319 -40.9318 -40.9318 -40.9318 -40.9316 -40.9305
   -40.9304 -40.9303 -40.9302 -40.9300 -40.9298 -40.9297 -40.9297 -40.9296
   -40.9296 -40.9295 -40.9294 -40.9292 -40.9292 -40.9291 -40.9290 -40.8745
   -40.8741 -40.8739 -40.8738 -40.8738 -40.8735 -40.8734 -40.8734 -40.8733
   -40.8732 -40.8729 -40.8728 -40.8710 -40.8706 -40.8706 -40.8705 -40.8704
   -40.8702 -40.8701 -40.8701 -40.8701 -40.8700 -40.8700 -40.8698 -40.8697
   -40.8697 -40.8696 -40.8696 -40.8693 -40.8692 -40.8622 -40.8621 -40.8620
   -40.8619 -40.8617 -40.8617 -40.8614 -40.8613 -40.8612 -40.8611 -40.8610
   -40.8609 -40.8597 -40.8596 -40.8595 -40.8594 -40.8592 -40.8592 -40.8556
   -40.8556 -40.8555 -40.8553 -40.8552 -40.8552 -40.8549 -40.8549 -40.8548
   -40.8547 -40.8545 -40.8545 -40.8360 -40.8359 -40.8358 -40.8358 -40.8357
   -40.8356 -40.8350 -40.8350 -40.8349 -40.8349 -40.7754 -40.7752 -40.7750
   -40.7750 -40.7748 -40.7748 -40.7739 -40.7739 -40.7736 -40.7736 -40.7596
   -40.7595 -40.7595 -40.7595 -40.7593 -40.7591 -40.7553 -40.7552 -40.7552
   -40.7551 -40.7550 -40.7548 -40.7545 -40.7544 -40.7544 -40.7544 -40.7542
   -40.7541 -40.7413 -40.7412 -40.7412 -40.7412 -40.7411 -40.7409 -40.7409
   -40.7408 -40.7408 -40.7408 -40.7407 -40.7405 -40.7348 -40.7348 -40.7348
   -40.7348 -40.7348 -40.7348 -40.7343 -40.7343 -40.7343 -40.7343 -40.7342
   -40.7342 -40.7322 -40.7322 -40.7322 -40.7322 -40.7322 -40.7322 -40.7322
   -40.7321 -40.7321 -40.7321 -40.7321 -40.7321 -40.7320 -40.7320 -40.7320
   -40.7320 -40.7319 -40.7319 -40.7233 -40.7233 -40.7233 -40.7233 -40.7232
   -40.7232 -40.7232 -40.7232 -40.7231 -40.7231 -40.7231 -40.7231 -40.7230
   -40.7229 -40.7229 -40.7229 -40.7229 -40.7229 -40.7229 -40.7229 -40.7229
   -40.7228 -40.7228 -40.7228 -40.7228 -40.7228 -40.7228 -40.7228 -40.7227
   -40.7227 -40.7225 -40.7225 -40.7225 -40.7224 -40.7224 -40.7223 -40.7222
   -40.7222 -40.7222 -40.7222 -40.7221 -40.7221 -40.7221 -40.7221 -40.7220
   -40.7220 -40.7220 -40.7220 -40.7219 -40.7219 -40.7218 -40.7218 -40.7217
   -40.7217 -40.7217 -40.7217 -40.7217 -40.7217 -40.7217 -40.7217 -40.7217
   -40.7217 -40.7217 -40.7216 -40.7216 -40.7216 -40.7216 -40.7216 -40.7216
   -40.7216 -40.7216 -40.7216 -40.7216 -40.7216 -40.7215 -40.7215 -40.7215
   -40.7215 -40.7215 -40.7215 -40.7215 -40.7215 -40.7214 -40.7214 -40.7214
   -40.7214 -40.7214 -40.7214 -40.7213 -40.7213 -40.7213 -40.7213 -40.7213
   -40.7212 -40.7212 -40.7212 -40.7212 -40.7212 -40.7211 -40.7211 -40.7211
   -40.7211 -40.7208 -40.7208 -40.7208 -40.7207 -40.7207 -40.7206 -40.7206
   -40.7206 -40.7205 -40.7204 -40.7204 -40.7203 -40.7203 -40.7203 -40.7202
   -40.7202 -40.7202 -40.7201 -40.7201 -40.7201 -40.7200 -40.7200 -40.7199
   -40.7199 -40.7198 -40.7198 -40.7197 -40.7196 -40.7196 -40.7195 -40.7195
   -40.7195 -40.7195 -40.7195 -40.7194 -40.7194 -40.7194 -40.7194 -40.7193
   -40.7193 -40.7193 -40.7192 -40.7192 -40.7192 -40.7192 -40.7191 -40.7191
   -40.7190 -40.7154 -40.7154 -40.7151 -40.7151 -40.7148 -40.7147 -40.7147
   -40.7147 -40.7147 -40.7147 -40.7146 -40.7145 -40.7145 -40.7145 -40.7145
   -40.7145 -40.7144 -40.7144 -40.7144 -40.7143 -40.7141 -40.7141 -40.7134
   -40.7133 -40.7133 -40.7133 -40.7133 -40.7132 -40.7124 -40.7124 -40.7124
   -40.7123 -40.7123 -40.7123 -40.7120 -40.7120 -40.7119 -40.7119 -40.7119
   -40.7119 -40.7083 -40.7083 -40.7082 -40.7082 -40.7082 -40.7082 -40.7081
   -40.7081 -40.7080 -40.7080 -40.7080 -40.7080 -40.7079 -40.7078 -40.7078
   -40.7078 -40.7078 -40.7078 -40.7077 -40.7076 -40.7076 -40.7076 -40.7076
   -40.7076 -40.7074 -40.7074 -40.7074 -40.7073 -40.7073 -40.7073 -40.7073
   -40.7072 -40.7072 -40.7072 -40.7072 -40.7072 -40.7071 -40.7071 -40.7071
   -40.7071 -40.7071 -40.7071 -40.7070 -40.7070 -40.7070 -40.7070 -40.7070
   -40.7070 -40.7070 -40.7070 -40.7070 -40.7069 -40.7069 -40.7069 -40.7068
   -40.7068 -40.7068 -40.7068 -40.7068 -40.7067 -13.1081 -13.1078 -13.1064
   -13.1037 -13.1020 -13.1016 -13.0971 -13.0937 -13.0925 -13.0903 -13.0898
   -13.0895 -13.0891 -13.0876 -13.0871 -13.0870 -13.0856 -13.0828 -13.0799
   -13.0797 -13.0791 -13.0789 -13.0784 -13.0783 -13.0762 -13.0760 -13.0748
   -13.0746 -13.0744 -13.0740 -13.0326 -13.0322 -13.0312 -13.0287 -13.0283
   -13.0262 -13.0176 -13.0173 -13.0162 -13.0145 -13.0136 -13.0130 -13.0120
   -13.0118 -13.0108 -13.0041 -13.0037 -13.0035 -13.0023 -13.0000 -12.9999
   -12.9950 -12.9940 -12.9917 -12.9915 -12.9914 -12.9913 -12.9868 -12.9861
   -12.9858 -12.9857 -12.9855 -12.9851 -12.9849 -12.9848 -12.9835 -12.9834
   -12.9832 -12.9832 -12.9799 -12.9798 -12.9798 -12.9797 -12.9783 -12.9781
   -12.8911 -12.8911 -12.8837 -12.8837 -12.8836 -12.8836 -12.8792 -12.8792
   -12.8792 -12.8792 -12.8744 -12.8743 -12.8705 -12.8704 -12.8698 -12.8698
   -12.8698 -12.8697 -12.8693 -12.8692 -12.8678 -12.8678 -12.8678 -12.8678
   -12.8656 -12.8656 -12.8655 -12.8655 -12.8643 -12.8643 -12.8643 -12.8643
   -12.8639 -12.8639 -12.8634 -12.8634 -12.8632 -12.8632 -12.8621 -12.8620
   -12.8620 -12.8620 -12.8605 -12.8604 -12.8604 -12.8604 -12.8585 -12.8584
   -12.8579 -12.8579 -12.8576 -12.8576 -12.8575 -12.8575 -12.8550 -12.8550
   -12.8550 -12.8550 -12.8531 -12.8531 -12.8525 -12.8525 -12.8525 -12.8525
   -12.8508 -12.8508 -12.8486 -12.8486 -12.8485 -12.8485 -12.8485 -12.8485
   -12.8477 -12.8477 -12.8476 -12.8476 -12.8473 -12.8473 -12.8472 -12.8472
   -12.8472 -12.8472 -12.8472 -12.8471 -12.8469 -12.8468 -12.8460 -12.8460
   -12.8460 -12.8460 -12.8449 -12.8449 -12.8449 -12.8449 -12.8443 -12.8443
   -12.8440 -12.8440 -12.8440 -12.8439 -12.8437 -12.8437 -12.8437 -12.8437
   -12.8433 -12.8432 -12.8432 -12.8432 -12.8432 -12.8432 -12.8424 -12.8423
   -12.8423 -12.8423 -12.8416 -12.8415 -12.8415 -12.8414 -12.8413 -12.8413
   -12.8398 -12.8398 -12.8396 -12.8396 -12.8396 -12.8395 -12.8390 -12.8390
   -12.8390 -12.8390 -12.8387 -12.8387 -12.8371 -12.8371 -12.8371 -12.8371
   -12.8366 -12.8366 -12.8366 -12.8366 -12.8361 -12.8361 -12.8353 -12.8353
   -12.8346 -12.8346 -12.8345 -12.8345 -12.8335 -12.8335 -12.8335 -12.8335
   -12.8329 -12.8329 -12.8315 -12.8315 -12.8312 -12.8311 -12.8311 -12.8311
    -9.9404  -8.1773  -8.1694  -8.1606  -8.0855  -8.0616  -8.0560  -8.0154
    -7.9849  -7.9818  -7.9753  -7.9648  -7.9138  -7.9137  -7.9112  -7.8250
    -7.8216  -7.8216  -7.8209  -7.8165  -7.8164  -7.7972  -7.7942  -7.7918
    -7.7910  -7.7910  -7.7906  -7.7905  -7.7386  -7.7383  -7.7358  -7.7324
    -7.7137  -7.7125  -7.6859  -7.6691  -7.6688  -7.6591  -7.6588  -7.6466
    -7.6360  -7.6170  -7.6170  -7.6090  -7.6085  -7.6005  -7.5902  -7.5819
    -7.5772  -7.5717  -7.5716  -7.5669  -7.5662  -7.5661  -7.5616  -7.5511
    -7.5511  -7.5476  -7.5464  -7.5464  -7.5460  -7.5459  -7.5404  -7.5365
    -7.5361  -7.5268  -7.5267  -7.5099  -7.5099  -7.5079  -7.5061  -7.5034
    -7.5034  -7.4668  -7.4663  -7.4663  -7.4633  -7.4593  -7.4593  -7.4588
    -7.4480  -7.4464  -7.4463  -7.4391  -7.4390  -7.4326  -7.4308  -7.4308
    -7.4296  -7.4296  -7.4261  -7.4201  -7.4193  -7.4193  -7.4122  -7.4121
    -7.4090  -3.7825  -3.7815  -3.7683  -3.7387  -3.7379  -3.7198  -3.7090
    -3.7087  -3.6352  -3.5662  -3.5662  -3.5617  -3.5617  -3.5603  -3.5547
    -3.5496  -3.5496  -3.5484  -3.5484  -3.5477  -3.5471  -3.5469  -3.5464
    -3.5429  -3.5429  -3.5427  -3.5427  -3.5021  -3.5012  -3.4673  -3.4666
    -3.4322  -3.3053  -3.3053  -3.2997  -3.2990  -3.2956  -3.2956  -3.2892
    -3.2892  -3.2853  -3.2837  -3.2797  -3.2797  -3.2716  -3.0954  -3.0603
    -0.2282  -0.2152  -0.1885   0.8868   0.8870   0.9133   0.9891   0.9899
     0.9900   1.1185   1.1195   1.1207   1.1431   1.1431   1.1623   1.1689
     1.1690   1.2112   1.2173   1.2288   1.2292   1.2521   1.2814   1.2814
     1.3370   1.3767   1.3776   1.3836   1.3980   1.3981   1.4035   1.4042
     1.4101   1.4108   1.4109   1.4176   1.4199   1.4228   1.4228   1.5114
     1.5125   1.5126   1.5140   1.5140   1.5149   1.5217   1.5355   1.5356
     1.5361   1.5375   1.5377   1.5473   1.5693   1.5693   1.5707   1.5707
     1.5715   1.5744   1.6480   1.6484   1.7044   1.7058   1.7169   1.7249
     1.7265   1.7382   1.7831   1.7832   1.7881   1.7884   1.7886   1.8022
     1.8053   1.8072   1.8080   1.9137   1.9167   1.9173   1.9186   1.9212
     1.9215   1.9216   1.9483   1.9488   1.9489   1.9748   1.9768   1.9943
     1.9960   1.9962   2.0082   2.0086   2.0103   2.0197   2.0401   2.0404
     2.0405   2.0412   2.0658   2.0677   2.0679   2.0680   2.0724   2.0724
     2.0744   2.0770   2.0772   2.0969   2.0992   2.1076   2.1153   2.1294
     2.1343   2.1468   2.1478   2.1612   2.1613   2.1662   2.1663   2.1822
     2.1823   2.2008   2.2013   2.2057   2.2253   2.2418   2.2420   2.2641
     2.2645   2.3111   2.3153   2.3176   2.3176   2.3196   2.3196   2.3201
     2.3233   2.3526   2.3745   2.3746   2.3760   2.3767   2.3767   2.3840
     2.3863   2.3875   2.4735   2.4926   2.5028   2.5039   2.5303   2.5308
     2.5442   2.5512   2.5522   2.5620   2.5624   2.5733   2.5737   2.5739
     2.5742   2.5752   2.5984   2.5985   2.5991   2.5999   2.6014   2.6278
     2.6292   2.6416   2.6798   2.6866   2.6872   2.7219   2.7223   2.7308
     2.7316   2.7468   2.7578   2.7587   2.7588   2.7699   2.7737   2.7737
     2.7820   2.7837   2.7841   2.7890   2.8071   2.8112   2.8118   2.8196
     2.8196   2.8326   2.8402   2.8404   2.8439   2.8439   2.8555   2.8557
     2.8593   2.8712   2.8712   2.8746   2.8746   2.8805   2.9034   2.9482
     2.9486   2.9494   2.9496   2.9585   2.9587   2.9597   2.9646   2.9698
     2.9717   2.9719   2.9736   2.9740   2.9762   2.9790   2.9831   2.9831
     2.9862   2.9878   2.9878   2.9908   2.9908   2.9913   2.9923   2.9976
     2.9977   2.9988   2.9996   2.9996   3.0123   3.0123   3.0147   3.0177
     3.0291   3.0291   3.0521   3.0521   3.0523   3.0570   3.0570   3.0594
     3.0827   3.0888   3.0889   3.1029   3.1034   3.1295   3.1402   3.1539
     3.1541   3.1634   3.1635   3.2170   3.2231   3.2233   3.2936   3.3324
     3.3326   3.3372   3.3400   3.3401   3.3410   3.3486   3.3555   3.3556
     3.3558   3.3558   3.3578   3.3864   3.4195   3.4196   3.4204   3.4208
     3.4208   3.4270   3.4326   3.4326   3.4333   3.4333   3.4355   3.4386
     3.6796   3.6806   3.6842   5.9674   6.0593   6.1843   6.4042   6.4410
     6.4413   6.4744   6.4746   6.5165   6.5575   6.5580   6.5680   6.5681
     6.5716   6.5765   6.5778   6.5778   6.6414   6.7382   6.7389   6.7954
     6.7955   6.8068   6.8163   6.8164   6.8164   6.8166   6.8174   6.8501
     6.8676   6.8868   6.8869   6.8977   6.8977   6.9170   6.9173   6.9541
     6.9541   6.9749   6.9917   7.0146   7.0221   7.0222   7.0379   7.0386
     7.0453   7.0456   7.0533   7.0569   7.0779   7.0782   7.1014   7.1671
     7.1674   7.1800   7.1805   7.1806   7.2434   7.2435   7.2440   7.2441
     7.2456   7.2457   7.2574   7.2575   7.2607   7.2787   7.2788   7.2793
     7.2800   7.2839   7.2885   7.2973   7.3052   7.3127   7.3129   7.3259
     7.3260   7.3318   7.3322   7.3323   7.3424   7.3428   7.3429   7.3457
     7.3474   7.3475   7.3493   7.3536   7.3536   7.4057   7.4212   7.4213
     7.4260   7.4395   7.4396   7.4416   7.4586   7.4589   7.4629   7.4631
     7.4740   7.4816   7.4849   7.4849   7.4917   7.4969   7.4971   7.5337
     7.5337   7.5338   7.5363   7.5365   7.5365   7.5614   7.5614   7.5700
     7.5762   7.6083   7.6123   7.6130   7.6177   7.6178   7.6194   7.6466
     7.6469   7.7463   7.7465   7.7528   7.7554   7.7574   7.7575   7.7711
     7.7712   7.7717   7.7853   7.7871   7.7871   8.0509   8.0543   8.0544
     9.1279   9.1280   9.1282   9.5078   9.5082   9.5232   9.6645   9.6683
     9.6683   9.6837   9.6839   9.7211   9.7830   9.8018   9.8020   9.8401
     9.9298   9.9299   9.9299   9.9309   9.9353   9.9354   9.9978  10.0402
    10.0406  10.0558  10.0630  10.0636  10.1617  10.1618  10.2150  10.2163
    10.2336  10.2350  10.2532  10.2533  10.2620  10.2620  10.2635  10.2648
    10.2838  10.3337  10.3493  10.3493  10.3501  10.3502  10.3520  10.3840
    10.4166  10.4167  10.4268  10.4334  10.4338  10.4381  10.6079  10.6096
    10.6211  10.6395  10.6762  10.6763  10.7135  10.7611  10.7611  10.7890
    10.7898  10.7972  10.8024  10.8126  10.8126  10.8230  10.8231  10.8293
    10.8542  10.9095  10.9096  10.9183  10.9186  10.9189  10.9898  11.0284
    11.0291  11.0324  11.0328  11.0514  11.0690  11.0693

     occupation numbers 
     1.0000   1.0000   1.0000   1.0000   1.0000   1.0000   1.0000   1.0000
     1.0000   1.0000   1.0000   1.0000   1.0000   1.0000   1.0000   1.0000
     1.0000   1.0000   1.0000   1.0000   1.0000   1.0000   1.0000   1.0000
     1.0000   1.0000   1.0000   1.0000   1.0000   1.0000   1.0000   1.0000
     1.0000   1.0000   1.0000   1.0000   1.0000   1.0000   1.0000   1.0000
     1.0000   1.0000   1.0000   1.0000   1.0000   1.0000   1.0000   1.0000
     1.0000   1.0000   1.0000   1.0000   1.0000   1.0000   1.0000   1.0000
     1.0000   1.0000   1.0000   1.0000   1.0000   1.0000   1.0000   1.0000
     1.0000   1.0000   1.0000   1.0000   1.0000   1.0000   1.0000   1.0000
     1.0000   1.0000   1.0000   1.0000   1.0000   1.0000   1.0000   1.0000
     1.0000   1.0000   1.0000   1.0000   1.0000   1.0000   1.0000   1.0000
     1.0000   1.0000   1.0000   1.0000   1.0000   1.0000   1.0000   1.0000
     1.0000   1.0000   1.0000   1.0000   1.0000   1.0000   1.0000   1.0000
     1.0000   1.0000   1.0000   1.0000   1.0000   1.0000   1.0000   1.0000
     1.0000   1.0000   1.0000   1.0000   1.0000   1.0000   1.0000   1.0000
     1.0000   1.0000   1.0000   1.0000   1.0000   1.0000   1.0000   1.0000
     1.0000   1.0000   1.0000   1.0000   1.0000   1.0000   1.0000   1.0000
     1.0000   1.0000   1.0000   1.0000   1.0000   1.0000   1.0000   1.0000
     1.0000   1.0000   1.0000   1.0000   1.0000   1.0000   1.0000   1.0000
     1.0000   1.0000   1.0000   1.0000   1.0000   1.0000   1.0000   1.0000
     1.0000   1.0000   1.0000   1.0000   1.0000   1.0000   1.0000   1.0000
     1.0000   1.0000   1.0000   1.0000   1.0000   1.0000   1.0000   1.0000
     1.0000   1.0000   1.0000   1.0000   1.0000   1.0000   1.0000   1.0000
     1.0000   1.0000   1.0000   1.0000   1.0000   1.0000   1.0000   1.0000
     1.0000   1.0000   1.0000   1.0000   1.0000   1.0000   1.0000   1.0000
     1.0000   1.0000   1.0000   1.0000   1.0000   1.0000   1.0000   1.0000
     1.0000   1.0000   1.0000   1.0000   1.0000   1.0000   1.0000   1.0000
     1.0000   1.0000   1.0000   1.0000   1.0000   1.0000   1.0000   1.0000
     1.0000   1.0000   1.0000   1.0000   1.0000   1.0000   1.0000   1.0000
     1.0000   1.0000   1.0000   1.0000   1.0000   1.0000   1.0000   1.0000
     1.0000   1.0000   1.0000   1.0000   1.0000   1.0000   1.0000   1.0000
     1.0000   1.0000   1.0000   1.0000   1.0000   1.0000   1.0000   1.0000
     1.0000   1.0000   1.0000   1.0000   1.0000   1.0000   1.0000   1.0000
     1.0000   1.0000   1.0000   1.0000   1.0000   1.0000   1.0000   1.0000
     1.0000   1.0000   1.0000   1.0000   1.0000   1.0000   1.0000   1.0000
     1.0000   1.0000   1.0000   1.0000   1.0000   1.0000   1.0000   1.0000
     1.0000   1.0000   1.0000   1.0000   1.0000   1.0000   1.0000   1.0000
     1.0000   1.0000   1.0000   1.0000   1.0000   1.0000   1.0000   1.0000
     1.0000   1.0000   1.0000   1.0000   1.0000   1.0000   1.0000   1.0000
     1.0000   1.0000   1.0000   1.0000   1.0000   1.0000   1.0000   1.0000
     1.0000   1.0000   1.0000   1.0000   1.0000   1.0000   1.0000   1.0000
     1.0000   1.0000   1.0000   1.0000   1.0000   1.0000   1.0000   1.0000
     1.0000   1.0000   1.0000   1.0000   1.0000   1.0000   1.0000   1.0000
     1.0000   1.0000   1.0000   1.0000   1.0000   1.0000   1.0000   1.0000
     1.0000   1.0000   1.0000   1.0000   1.0000   1.0000   1.0000   1.0000
     1.0000   1.0000   1.0000   1.0000   1.0000   1.0000   1.0000   1.0000
     1.0000   1.0000   1.0000   1.0000   1.0000   1.0000   1.0000   1.0000
     1.0000   1.0000   1.0000   1.0000   1.0000   1.0000   1.0000   1.0000
     1.0000   1.0000   1.0000   1.0000   1.0000   1.0000   1.0000   1.0000
     1.0000   1.0000   1.0000   1.0000   1.0000   1.0000   1.0000   1.0000
     1.0000   1.0000   1.0000   1.0000   1.0000   1.0000   1.0000   1.0000
     1.0000   1.0000   1.0000   1.0000   1.0000   1.0000   1.0000   1.0000
     1.0000   1.0000   1.0000   1.0000   1.0000   1.0000   1.0000   1.0000
     1.0000   1.0000   1.0000   1.0000   1.0000   1.0000   1.0000   1.0000
     1.0000   1.0000   1.0000   1.0000   1.0000   1.0000   1.0000   1.0000
     1.0000   1.0000   1.0000   1.0000   1.0000   1.0000   1.0000   1.0000
     1.0000   1.0000   1.0000   1.0000   1.0000   1.0000   1.0000   1.0000
     1.0000   1.0000   1.0000   1.0000   1.0000   1.0000   1.0000   1.0000
     1.0000   1.0000   1.0000   1.0000   1.0000   1.0000   1.0000   1.0000
     1.0000   1.0000   1.0000   1.0000   1.0000   1.0000   1.0000   1.0000
     1.0000   1.0000   1.0000   1.0000   1.0000   1.0000   1.0000   1.0000
     1.0000   1.0000   1.0000   1.0000   1.0000   1.0000   1.0000   1.0000
     1.0000   1.0000   1.0000   1.0000   1.0000   1.0000   1.0000   1.0000
     1.0000   1.0000   1.0000   1.0000   1.0000   1.0000   1.0000   1.0000
     1.0000   1.0000   1.0000   1.0000   1.0000   1.0000   1.0000   1.0000
     1.0000   1.0000   1.0000   1.0000   1.0000   1.0000   1.0000   1.0000
     1.0000   1.0000   1.0000   1.0000   1.0000   1.0000   1.0000   1.0000
     1.0000   1.0000   1.0000   1.0000   1.0000   1.0000   1.0000   1.0000
     1.0000   1.0000   1.0000   1.0000   1.0000   1.0000   1.0000   1.0000
     1.0000   1.0000   1.0000   1.0000   1.0000   1.0000   1.0000   1.0000
     1.0000   1.0000   1.0000   1.0000   1.0000   1.0000   1.0000   1.0000
     1.0000   1.0000   1.0000   1.0000   1.0000   1.0000   1.0000   1.0000
     1.0000   1.0000   1.0000   1.0000   1.0000   1.0000   1.0000   1.0000
     1.0000   1.0000   1.0000   1.0000   1.0000   1.0000   1.0000   1.0000
     1.0000   1.0000   1.0000   1.0000   1.0000   1.0000   1.0000   1.0000
     1.0000   1.0000   1.0000   1.0000   1.0000   1.0000   1.0000   1.0000
     1.0000   1.0000   1.0000   1.0000   1.0000   1.0000   1.0000   1.0000
     1.0000   1.0000   1.0000   1.0000   1.0000   1.0000   1.0000   1.0000
     1.0000   1.0000   1.0000   1.0000   1.0000   1.0000   1.0000   1.0000
     1.0000   1.0000   1.0000   1.0000   1.0000   1.0000   1.0000   1.0000
     1.0000   1.0000   1.0000   1.0000   1.0000   1.0000   1.0000   1.0000
     1.0000   1.0000   1.0000   1.0000   1.0000   1.0000   1.0000   1.0000
     1.0000   1.0000   1.0000   1.0000   1.0000   1.0000   1.0000   1.0000
     1.0000   1.0000   1.0000   1.0000   1.0000   1.0000   1.0000   1.0000
     1.0000   1.0000   1.0000   1.0000   1.0000   1.0000   1.0000   1.0000
     1.0000   1.0000   1.0000   1.0000   1.0000   1.0000   1.0000   1.0000
     1.0000   1.0000   1.0000   1.0000   1.0000   1.0000   1.0000   1.0000
     1.0000   1.0000   1.0000   1.0000   1.0000   1.0000   1.0000   1.0000
     1.0000   1.0000   1.0000   1.0000   1.0000   1.0000   1.0000   1.0000
     1.0000   1.0000   1.0000   1.0000   1.0000   1.0000   1.0000   1.0000
     1.0000   1.0000   1.0000   1.0000   1.0000   1.0000   1.0000   1.0000
     1.0000   1.0000   1.0000   1.0000   1.0000   1.0000   1.0000   1.0000
     1.0000   1.0000   1.0000   1.0000   1.0000   1.0000   1.0000   1.0000
     1.0000   1.0000   1.0000   1.0000   1.0000   1.0000   1.0000   1.0000
     1.0000   1.0000   1.0000   1.0000   1.0000   1.0000   1.0000   1.0000
     1.0000   1.0000   1.0000   1.0000   1.0000   1.0000   1.0000   1.0000
     1.0000   1.0000   1.0000   1.0000   1.0000   1.0000   1.0000   1.0000
     1.0000   1.0000   1.0000   1.0000   1.0000   1.0000   1.0000   1.0000
     1.0000   1.0000   1.0000   1.0000   1.0000   1.0000   1.0000   1.0000
     1.0000   1.0000   1.0000   1.0000   1.0000   1.0000   1.0000   1.0000
     1.0000   1.0000   1.0000   1.0000   1.0000   1.0000   1.0000   1.0000
     1.0000   1.0000   1.0000   1.0000   1.0000   1.0000   1.0000   1.0000
     1.0000   1.0000   1.0000   1.0000   1.0000   1.0000   1.0000   1.0000
     1.0000   1.0000   1.0000   1.0000   1.0000   1.0000   1.0000   1.0000
     1.0000   1.0000   1.0000   1.0000   1.0000   1.0000   1.0000   1.0000
     1.0000   1.0000   1.0000   1.0000   1.0000   1.0000   1.0000   1.0000
     1.0000   1.0000   1.0000   1.0000   1.0000   1.0000   1.0000   1.0000
     1.0000   1.0000   1.0000   1.0000   1.0000   1.0000   1.0000   1.0000
     1.0000   1.0000   1.0000   1.0000   1.0000   1.0000   1.0000   1.0000
     1.0000   1.0000   1.0000   1.0000   1.0000   1.0000   1.0000   1.0000
     1.0000   1.0000   1.0000   1.0000   1.0000   1.0000   1.0000   1.0000
     1.0000   1.0000   1.0000   1.0000   1.0000   1.0000   1.0000   1.0000
     1.0000   1.0000   1.0000   1.0000   1.0000   1.0000   1.0000   1.0000
     1.0000   1.0000   1.0000   1.0000   1.0000   1.0000   1.0000   1.0000
     1.0000   1.0000   1.0000   1.0000   1.0000   1.0000   1.0000   1.0000
     1.0000   1.0000   1.0000   1.0000   1.0000   1.0000   1.0000   1.0000
     1.0000   1.0000   1.0000   1.0000   1.0000   1.0000   1.0000   1.0000
     1.0000   1.0000   1.0000   1.0000   1.0000   1.0000   1.0000   1.0000
     1.0000   1.0000   1.0000   1.0000   1.0000   1.0000   1.0000   1.0000
     1.0000   1.0000   1.0000   1.0000   1.0000   1.0000   1.0000   1.0000
     1.0000   1.0000   1.0000   1.0000   1.0000   1.0000   1.0000   1.0000
     1.0000   1.0000   1.0000   1.0000   1.0000   1.0000   1.0000   1.0000
     1.0000   1.0000   1.0000   1.0000   1.0000   1.0000   1.0000   1.0000
     1.0000   1.0000   1.0000   1.0000   1.0000   1.0000   1.0000   1.0000
     1.0000   1.0000   1.0000   1.0000   1.0000   1.0000   1.0000   1.0000
     1.0000   1.0000   1.0000   1.0000   1.0000   1.0000   1.0000   1.0000
     1.0000   1.0000   1.0000   1.0000   1.0000   1.0000   1.0000   1.0000
     1.0000   1.0000   1.0000   1.0000   1.0000   1.0000   1.0000   1.0000
     1.0000   1.0000   1.0000   1.0000   1.0000   1.0000   1.0000   1.0000
     1.0000   1.0000   1.0000   1.0000   1.0000   1.0000   1.0000   1.0000
     1.0000   1.0000   1.0000   1.0000   1.0000   1.0000   1.0000   1.0000
     1.0000   1.0000   1.0000   1.0000   1.0000   1.0000   1.0000   1.0000
     1.0000   1.0000   1.0000   1.0000   1.0000   1.0000   1.0000   1.0000
     1.0000   1.0000   1.0000   1.0000   1.0000   1.0000   1.0000   1.0000
     1.0000   1.0000   1.0000   1.0000   1.0000   1.0000   1.0000   1.0000
     1.0000   1.0000   1.0000   1.0000   1.0000   1.0000   1.0000   1.0000
     1.0000   1.0000   1.0000   1.0000   1.0000   1.0000   1.0000   1.0000
     1.0000   1.0000   1.0000   1.0000   1.0000   1.0000   1.0000   1.0000
     1.0000   1.0000   1.0000   1.0000   1.0000   1.0000   1.0000   1.0000
     1.0000   1.0000   1.0000   1.0000   1.0000   1.0000   1.0000   1.0000
     1.0000   1.0000   1.0000   1.0000   0.9999   0.9999   0.9992   0.9969
     0.9969   0.9964   0.9961   0.9961   0.9960   0.9949   0.9938   0.9938
     0.9937   0.9937   0.9934   0.9853   0.9667   0.9667   0.9660   0.9657
     0.9657   0.9605   0.9553   0.9553   0.9546   0.9546   0.9523   0.9491
     0.1925   0.1895   0.1796   0.0000   0.0000   0.0000   0.0000   0.0000
     0.0000   0.0000   0.0000   0.0000   0.0000   0.0000   0.0000   0.0000
     0.0000   0.0000   0.0000   0.0000   0.0000   0.0000   0.0000   0.0000
     0.0000   0.0000   0.0000   0.0000   0.0000   0.0000   0.0000   0.0000
     0.0000   0.0000   0.0000   0.0000   0.0000   0.0000   0.0000   0.0000
     0.0000   0.0000   0.0000   0.0000   0.0000   0.0000   0.0000   0.0000
     0.0000   0.0000   0.0000   0.0000   0.0000   0.0000   0.0000   0.0000
     0.0000   0.0000   0.0000   0.0000   0.0000   0.0000   0.0000   0.0000
     0.0000   0.0000   0.0000   0.0000   0.0000   0.0000   0.0000   0.0000
     0.0000   0.0000   0.0000   0.0000   0.0000   0.0000   0.0000   0.0000
     0.0000   0.0000   0.0000   0.0000   0.0000   0.0000   0.0000   0.0000
     0.0000   0.0000   0.0000   0.0000   0.0000   0.0000   0.0000   0.0000
     0.0000   0.0000   0.0000   0.0000   0.0000   0.0000   0.0000   0.0000
     0.0000   0.0000   0.0000   0.0000   0.0000   0.0000   0.0000   0.0000
     0.0000   0.0000   0.0000   0.0000   0.0000   0.0000   0.0000   0.0000
     0.0000   0.0000   0.0000   0.0000   0.0000   0.0000   0.0000   0.0000
     0.0000   0.0000   0.0000   0.0000   0.0000   0.0000   0.0000   0.0000
     0.0000   0.0000   0.0000   0.0000   0.0000   0.0000   0.0000   0.0000
     0.0000   0.0000   0.0000   0.0000   0.0000   0.0000   0.0000   0.0000
     0.0000   0.0000   0.0000   0.0000   0.0000   0.0000   0.0000   0.0000
     0.0000   0.0000   0.0000   0.0000   0.0000   0.0000   0.0000   0.0000
     0.0000   0.0000   0.0000   0.0000   0.0000   0.0000   0.0000   0.0000
     0.0000   0.0000   0.0000   0.0000   0.0000   0.0000   0.0000   0.0000
     0.0000   0.0000   0.0000   0.0000   0.0000   0.0000   0.0000   0.0000
     0.0000   0.0000   0.0000   0.0000   0.0000   0.0000   0.0000   0.0000
     0.0000   0.0000   0.0000   0.0000   0.0000   0.0000   0.0000   0.0000
     0.0000   0.0000   0.0000   0.0000   0.0000   0.0000   0.0000   0.0000
     0.0000   0.0000   0.0000   0.0000   0.0000   0.0000   0.0000   0.0000
     0.0000   0.0000   0.0000   0.0000   0.0000   0.0000

     the Fermi energy is     3.5960 ev

!    total energy              =  -96802.20145650 Ry
     total all-electron energy =  -3345911.395172 Ry
     estimated scf accuracy    <       0.00000010 Ry
     smearing contrib. (-TS)   =      -0.02913523 Ry
     internal energy E=F+TS    =  -96802.17232128 Ry

     The total energy is F=E-TS. E is the sum of the following terms:
     one-electron contribution =  -17986.82632168 Ry
     hartree contribution      =   10035.92829445 Ry
     xc contribution           =   -6822.62102801 Ry
     ewald contribution        =  -14866.76571755 Ry
     one-center paw contrib.   =  -67161.88754849 Ry
      -> PAW hartree energy AE =     191.62855333 Ry
      -> PAW hartree energy PS =    -192.10045987 Ry
      -> PAW xc energy AE      =   -1596.84391209 Ry
      -> PAW xc energy PS      =      66.60503497 Ry
      -> total E_H with PAW    =   10035.45638791 Ry
      -> total E_XC with PAW   =   -8352.85990513 Ry

     convergence has been achieved in  16 iterations


     -----------------------------------------------
     Non-local corr. energy    =      69.34613963 Ry
     -----------------------------------------------


     Forces acting on atoms (cartesian axes, Ry/au):

     atom    1 type  1   force =     0.00000193    0.00000159   -0.00006202
     atom    2 type  1   force =     0.00000385    0.00000034    0.00004964
     atom    3 type  1   force =    -0.00056946    0.00111075    0.00008820
     atom    4 type  1   force =    -0.00005194    0.00026570   -0.00024003
     atom    5 type  1   force =    -0.00020402    0.00017596    0.00022601
     atom    6 type  1   force =    -0.00000416   -0.00000042    0.00001148
     atom    7 type  1   force =     0.00015828    0.00009419   -0.00031285
     atom    8 type  1   force =    -0.00016868   -0.00009246    0.00030412
     atom    9 type  1   force =     0.00056555   -0.00111811   -0.00007850
     atom   10 type  1   force =     0.00020670   -0.00017677   -0.00023899
     atom   11 type  1   force =     0.00004942   -0.00026297    0.00022859
     atom   12 type  1   force =     0.00126769    0.00005677   -0.00005998
     atom   13 type  1   force =     0.00025477   -0.00008838   -0.00024064
     atom   14 type  1   force =     0.00025174    0.00009311    0.00023050
     atom   15 type  1   force =     0.00059016    0.00103087    0.00001908
     atom   16 type  1   force =     0.00005740    0.00026551   -0.00023504
     atom   17 type  1   force =     0.00021045    0.00017748    0.00022785
     atom   18 type  1   force =     0.00001501    0.00056565    0.00026725
     atom   19 type  1   force =    -0.00000027    0.00025038   -0.00049319
     atom   20 type  1   force =     0.00000196   -0.00007361    0.00024356
     atom   21 type  1   force =     0.00048140   -0.00028336    0.00027065
     atom   22 type  1   force =     0.00021586   -0.00012499   -0.00049577
     atom   23 type  1   force =    -0.00006689    0.00003905    0.00024571
     atom   24 type  1   force =    -0.00000599    0.00000632    0.00000781
     atom   25 type  1   force =    -0.00000373   -0.00018311   -0.00031405
     atom   26 type  1   force =    -0.00000563    0.00019534    0.00030313
     atom   27 type  1   force =     0.00047720    0.00029953   -0.00025272
     atom   28 type  1   force =    -0.00006236   -0.00003412   -0.00025362
     atom   29 type  1   force =     0.00021466    0.00012612    0.00048539
     atom   30 type  1   force =     0.00000642   -0.00000783    0.00000522
     atom   31 type  1   force =    -0.00015700    0.00009006   -0.00031445
     atom   32 type  1   force =     0.00016728   -0.00009771    0.00030559
     atom   33 type  1   force =    -0.00048293   -0.00030214    0.00026710
     atom   34 type  1   force =    -0.00021841   -0.00012612   -0.00049295
     atom   35 type  1   force =     0.00006383    0.00003517    0.00024225
     atom   36 type  1   force =    -0.00126198   -0.00004800    0.00007320
     atom   37 type  1   force =    -0.00025564   -0.00008594   -0.00024111
     atom   38 type  1   force =    -0.00025437    0.00009153    0.00022422
     atom   39 type  1   force =    -0.00048852    0.00028670   -0.00025113
     atom   40 type  1   force =     0.00005734   -0.00003237   -0.00025056
     atom   41 type  1   force =    -0.00022656    0.00013044    0.00048157
     atom   42 type  1   force =    -0.00001587   -0.00056920   -0.00024922
     atom   43 type  1   force =    -0.00000071    0.00006941   -0.00025248
     atom   44 type  1   force =    -0.00000203   -0.00025009    0.00048371
     atom   45 type  1   force =    -0.00057337   -0.00103846   -0.00001348
     atom   46 type  1   force =    -0.00020146   -0.00018273   -0.00023389
     atom   47 type  1   force =    -0.00005060   -0.00026990    0.00022388
     atom   48 type  2   force =    -0.00000072    0.00010997    0.00025945
     atom   49 type  2   force =     0.00000297    0.00007273   -0.00019184
     atom   50 type  2   force =     0.00000684    0.00172352    0.00020622
     atom   51 type  2   force =     0.00009935   -0.00004739    0.00025337
     atom   52 type  2   force =     0.00007233   -0.00004452   -0.00019819
     atom   53 type  2   force =     0.00218833   -0.00127298    0.00048359
     atom   54 type  2   force =    -0.00005825   -0.00010396    0.00043315
     atom   55 type  2   force =     0.00012315   -0.00000246   -0.00005158
     atom   56 type  2   force =     0.00038734   -0.00033194    0.00023582
     atom   57 type  2   force =    -0.00012473   -0.00000226    0.00043805
     atom   58 type  2   force =     0.00005071    0.00012217   -0.00004996
     atom   59 type  2   force =    -0.00010813    0.00052527    0.00021546
     atom   60 type  2   force =    -0.00046242    0.00026558    0.00017421
     atom   61 type  2   force =    -0.00003871    0.00001742   -0.00004343
     atom   62 type  2   force =    -0.00028694    0.00014626   -0.00000403
     atom   63 type  2   force =    -0.00010345   -0.00004462    0.00025515
     atom   64 type  2   force =    -0.00006718   -0.00004473   -0.00020257
     atom   65 type  2   force =    -0.00163544   -0.00095925    0.00024347
     atom   66 type  2   force =     0.00000192   -0.00052048    0.00017381
     atom   67 type  2   force =     0.00000229   -0.00003491   -0.00004530
     atom   68 type  2   force =    -0.00000784   -0.00029804    0.00000795
     atom   69 type  2   force =    -0.00024711   -0.00014956    0.00026072
     atom   70 type  2   force =     0.00003679    0.00002665   -0.00022452
     atom   71 type  2   force =    -0.00003699   -0.00002213    0.00001057
     atom   72 type  2   force =     0.00000103    0.00028841    0.00026107
     atom   73 type  2   force =    -0.00000410   -0.00004951   -0.00022903
     atom   74 type  2   force =     0.00000241    0.00003903    0.00001592
     atom   75 type  2   force =    -0.00006115    0.00011125    0.00043838
     atom   76 type  2   force =    -0.00007632   -0.00010638   -0.00006121
     atom   77 type  2   force =    -0.00048894   -0.00017590    0.00021917
     atom   78 type  2   force =     0.00005908   -0.00010810    0.00043513
     atom   79 type  2   force =    -0.00012575   -0.00000735   -0.00005796
     atom   80 type  2   force =    -0.00037042   -0.00031322    0.00023310
     atom   81 type  2   force =     0.00024897   -0.00014917    0.00026294
     atom   82 type  2   force =    -0.00003772    0.00002402   -0.00022443
     atom   83 type  2   force =     0.00003411   -0.00001601    0.00000770
     atom   84 type  2   force =     0.00044782    0.00025653    0.00018053
[...]

     corecor stress (kbar) -11344.39     -0.01      0.01
                               -0.01 -11344.40     -0.01
                                0.01     -0.01 -11344.28

     ewald   stress (kbar) -14186.11     -5.57      8.55
                               -5.57 -14195.80     -7.35
                                8.55     -7.35 -19175.08

     hubbard stress (kbar)      0.00      0.00      0.00
                                0.00      0.00      0.00
                                0.00      0.00      0.00

     DFT-D   stress (kbar)      0.00      0.00      0.00
                                0.00      0.00      0.00
                                0.00      0.00      0.00

     XDM     stress (kbar)      0.00      0.00      0.00
                                0.00      0.00      0.00
                                0.00      0.00      0.00

     dft-nl  stress (kbar)     83.65      0.00     -0.00
                                0.00     83.65      0.00
                               -0.00      0.00     84.99

     TS-vdW  stress (kbar)      0.00      0.00      0.00
                                0.00      0.00      0.00
                                0.00      0.00      0.00

     MDB     stress (kbar)      0.00      0.00      0.00
                                0.00      0.00      0.00
                                0.00      0.00      0.00

     3D-RISM stress (kbar)      0.00      0.00      0.00
                                0.00      0.00      0.00
                                0.00      0.00      0.00

     Energy error            =      4.8E-04 Ry
     Gradient error          =      5.4E-03 Ry/Bohr

     number of scf cycles    =  13
     number of bfgs steps    =  12

     energy             old  =  -96802.2028615692 Ry
     energy             new  =  -96802.2033433087 Ry

     CASE: energy            _new < energy            _old


     WARNING: bfgs curvature condition failed, Theta= 0.754
     new trust radius        =       0.1195861283 bohr
     new conv_thr            =       0.0000000048 Ry


ATOMIC_POSITIONS (angstrom)
Pb            2.3554027751        4.0800827163        7.4060281174
Pb            2.3561521076        4.0793249721       14.7270741092
Pb           -0.0541436272        8.2788958436       22.1486704302
Pb           -0.0063173541        8.1617021339        7.3895246542
Pb            0.0016171504        8.1665515212       14.7428848493
Pb           -2.3555888203       12.2398012516       22.1331004694
Pb           -2.3593904420       12.2375704199        7.3868145248
Pb           -2.3519540395       12.2422366679       14.7461056376
Pb           -4.6568656251       16.2004088800       22.1173998245
Pb           -4.7126743548       16.3132275596        7.3900214537
Pb           -4.7048300222       16.3180952320       14.7434134004
Pb            7.2006343634        4.0896818335       22.1207795756
Pb            7.0718032659        4.0844925275        7.3899446386
Pb            7.0715382046        4.0750121946       14.7434270489
Pb            4.7687347256        8.2637486268       22.1360988251
Pb            4.7180320227        8.1624678760        7.3899951039
Pb            4.7104799090        8.1669021907       14.7428768016
Pb            2.3590559870       12.2741622049       22.1066748207
Pb            2.3558230428       12.2337251962        7.3535812355
Pb            2.3559280252       12.2431302988       14.7408055921
Pb            0.0291307957       16.3020807643       22.1072081122
Pb           -0.0042606163       16.3224004067        7.3538899087
Pb            0.0028086309       16.3182735778       14.7407950940
Pb           11.7782349146        4.0797567825       22.1331688200
Pb           11.7782714032        4.0842159905        7.3870116396
Pb           11.7780631439        4.0754479479       14.7460818156
Pb            9.4502699188        8.1805233514       22.1593675422
Pb            9.4253867562        8.1616912490        7.3921445807
Pb            9.4174899125        8.1570619144       14.7792134008
Pb            7.0671867934       12.2397243704       22.1329675653
Pb            7.0709634040       12.2375407050        7.3864738908
Pb            7.0633224610       12.2420675933       14.7464087512
Pb            4.6837652029       16.2990560424       22.1067627610
Pb            4.7164505737       16.3227197857        7.3537464347
Pb            4.7086805178       16.3180750894       14.7408462236
Pb           16.3560911693        4.0696052017       22.1455499800
Pb           16.4848673206        4.0844905677        7.3896208156
Pb           16.4847384032        4.0749717454       14.7430789900
Pb           14.1048105556        8.1775927702       22.1589594686
Pb           14.1309308878        8.1615966250        7.3922953222
Pb           14.1379874584        8.1575287940       14.7789412873
Pb           11.7750204675       12.2054376596       22.1593905445
Pb           11.7780758016       12.2365221642        7.3920998308
Pb           11.7781404530       12.2460338239       14.7792811288
Pb            9.3657305563       16.2154579716       22.1296317695
Pb            9.4236963491       16.3127466866        7.3901536871
Pb            9.4161367971       16.3171842023       14.7430349998
I             2.3562471987        1.3594898445        5.5035863532
I             2.3557689330        1.3567082162       12.8639407665
I             2.3570099198        1.4908776494       20.2028667576
I            -0.0003798659        5.4397119256        5.5045026355
I            -0.0023654412        5.4411730167       12.8637440376
I             0.2315192540        5.3054548886       20.2582783827
I            -2.3600156513        9.5161087109        5.4989600211
I            -2.3632663613        9.5152381689       12.8785495541
I            -2.3254857444        9.5071444301       20.2464633504
I            -4.7168291941       13.5980096757        5.4991015083
I            -4.7190115671       13.5959769425       12.8781236587
I            -4.7062016626       13.6339193301       20.2446760975
I             7.0288237535        1.3817394627        5.4530572671
I             7.0649910697        1.3608467855       12.8685144780
I             7.0643617325        1.3613779096       20.2686261298
I             4.7119189226        5.4392632494        5.5038168834
I             4.7139698313        5.4412134294       12.8638486937
I             4.5747565459        5.3586883351       20.2129972081
I             2.3557662043        9.4802195507        5.4563980879
I             2.3559303395        9.5176598292       12.8685128763
I             2.3547914523        9.5189750639       20.2674768730
I            -0.0115436272       13.5928899727        5.4781484701
I            -0.0003220687       13.5999802472       12.8583916200
I            -0.0006580300       13.5997411722       20.2523928459
I            11.7785611572        1.3734918095        5.4780533366
I            11.7780845961        1.3600682884       12.8583738817
I            11.7781308628        1.3608112833       20.2527202610
I             9.4216658336        5.4456267727        5.4991582529
I             9.4222487879        5.4486076563       12.8781395178
I             9.3950404067        5.4178374755       20.2447625558
I             7.0714343616        9.5159668369        5.4988913000
I             7.0742966216        9.5149961369       12.8783750987
I             7.0396819607        9.5087888368       20.2462106161
I             4.7229599660       13.5932519302        5.4787512961
I             4.7116661183       13.5998684976       12.8584003115
I             4.7110680117       13.6002296727       20.2516884377
I            16.5245877392        1.3799330311        5.4556122207
I            16.4915882969        1.3606124126       12.8685683186
I            16.4903456137        1.3613722272       20.2679062953
I            14.1349134093        5.4454640127        5.4990408994
I            14.1340159569        5.4487611887       12.8785102967
I            14.1609119227        5.4191815235       20.2462535553
I            11.7781697166        9.5199174869        5.4998977746
I            11.7784618262        9.5196569310       12.9265910162
I            11.7779882672        9.5201005147       20.2465139697
I             9.4282415561       13.5981696092        5.4988753129
I             9.4305016971       13.5961573739       12.8783165012
I             9.4184648441       13.6296635438       20.2458833771
I             0.1377933046        2.7993483841        1.9197529880
I            -0.0022399449        2.7180872802        9.2694097986
I            -0.0001379255        2.7200234187       16.6293522768
I            -2.3533593196        6.7980686919        1.8643702754
I            -2.3538591959        6.7988442510        9.2646179960
I            -2.3173452051        6.7776994561       16.6797933671
I            -4.7106610261       10.8801882547        1.8804750120
I            -4.7110938978       10.8801806349        9.2746510233
I            -4.6999002415       10.8874695512       16.6548436893
I            -7.0658318881       14.9608030128        1.8651943562
I            -7.0668138741       14.9621750697        9.2645450573
I            -7.0667483770       14.9996910874       16.6767713309
I             4.4809131607        2.8525417853        1.8749824202
I             4.7139401246        2.7181946137        9.2696370425
I             4.7115061435        2.7195619668       16.6286081286
I             2.3553715060        6.6677072752        1.9302062800
I             2.3559197210        6.8025720475        9.2694766187
I             2.3552355167        6.7998274751       16.6294280209
I            -0.0051770992       10.8458019179        1.8879388397
I             0.0075868984       10.8842252810        9.2550221615
I             0.0055906852       10.8820665886       16.6338504676
I            -2.3854639792       14.9724495153        1.8864822757
I            -2.3482558687       14.9649013101        9.2545412963
I            -2.3515974180       14.9640873983       16.6341170976
I             9.3960368539        2.7400174220        1.8869001121
I             9.4220634994        2.7109370315        9.2546345687
I             9.4211021328        2.7140965011       16.6340259153
I             7.0666876551        6.7980346321        1.8651730380
I             7.0651681900        6.7987361836        9.2646236974
I             7.0317733328        6.7793856849       16.6773711193
I             4.7159585606       10.8499548004        1.8866066751
I             4.7038397484       10.8837071171        9.2547312547
I             4.7060904098       10.8816231300       16.6340383398
I             2.3559875192       14.9599122111        1.8863340593
I             2.3551330219       14.9604141748        9.2063795261
I             2.3557474075       14.9600113708       16.6330757883
I            14.1615086137        2.7415328296        1.8879399670
I            14.1339782437        2.7110235674        9.2549245226
I            14.1349340823        2.7138632478       16.6338507302
I            11.7783325231        6.7989409980        1.8803055977
I            11.7781656525        6.7996500733        9.2746382178
I            11.7775894532        6.7862493045       16.6550034216
I             9.4231173503       10.8796450992        1.8810527159
I             9.4225927080       10.8799891646        9.2745909575
I             9.4111204377       10.8868344120       16.6542155104
I             7.0947659551       14.9711122584        1.8862597256
I             7.0600305864       14.9647397591        9.2545741326
I             7.0631070718       14.9638412996       16.6340955099
I             2.3563756255        4.0788106527       22.1329150316



     Writing config-only to output data dir ./PbI2.save/
     NEW-OLD atomic charge density approx. for the potential

     Check: negative core charge=   -0.000001


     -----------------------------------------------
     Non-local corr. energy    =      69.34196143 Ry
     -----------------------------------------------


     total cpu time spent up to now is   151998.8 secs

     Self-consistent Calculation

     iteration #  1     ecut=    70.00 Ry     beta= 0.70
     Davidson diagonalization with overlap

---- Real-time Memory Report at c_bands before calling an iterative solver
          2666 MiB given to the printing process from OS
             0 MiB allocation reported by mallinfo(arena+hblkhd)
       1946196 MiB available memory on the node where the printing process lives
------------------
     ethr =  1.00E-06,  avg # of iterations = 11.0


     -----------------------------------------------
     Non-local corr. energy    =      69.31001182 Ry
     -----------------------------------------------


     total cpu time spent up to now is   152385.4 secs

     total energy              =  -96802.14040934 Ry
     estimated scf accuracy    <       0.08618220 Ry

     iteration #  2     ecut=    70.00 Ry     beta= 0.70
     Davidson diagonalization with overlap

---- Real-time Memory Report at c_bands before calling an iterative solver
          2666 MiB given to the printing process from OS
             0 MiB allocation reported by mallinfo(arena+hblkhd)
       1932228 MiB available memory on the node where the printing process lives
------------------
     ethr =  3.74E-06,  avg # of iterations = 14.0


     -----------------------------------------------
     Non-local corr. energy    =      69.31256905 Ry
     -----------------------------------------------


     total cpu time spent up to now is   153001.4 secs

     total energy              =  -96801.97223448 Ry
     estimated scf accuracy    <       4.97509638 Ry

     iteration #  3     ecut=    70.00 Ry     beta= 0.70
     Davidson diagonalization with overlap

---- Real-time Memory Report at c_bands before calling an iterative solver
          2666 MiB given to the printing process from OS
             0 MiB allocation reported by mallinfo(arena+hblkhd)
       1932181 MiB available memory on the node where the printing process lives
------------------
     c_bands:  3 eigenvalues not converged
     ethr =  3.74E-06,  avg # of iterations = 20.0


     -----------------------------------------------
     Non-local corr. energy    =      69.32360116 Ry
     -----------------------------------------------


     total cpu time spent up to now is   153872.4 secs

     total energy              =  -96802.18474958 Ry
     estimated scf accuracy    <       0.26757053 Ry

     iteration #  4     ecut=    70.00 Ry     beta= 0.70
     Davidson diagonalization with overlap

---- Real-time Memory Report at c_bands before calling an iterative solver
          2666 MiB given to the printing process from OS
             0 MiB allocation reported by mallinfo(arena+hblkhd)
       1932076 MiB available memory on the node where the printing process lives
------------------
     c_bands:  1 eigenvalues not converged
     ethr =  3.74E-06,  avg # of iterations = 20.0


     -----------------------------------------------
     Non-local corr. energy    =      69.32608500 Ry
     -----------------------------------------------


     total cpu time spent up to now is   154516.3 secs

     total energy              =  -96802.19758765 Ry
     estimated scf accuracy    <       0.05654278 Ry

     iteration #  5     ecut=    70.00 Ry     beta= 0.70
     Davidson diagonalization with overlap

---- Real-time Memory Report at c_bands before calling an iterative solver
          2666 MiB given to the printing process from OS
             0 MiB allocation reported by mallinfo(arena+hblkhd)
       1931968 MiB available memory on the node where the printing process lives
------------------
     c_bands:  1 eigenvalues not converged

     Maximum CPU time exceeded

     max_seconds     =  154800.00
     elapsed seconds =  155013.49
     Calculation stopped in k-point loop, point #     1
     Calculation stopped in scf loop at iteration #     4

     Writing config to output data dir ./PbI2.save/
     Message from routine punch:
     wavefunctions written to file
 
     init_run     :     32.91s CPU     34.32s WALL (       1 calls)
     electrons    : 147800.67s CPU 149874.67s WALL (      14 calls)
     update_pot   :     59.45s CPU     59.90s WALL (      13 calls)
     forces       :    261.78s CPU    270.81s WALL (      13 calls)
     stress       :   4629.44s CPU   4687.85s WALL (      13 calls)

     Called by init_run:
     wfcinit      :     26.49s CPU     27.25s WALL (       1 calls)
     wfcinit:atom :      0.07s CPU      0.13s WALL (       1 calls)
     wfcinit:wfcr :     26.07s CPU     26.50s WALL (       1 calls)
     potinit      :      1.70s CPU      1.98s WALL (       1 calls)
     hinit0       :      0.76s CPU      0.81s WALL (       1 calls)

     Called by electrons:
     c_bands      : 145395.06s CPU 147328.63s WALL (     238 calls)
     sum_band     :   1917.21s CPU   2001.77s WALL (     237 calls)
     v_of_rho     :    191.26s CPU    197.96s WALL (     245 calls)
     v_h          :      2.38s CPU      2.40s WALL (     245 calls)
     v_xc         :    209.34s CPU    216.32s WALL (     271 calls)
     newd         :    129.10s CPU    175.95s WALL (     245 calls)
     PAW_pot      :    146.55s CPU    147.72s WALL (     258 calls)
     mix_rho      :     10.88s CPU     11.43s WALL (     237 calls)
     vdW_kernel   :      0.25s CPU      0.26s WALL (       1 calls)

     Called by c_bands:
     init_us_2    :     48.82s CPU     49.65s WALL (     489 calls)
     init_us_2:cp :     48.81s CPU     49.64s WALL (     489 calls)
     cegterg      : 145260.36s CPU 147042.74s WALL (     239 calls)

     Called by sum_band:
     sum_band:wei :      0.23s CPU      0.24s WALL (     237 calls)
     sum_band:loo :   1784.87s CPU   1799.13s WALL (     237 calls)
     sum_band:buf :      0.00s CPU      0.00s WALL (     237 calls)
     sum_band:ini :     37.44s CPU     37.93s WALL (     237 calls)
     sum_band:cal :    985.75s CPU    993.29s WALL (     250 calls)
     sum_band:bec :     10.64s CPU     10.82s WALL (     250 calls)
     addusdens    :    117.98s CPU    176.91s WALL (     237 calls)
     addusd:skk   :      6.81s CPU     21.26s WALL (     474 calls)
     addusd:dgemm :     66.27s CPU    108.76s WALL (     474 calls)
     addusd:qvan2 :     42.54s CPU     42.97s WALL (     474 calls)

     Called by *egterg:
     cdiaghg      : 123719.44s CPU 124589.78s WALL (    4477 calls)
     cegterg:over :   4620.02s CPU   4744.34s WALL (    4258 calls)
     cegterg:upda :   2787.15s CPU   2830.58s WALL (    4258 calls)
     cegterg:last :   1289.11s CPU   1298.72s WALL (     242 calls)
     h_psi        :   8936.37s CPU   9065.85s WALL (    4498 calls)
     s_psi        :   2523.48s CPU   2567.49s WALL (    4498 calls)
     g_psi        :      9.15s CPU      9.29s WALL (    4258 calls)

     Called by h_psi:
     h_psi:calbec :   2752.81s CPU   2773.61s WALL (    4498 calls)
     vloc_psi     :   3616.65s CPU   3648.35s WALL (    4498 calls)
     add_vuspsi   :   2523.89s CPU   2568.54s WALL (    4498 calls)

     General routines
     calbec       :   3994.10s CPU   4024.55s WALL (    4813 calls)
     fft          :    172.76s CPU    174.45s WALL (   17625 calls)
     ffts         :      4.75s CPU      4.90s WALL (     482 calls)
     fftw         :   4206.92s CPU   4243.43s WALL ( 2070206 calls)
     interpolate  :      4.70s CPU      4.76s WALL (     245 calls)
     davcio       :      0.00s CPU      0.03s WALL (       9 calls)
 
     Parallel routines

     PAW routines
     PAW_pot      :    146.55s CPU    147.72s WALL (     258 calls)
 
     PWSCF        :   1d18h27m CPU   1d19h 3m WALL

 
   This run was terminated on:  16:34:56  26Mar2024            

=------------------------------------------------------------------------------=
   JOB DONE.
=------------------------------------------------------------------------------=
