
     Program PWSCF v.7.1 starts on 24Mar2024 at  8:31:13 

     This program is part of the open-source Quantum ESPRESSO suite
     for quantum simulation of materials; please cite
         "P. Giannozzi et al., J. Phys.:Condens. Matter 21 395502 (2009);
         "P. Giannozzi et al., J. Phys.:Condens. Matter 29 465901 (2017);
         "P. Giannozzi et al., J. Chem. Phys. 152 154105 (2020);
          URL http://www.quantum-espresso.org", 
     in publications or presentations arising from this work. More details at
     http://www.quantum-espresso.org/quote

     Parallel version (MPI & OpenMP), running on      60 processor cores
     Number of MPI processes:                60
     Threads/MPI process:                     1

     MPI processes distributed on     1 nodes
     1843768 MiB available memory on the printing compute node when the environment starts
 
     Reading input from espresso.pwi
Warning: card &CELL ignored
Warning: card    CELL_DYNAMICS    = 'BFGS' ignored
Warning: card / ignored

     Current dimensions of program PWSCF are:
     Max number of different atomic species (ntypx) = 10
     Max number of k-points (npk) =  40000
     Max angular momentum in pseudopotentials (lmaxx) =  4
     file Ga.pbe-dn-kjpaw_psl.1.0.0.UPF: wavefunction(s)  4S renormalized
     file N.pbe-n-kjpaw_psl.1.0.0.UPF: wavefunction(s)  2S renormalized

     **************************************************************************
     Initializing libbeef V0.1.2 with the BEEF-vdW functional.
     Citation: Wellendorff et al., PRB 85, 235149 (2012).
     **************************************************************************


     IMPORTANT: XC functional enforced from input :
     Exchange-correlation= BEEF-VDW
                           (   1   4  43  14   2   0   0)
     Any further DFT definition will be discarded
     Please, verify this is what you really want

 
     K-points division:     npool     =       2
     R & G space division:  proc/nbgrp/npool/nimage =      30
     Subspace diagonalization in iterative solution of the eigenvalue problem:
     a serial algorithm will be used

 
     Parallelization info
     --------------------
     sticks:   dense  smooth     PW     G-vecs:    dense   smooth      PW
     Min         271     216     57                21575    15440    2109
     Max         272     217     58                21584    15447    2114
     Sum        8137    6505   1735               647327   463355   63361
 
     Using Slab Decomposition
 


     bravais-lattice index     =            4
     lattice parameter (alat)  =      18.3939  a.u.
     unit-cell volume          =    5856.2271 (a.u.)^3
     number of atoms/cell      =           72
     number of atomic types    =            2
     number of electrons       =       640.00
     number of Kohn-Sham states=          384
     kinetic-energy cutoff     =      70.0000  Ry
     charge density cutoff     =     350.0000  Ry
     scf convergence threshold =      1.0E-07
     mixing beta               =       0.7000
     number of iterations used =            8  plain     mixing
     Exchange-correlation= BEEF-VDW
                           (   1   4  43  14   2   0   0)

     celldm(1)=  18.393924  celldm(2)=   0.000000  celldm(3)=   1.086586
     celldm(4)=   0.000000  celldm(5)=   0.000000  celldm(6)=   0.000000

     crystal axes: (cart. coord. in units of alat)
               a(1) = (   1.000000   0.000000   0.000000 )  
               a(2) = (  -0.500000   0.866025   0.000000 )  
               a(3) = (   0.000000   0.000000   1.086586 )  

     reciprocal axes: (cart. coord. in units 2 pi/alat)
               b(1) = (  1.000000  0.577350 -0.000000 )  
               b(2) = (  0.000000  1.154701  0.000000 )  
               b(3) = (  0.000000 -0.000000  0.920314 )  


     PseudoPot. # 1 for Ga read from file:
     //group///packages/espresso/pseudo/psl_1.0.0/pslibrary.1.0.0/pbe/PSEUDOPOTENTIALS/Ga.pbe-dn-kjpaw_psl.1.0.0.UPF
     MD5 check sum: cd2a01e492f15b435d17032472d8505c
     Pseudo is Projector augmented-wave + core cor, Zval = 13.0
     Generated using 'atomic' code by A. Dal Corso  v.7.1
     Shape of augmentation charge: PSQ
     Using radial grid of 1205 points,  6 beta functions with: 
                l(1) =   0
                l(2) =   0
                l(3) =   1
                l(4) =   1
                l(5) =   2
                l(6) =   2
     Q(r) pseudized with 0 coefficients 


     PseudoPot. # 2 for N  read from file:
     //group///packages/espresso/pseudo/psl_1.0.0/pslibrary.1.0.0/pbe/PSEUDOPOTENTIALS/N.pbe-n-kjpaw_psl.1.0.0.UPF
     MD5 check sum: f77f775694dac7e2c3fe1c82443d1a16
     Pseudo is Projector augmented-wave + core cor, Zval =  5.0
     Generated using 'atomic' code by A. Dal Corso  v.7.1
     Shape of augmentation charge: PSQ
     Using radial grid of 1085 points,  4 beta functions with: 
                l(1) =   0
                l(2) =   0
                l(3) =   1
                l(4) =   1
     Q(r) pseudized with 0 coefficients 


     atomic species   valence    mass     pseudopotential
        Ga            13.00    69.72300     Ga( 1.00)
        N              5.00    14.00700     N ( 1.00)

      6 Sym. Ops. (no inversion) found ( 4 have fractional translation)


                                    s                        frac. trans.

      isym =  1     identity                                     

 cryst.   s( 1) = (     1          0          0      )
                  (     0          1          0      )
                  (     0          0          1      )

 cart.    s( 1) = (  1.0000000  0.0000000  0.0000000 )
                  (  0.0000000  1.0000000  0.0000000 )
                  (  0.0000000  0.0000000  1.0000000 )


      isym =  2     120 deg rotation - cryst. axis [0,0,1]       

 cryst.   s( 2) = (     0          1          0      )    f =( -0.3333334 )
                  (    -1         -1          0      )       (  0.0000003 )
                  (     0          0          1      )       (  0.0000000 )

 cart.    s( 2) = ( -0.5000000 -0.8660254  0.0000000 )    f =( -0.3333335 )
                  (  0.8660254 -0.5000000  0.0000000 )       (  0.0000002 )
                  (  0.0000000  0.0000000  1.0000000 )       (  0.0000000 )


      isym =  3     120 deg rotation - cryst. axis [0,0,-1]      

 cryst.   s( 3) = (    -1         -1          0      )    f =( -0.3333336 )
                  (     1          0          0      )       ( -0.3333334 )
                  (     0          0          1      )       (  0.0000000 )

 cart.    s( 3) = ( -0.5000000  0.8660254  0.0000000 )    f =( -0.1666669 )
                  ( -0.8660254 -0.5000000  0.0000000 )       ( -0.2886752 )
                  (  0.0000000  0.0000000  1.0000000 )       (  0.0000000 )


      isym =  4     inv. 180 deg rotation - cart. axis [1,0,0]   

 cryst.   s( 4) = (    -1          0          0      )    f =( -0.3333336 )
                  (     1          1          0      )       (  0.0000000 )
                  (     0          0          1      )       (  0.0000000 )

 cart.    s( 4) = ( -1.0000000  0.0000000  0.0000000 )    f =( -0.3333336 )
                  (  0.0000000  1.0000000  0.0000000 )       (  0.0000000 )
                  (  0.0000000  0.0000000  1.0000000 )       (  0.0000000 )


      isym =  5     inv. 180 deg rotation - cryst. axis [0,1,0]  

 cryst.   s( 5) = (     1          1          0      )
                  (     0         -1          0      )
                  (     0          0          1      )

 cart.    s( 5) = (  0.5000000  0.8660254  0.0000000 )
                  (  0.8660254 -0.5000000  0.0000000 )
                  (  0.0000000  0.0000000  1.0000000 )


      isym =  6     inv. 180 deg rotation - cryst. axis [1,1,0]  

 cryst.   s( 6) = (     0         -1          0      )    f =( -0.3333334 )
                  (    -1          0          0      )       ( -0.3333334 )
                  (     0          0          1      )       (  0.0000000 )

 cart.    s( 6) = (  0.5000000 -0.8660254  0.0000000 )    f =( -0.1666667 )
                  ( -0.8660254 -0.5000000  0.0000000 )       ( -0.2886752 )
                  (  0.0000000  0.0000000  1.0000000 )       (  0.0000000 )


     point group C_3v (3m)  
     there are  3 classes
     the character table:

       E     2C3   3s_v 
A_1    1.00  1.00  1.00
A_2    1.00  1.00 -1.00
E      2.00 -1.00  0.00

     the symmetry operations in each class and the name of the first element:

     E        1
          identity                                               
     2C3      2    3
          120 deg rotation - cryst. axis [0,0,1]                 
     3s_v     4    5    6
          inv. 180 deg rotation - cart. axis [1,0,0]             

   Cartesian axes

     site n.     atom                  positions (alat units)
         1           Ga  tau(   1) = (   0.1666668   0.0962250   0.8144844  )
         2           Ga  tau(   2) = (   0.0000001   0.3849001   0.2711914  )
         3           Ga  tau(   3) = (   0.0000001   0.3849001   0.8144844  )
         4           Ga  tau(   4) = (  -0.1666665   0.6735752   0.2711914  )
         5           Ga  tau(   5) = (  -0.1666665   0.6735752   0.8144844  )
         6           Ga  tau(   6) = (   0.5000001   0.0962250   0.2711914  )
         7           Ga  tau(   7) = (   0.5000001   0.0962250   0.8144844  )
         8           Ga  tau(   8) = (   0.3333335   0.3849001   0.2711914  )
         9           Ga  tau(   9) = (   0.3333335   0.3849001   0.8144844  )
        10           Ga  tau(  10) = (   0.1666668   0.6735752   0.2711914  )
        11           Ga  tau(  11) = (   0.1666668   0.6735752   0.8144844  )
        12           Ga  tau(  12) = (   0.8333335   0.0962250   0.2711914  )
        13           Ga  tau(  13) = (   0.8333335   0.0962250   0.8144844  )
        14           Ga  tau(  14) = (   0.6666668   0.3849001   0.2711914  )
        15           Ga  tau(  15) = (   0.6666668   0.3849001   0.8144844  )
        16           Ga  tau(  16) = (   0.5000001   0.6735752   0.2711914  )
        17           Ga  tau(  17) = (   0.5000001   0.6735752   0.8144844  )
        18           Ga  tau(  18) = (  -0.0000002   0.1924502   0.5428379  )
        19           Ga  tau(  19) = (  -0.0000002   0.1924502   1.0861309  )
        20           Ga  tau(  20) = (  -0.1666669   0.4811254   0.5428379  )
        21           Ga  tau(  21) = (  -0.1666669   0.4811254   1.0861309  )
        22           Ga  tau(  22) = (  -0.3333335   0.7698005   0.5428379  )
        23           Ga  tau(  23) = (  -0.3333335   0.7698005   1.0861309  )
        24           Ga  tau(  24) = (   0.3333331   0.1924502   0.5428379  )
        25           Ga  tau(  25) = (   0.3333331   0.1924502   1.0861309  )
        26           Ga  tau(  26) = (   0.1666665   0.4811254   0.5428379  )
        27           Ga  tau(  27) = (   0.1666665   0.4811254   1.0861309  )
        28           Ga  tau(  28) = (  -0.0000002   0.7698005   0.5428379  )
        29           Ga  tau(  29) = (  -0.0000002   0.7698005   1.0861309  )
        30           Ga  tau(  30) = (   0.6666665   0.1924502   0.5428379  )
        31           Ga  tau(  31) = (   0.6666665   0.1924502   1.0861309  )
        32           Ga  tau(  32) = (   0.4999998   0.4811254   0.5428379  )
        33           Ga  tau(  33) = (   0.4999998   0.4811254   1.0861309  )
        34           Ga  tau(  34) = (   0.3333331   0.7698005   0.5428379  )
        35           Ga  tau(  35) = (   0.3333331   0.7698005   1.0861309  )
        36           N   tau(  36) = (   0.1666668   0.0962250   0.4758365  )
        37           N   tau(  37) = (   0.1666668   0.0962250   1.0191295  )
        38           N   tau(  38) = (   0.0000001   0.3849001   0.4758365  )
        39           N   tau(  39) = (   0.0000001   0.3849001   1.0191295  )
        40           N   tau(  40) = (  -0.1666665   0.6735752   0.4758365  )
        41           N   tau(  41) = (  -0.1666665   0.6735752   1.0191295  )
        42           N   tau(  42) = (   0.5000001   0.0962250   0.4758365  )
        43           N   tau(  43) = (   0.5000001   0.0962250   1.0191295  )
        44           N   tau(  44) = (   0.3333335   0.3849001   0.4758365  )
        45           N   tau(  45) = (   0.3333335   0.3849001   1.0191295  )
        46           N   tau(  46) = (   0.1666668   0.6735752   0.4758365  )
        47           N   tau(  47) = (   0.1666668   0.6735752   1.0191295  )
        48           N   tau(  48) = (   0.8333335   0.0962250   0.4758365  )
        49           N   tau(  49) = (   0.8333335   0.0962250   1.0191295  )
        50           N   tau(  50) = (   0.6666668   0.3849001   0.4758365  )
        51           N   tau(  51) = (   0.6666668   0.3849001   1.0191295  )
        52           N   tau(  52) = (   0.5000001   0.6735752   0.4758365  )
        53           N   tau(  53) = (   0.5000001   0.6735752   1.0191295  )
        54           N   tau(  54) = (  -0.0000002   0.1924502   0.2041900  )
        55           N   tau(  55) = (  -0.0000002   0.1924502   0.7474830  )
        56           N   tau(  56) = (  -0.1666669   0.4811254   0.2041900  )
        57           N   tau(  57) = (  -0.1666669   0.4811254   0.7474830  )
        58           N   tau(  58) = (  -0.3333335   0.7698005   0.2041900  )
        59           N   tau(  59) = (  -0.3333335   0.7698005   0.7474830  )
        60           N   tau(  60) = (   0.3333331   0.1924502   0.2041900  )
        61           N   tau(  61) = (   0.3333331   0.1924502   0.7474830  )
        62           N   tau(  62) = (   0.1666665   0.4811254   0.2041900  )
        63           N   tau(  63) = (   0.1666665   0.4811254   0.7474830  )
        64           N   tau(  64) = (  -0.0000002   0.7698005   0.2041900  )
        65           N   tau(  65) = (  -0.0000002   0.7698005   0.7474830  )
        66           N   tau(  66) = (   0.6666665   0.1924502   0.2041900  )
        67           N   tau(  67) = (   0.6666665   0.1924502   0.7474830  )
        68           N   tau(  68) = (   0.4999998   0.4811254   0.2041900  )
        69           N   tau(  69) = (   0.4999998   0.4811254   0.7474830  )
        70           N   tau(  70) = (   0.3333331   0.7698005   0.2041900  )
        71           N   tau(  71) = (   0.3333331   0.7698005   0.7474830  )
        72           N   tau(  72) = (   0.1666668   0.0962250   0.2711914  )

   Crystallographic axes

     site n.     atom                  positions (cryst. coord.)
         1           Ga  tau(   1) = (  0.2222223  0.1111110  0.7495811  )
         2           Ga  tau(   2) = (  0.2222223  0.4444444  0.2495811  )
         3           Ga  tau(   3) = (  0.2222223  0.4444444  0.7495811  )
         4           Ga  tau(   4) = (  0.2222223  0.7777777  0.2495811  )
         5           Ga  tau(   5) = (  0.2222223  0.7777777  0.7495811  )
         6           Ga  tau(   6) = (  0.5555557  0.1111110  0.2495811  )
         7           Ga  tau(   7) = (  0.5555557  0.1111110  0.7495811  )
         8           Ga  tau(   8) = (  0.5555557  0.4444444  0.2495811  )
         9           Ga  tau(   9) = (  0.5555557  0.4444444  0.7495811  )
        10           Ga  tau(  10) = (  0.5555557  0.7777777  0.2495811  )
        11           Ga  tau(  11) = (  0.5555557  0.7777777  0.7495811  )
        12           Ga  tau(  12) = (  0.8888890  0.1111110  0.2495811  )
        13           Ga  tau(  13) = (  0.8888890  0.1111110  0.7495811  )
        14           Ga  tau(  14) = (  0.8888890  0.4444444  0.2495811  )
        15           Ga  tau(  15) = (  0.8888890  0.4444444  0.7495811  )
        16           Ga  tau(  16) = (  0.8888890  0.7777777  0.2495811  )
        17           Ga  tau(  17) = (  0.8888890  0.7777777  0.7495811  )
        18           Ga  tau(  18) = (  0.1111110  0.2222224  0.4995811  )
        19           Ga  tau(  19) = (  0.1111110  0.2222224  0.9995811  )
        20           Ga  tau(  20) = (  0.1111110  0.5555557  0.4995811  )
        21           Ga  tau(  21) = (  0.1111110  0.5555557  0.9995811  )
        22           Ga  tau(  22) = (  0.1111110  0.8888891  0.4995811  )
        23           Ga  tau(  23) = (  0.1111110  0.8888891  0.9995811  )
        24           Ga  tau(  24) = (  0.4444443  0.2222224  0.4995811  )
        25           Ga  tau(  25) = (  0.4444443  0.2222224  0.9995811  )
        26           Ga  tau(  26) = (  0.4444443  0.5555557  0.4995811  )
        27           Ga  tau(  27) = (  0.4444443  0.5555557  0.9995811  )
        28           Ga  tau(  28) = (  0.4444443  0.8888891  0.4995811  )
        29           Ga  tau(  29) = (  0.4444443  0.8888891  0.9995811  )
        30           Ga  tau(  30) = (  0.7777777  0.2222224  0.4995811  )
        31           Ga  tau(  31) = (  0.7777777  0.2222224  0.9995811  )
        32           Ga  tau(  32) = (  0.7777777  0.5555557  0.4995811  )
        33           Ga  tau(  33) = (  0.7777777  0.5555557  0.9995811  )
        34           Ga  tau(  34) = (  0.7777777  0.8888891  0.4995811  )
        35           Ga  tau(  35) = (  0.7777777  0.8888891  0.9995811  )
        36           N   tau(  36) = (  0.2222223  0.1111110  0.4379189  )
        37           N   tau(  37) = (  0.2222223  0.1111110  0.9379189  )
        38           N   tau(  38) = (  0.2222223  0.4444444  0.4379189  )
        39           N   tau(  39) = (  0.2222223  0.4444444  0.9379189  )
        40           N   tau(  40) = (  0.2222223  0.7777777  0.4379189  )
        41           N   tau(  41) = (  0.2222223  0.7777777  0.9379189  )
        42           N   tau(  42) = (  0.5555557  0.1111110  0.4379189  )
        43           N   tau(  43) = (  0.5555557  0.1111110  0.9379189  )
        44           N   tau(  44) = (  0.5555557  0.4444444  0.4379189  )
        45           N   tau(  45) = (  0.5555557  0.4444444  0.9379189  )
        46           N   tau(  46) = (  0.5555557  0.7777777  0.4379189  )
        47           N   tau(  47) = (  0.5555557  0.7777777  0.9379189  )
        48           N   tau(  48) = (  0.8888890  0.1111110  0.4379189  )
        49           N   tau(  49) = (  0.8888890  0.1111110  0.9379189  )
        50           N   tau(  50) = (  0.8888890  0.4444444  0.4379189  )
        51           N   tau(  51) = (  0.8888890  0.4444444  0.9379189  )
        52           N   tau(  52) = (  0.8888890  0.7777777  0.4379189  )
        53           N   tau(  53) = (  0.8888890  0.7777777  0.9379189  )
        54           N   tau(  54) = (  0.1111110  0.2222224  0.1879189  )
        55           N   tau(  55) = (  0.1111110  0.2222224  0.6879189  )
        56           N   tau(  56) = (  0.1111110  0.5555557  0.1879189  )
        57           N   tau(  57) = (  0.1111110  0.5555557  0.6879189  )
        58           N   tau(  58) = (  0.1111110  0.8888891  0.1879189  )
        59           N   tau(  59) = (  0.1111110  0.8888891  0.6879189  )
        60           N   tau(  60) = (  0.4444443  0.2222224  0.1879189  )
        61           N   tau(  61) = (  0.4444443  0.2222224  0.6879189  )
        62           N   tau(  62) = (  0.4444443  0.5555557  0.1879189  )
        63           N   tau(  63) = (  0.4444443  0.5555557  0.6879189  )
        64           N   tau(  64) = (  0.4444443  0.8888891  0.1879189  )
        65           N   tau(  65) = (  0.4444443  0.8888891  0.6879189  )
        66           N   tau(  66) = (  0.7777777  0.2222224  0.1879189  )
        67           N   tau(  67) = (  0.7777777  0.2222224  0.6879189  )
        68           N   tau(  68) = (  0.7777777  0.5555557  0.1879189  )
        69           N   tau(  69) = (  0.7777777  0.5555557  0.6879189  )
        70           N   tau(  70) = (  0.7777777  0.8888891  0.1879189  )
        71           N   tau(  71) = (  0.7777777  0.8888891  0.6879189  )
        72           N   tau(  72) = (  0.2222223  0.1111110  0.2495811  )

     number of k points=     4  Gaussian smearing, width (Ry)=  0.0100
                       cart. coord. in units 2pi/alat
        k(    1) = (   0.0000000   0.0000000   0.0000000), wk =   0.2500000
        k(    2) = (   0.0000000   0.0000000  -0.4601568), wk =   0.2500000
        k(    3) = (   0.0000000  -0.5773503   0.0000000), wk =   0.7500000
        k(    4) = (   0.0000000  -0.5773503  -0.4601568), wk =   0.7500000

                       cryst. coord.
        k(    1) = (   0.0000000   0.0000000   0.0000000), wk =   0.2500000
        k(    2) = (   0.0000000   0.0000000  -0.5000000), wk =   0.2500000
        k(    3) = (   0.0000000  -0.5000000   0.0000000), wk =   0.7500000
        k(    4) = (   0.0000000  -0.5000000  -0.5000000), wk =   0.7500000

     Dense  grid:   647327 G-vectors     FFT dimensions: ( 120, 120, 120)

     Smooth grid:   463355 G-vectors     FFT dimensions: ( 108, 108, 108)

     Dynamical RAM for                 wfc:      11.31 MB

     Dynamical RAM for     wfc (w. buffer):      33.93 MB

     Dynamical RAM for           str. fact:       0.66 MB

     Dynamical RAM for           local pot:       0.00 MB

     Dynamical RAM for          nlocal pot:      27.27 MB

     Dynamical RAM for                qrad:       3.00 MB

     Dynamical RAM for          rho,v,vnew:       2.31 MB

     Dynamical RAM for               rhoin:       0.77 MB

     Dynamical RAM for            rho*nmix:       5.27 MB

     Dynamical RAM for           G-vectors:       1.35 MB

     Dynamical RAM for          h,s,v(r/c):     108.00 MB

     Dynamical RAM for          <psi|beta>:       5.43 MB

     Dynamical RAM for                 psi:      45.23 MB

     Dynamical RAM for                hpsi:      45.23 MB

     Dynamical RAM for                spsi:      45.23 MB

     Dynamical RAM for      wfcinit/wfcrot:      26.00 MB

     Dynamical RAM for           addusdens:      36.87 MB

     Dynamical RAM for          addusforce:      48.87 MB

     Dynamical RAM for         addusstress:      33.17 MB

     Estimated static dynamical RAM per process >      72.47 MB

     Estimated max dynamical RAM per process >     326.87 MB

     Estimated total dynamical RAM >      19.00 GB

     Atomic positions and unit cell read from directory:
     ./GaN.save/
     Atomic positions from file used, from input discarded
 

     Check: negative core charge=   -0.000003

     The initial density is read from file :
     ./GaN.save/charge-density



     %%%%%%%%%%%%%%%%%%%%%%%%%%%%%%%%%%%%%%%%%%%%%%%%%%%%%%%%%%%%%%%%%%%%%%%%
     %                                                                      %
     % You are using vdW-DF, which was implemented by the Thonhauser group. %
     % Please cite the following two papers that made this development      %
     % possible and the two reviews that describe the various versions:     %
     %                                                                      %
     %   T. Thonhauser et al., PRL 115, 136402 (2015).                      %
     %   T. Thonhauser et al., PRB 76, 125112 (2007).                       %
     %   K. Berland et al., Rep. Prog. Phys. 78, 066501 (2015).             %
     %   D.C. Langreth et al., J. Phys.: Condens. Matter 21, 084203 (2009). %
     %                                                                      %
     % If you are calculating stress with vdW-DF, please also cite:         %
     %                                                                      %
     %   R. Sabatini et al., J. Phys.: Condens. Matter 24, 424209 (2012).   %
     %                                                                      %
     %%%%%%%%%%%%%%%%%%%%%%%%%%%%%%%%%%%%%%%%%%%%%%%%%%%%%%%%%%%%%%%%%%%%%%%%

     %%%%%%%%%%%%%%%%%%%%%%%%%%%%%%%%%%%%%%%%%%%%%%%%%%%%%%%%%%%%%%%%%%%%%%%%
     %                                                                      %
     %  vdW-DF NEWS:                                                        %
     %                                                                      %
     %  * vdW-DF3 is now available. DOI: 10.1021/acs.jctc.0c00471           %
     %    use with input_dft = 'vdW-DF3-opt1' or 'vdW-DF3-opt2'             %
     %                                                                      %
     %  * Unscreened and range-separated vdW-DF hybrid functionals          %
     %    DOI: 10.1063/1.4986522 and 10.1088/1361-648X/ac2ad2               %
     %    use with input_dft = 'vdW-DF-cx0' (etc) and 'vdW-DF-ahcx'         %
     %                                                                      %
     %%%%%%%%%%%%%%%%%%%%%%%%%%%%%%%%%%%%%%%%%%%%%%%%%%%%%%%%%%%%%%%%%%%%%%%%


     Carrying out vdW-DF run using the following parameters:
     Nqs    =  20  Npoints =  1024  r_max =  100.000
     q_mesh =  0.00001000  0.04494208  0.09755937  0.15916263
               0.23128650  0.31572767  0.41458969  0.53033537
               0.66584808  0.82450364  1.01025438  1.22772762
               1.48234092  1.78043706  2.12944203  2.53805004
               3.01644009  3.57652955  4.23227104  5.00000000


     -----------------------------------------------
     Non-local corr. energy    =      19.20826567 Ry
     -----------------------------------------------

     Starting wfcs from file
     Checking if some PAW data can be deallocated... 
       PAW data deallocated on   37 nodes for type:  1
       PAW data deallocated on   23 nodes for type:  2

     total cpu time spent up to now is        6.2 secs

     Self-consistent Calculation

     iteration #  1     ecut=    70.00 Ry     beta= 0.70
     Davidson diagonalization with overlap

---- Real-time Memory Report at c_bands before calling an iterative solver
           277 MiB given to the printing process from OS
             0 MiB allocation reported by mallinfo(arena+hblkhd)
       1837554 MiB available memory on the node where the printing process lives
------------------
     ethr =  1.00E-05,  avg # of iterations =  1.0

     Threshold (ethr) on eigenvalues was too large:
     Diagonalizing with lowered threshold

     Davidson diagonalization with overlap

---- Real-time Memory Report at c_bands before calling an iterative solver
           445 MiB given to the printing process from OS
             0 MiB allocation reported by mallinfo(arena+hblkhd)
       1833651 MiB available memory on the node where the printing process lives
------------------
     ethr =  2.32E-12,  avg # of iterations =  2.0


     -----------------------------------------------
     Non-local corr. energy    =      19.20826422 Ry
     -----------------------------------------------


     total cpu time spent up to now is       31.9 secs

     End of self-consistent calculation

          k = 0.0000 0.0000 0.0000 ( 57971 PWs)   bands (ev):

    -7.3801  -6.9129  -6.6792  -6.6480  -6.6211  -6.6210  -6.6027  -6.5988
    -6.5988  -6.5829  -6.5468  -6.5339  -6.5339  -6.5223  -6.5197  -6.5162
    -6.5162  -6.5133  -6.5133  -6.5088  -6.5010  -6.4941  -6.4881  -6.4881
    -6.4840  -6.4840  -6.4759  -6.4759  -6.4703  -6.4631  -6.4549  -6.4368
    -6.4368  -6.3179  -6.2845  -6.2845  -5.4414  -5.4352  -5.4352  -5.4274
    -5.4245  -5.4245  -5.4140  -5.4139  -5.4080  -5.4080  -5.3939  -5.3939
    -5.3906  -5.3906  -5.3867  -5.3841  -5.3841  -5.3835  -5.3823  -5.3790
    -5.3790  -5.3784  -5.3784  -5.3773  -5.3767  -5.3745  -5.3745  -5.3718
    -5.3718  -5.3714  -5.3610  -5.3610  -5.3548  -5.3548  -5.3524  -5.3378
    -5.3304  -5.3303  -5.3273  -5.3273  -5.3245  -5.3241  -5.3241  -5.3233
    -5.3227  -5.3205  -5.3169  -5.3169  -5.3156  -5.3146  -5.3146  -5.3132
    -5.3131  -5.3131  -5.3070  -5.3070  -5.3048  -5.2997  -5.2997  -5.2850
    -5.2850  -5.2764  -5.2730  -5.2700  -5.2700  -5.2680  -5.2673  -5.2673
    -5.2657  -5.2653  -5.2653  -5.2644  -5.2622  -5.2613  -5.2613  -5.2562
    -5.2562  -5.2554  -5.2500  -5.2500  -5.2488  -5.2455  -5.2455  -5.2404
    -5.2404  -5.2404  -5.2383  -5.2380  -5.2375  -5.2375  -5.2371  -5.2371
    -5.2371  -5.2330  -5.2330  -5.2309  -5.2309  -5.2278  -5.2278  -5.2260
    -5.2209  -5.2209  -5.2169  -5.2169  -5.2113  -5.2076  -5.2076  -5.2046
    -5.2034  -5.2034  -5.2023  -5.2023  -5.2021  -5.2017  -5.1978  -5.1978
    -5.1944  -5.1944  -5.1900  -5.1874  -5.1874  -5.1866  -5.1846  -5.1821
    -5.1815  -5.1815  -5.1798  -5.1798  -5.1763  -5.1763  -5.1751  -5.1729
    -5.1729  -5.1634  -5.1634  -5.1536  -5.1507  -5.1507  -5.1471  -5.1439
    -5.1439  -4.9650  -4.8628  -4.6201  -4.6201  -4.5803  -4.5803  -4.5799
    -4.3439  -4.0958  -4.0958  -4.0853  -4.0270  -4.0270  -4.0209  -4.0198
    -4.0198  -4.0189  -4.0189  -4.0171  -3.7095  -3.3663  -3.3167  -3.3167
    -3.2361  -3.2285  -3.2242  -3.2242  -3.2146  -3.2142  -3.1383  -3.1383
    -3.1179  -3.1179  -3.1139  -2.2661   1.9496   2.6562   2.6562   2.6880
     2.7159   2.8504   2.8504   2.8512   2.8620   2.8621   3.0082   3.2191
     3.2191   3.2775   3.2894   3.2895   3.2960   3.3003   3.3016   3.3017
     3.3125   3.3125   3.3476   3.3779   3.3779   3.4043   3.6837   3.6837
     3.8874   3.9744   3.9745   4.0099   4.0418   4.0419   4.5726   4.5900
     4.5900   4.6695   4.7263   4.7263   4.7797   4.7798   4.7985   4.7985
     4.8177   4.8456   5.5046   5.6829   5.6829   5.8363   5.9331   5.9332
     6.1566   6.1716   6.1716   6.3766   6.3796   6.3796   6.3882   6.5269
     6.5791   6.5791   6.6344   6.6344   6.6408   6.6409   6.6425   6.6491
     6.6491   6.6508   6.8291   6.8291   7.0621   7.0621   7.0643   7.0678
     7.0768   7.0769   7.0770   7.0862   7.0865   7.0865   7.1051   7.1972
     7.1972   7.2026   7.3301   7.4069   7.4069   7.4269   7.4357   7.4357
     7.5924   7.5925   7.7870   7.7871   7.8928   7.8965   7.8965   7.9035
     8.0734   8.0734   8.1027   8.1029   8.5407   8.5964   8.5965   8.7318
    10.3094  10.9779  11.1487  11.1488  12.4902  12.5166  12.7496  13.2002
    13.2002  13.2164  13.2265  13.2265  13.2932  13.3552  13.3553  13.3679
    13.3812  13.3812  13.3874  13.3875  13.3991  13.6395  13.6891  13.6892
    13.7764  14.1161  14.1162  14.1410  14.1411  14.1716  14.3963  14.3963
    14.6903  14.7352  14.8126  14.8126  15.0661  15.3491  15.3491  15.3664
    15.4838  15.5103  15.5103  15.7967  15.8398  15.8398  15.9503  16.0242
    16.0242  16.0523  16.0524  16.0629  16.0629  16.0717  16.0786  16.0786
    16.0918  16.0918  16.1000  16.2462  16.2462  16.3445  16.6307  16.7308

     occupation numbers 
     1.0000   1.0000   1.0000   1.0000   1.0000   1.0000   1.0000   1.0000
     1.0000   1.0000   1.0000   1.0000   1.0000   1.0000   1.0000   1.0000
     1.0000   1.0000   1.0000   1.0000   1.0000   1.0000   1.0000   1.0000
     1.0000   1.0000   1.0000   1.0000   1.0000   1.0000   1.0000   1.0000
     1.0000   1.0000   1.0000   1.0000   1.0000   1.0000   1.0000   1.0000
     1.0000   1.0000   1.0000   1.0000   1.0000   1.0000   1.0000   1.0000
     1.0000   1.0000   1.0000   1.0000   1.0000   1.0000   1.0000   1.0000
     1.0000   1.0000   1.0000   1.0000   1.0000   1.0000   1.0000   1.0000
     1.0000   1.0000   1.0000   1.0000   1.0000   1.0000   1.0000   1.0000
     1.0000   1.0000   1.0000   1.0000   1.0000   1.0000   1.0000   1.0000
     1.0000   1.0000   1.0000   1.0000   1.0000   1.0000   1.0000   1.0000
     1.0000   1.0000   1.0000   1.0000   1.0000   1.0000   1.0000   1.0000
     1.0000   1.0000   1.0000   1.0000   1.0000   1.0000   1.0000   1.0000
     1.0000   1.0000   1.0000   1.0000   1.0000   1.0000   1.0000   1.0000
     1.0000   1.0000   1.0000   1.0000   1.0000   1.0000   1.0000   1.0000
     1.0000   1.0000   1.0000   1.0000   1.0000   1.0000   1.0000   1.0000
     1.0000   1.0000   1.0000   1.0000   1.0000   1.0000   1.0000   1.0000
     1.0000   1.0000   1.0000   1.0000   1.0000   1.0000   1.0000   1.0000
     1.0000   1.0000   1.0000   1.0000   1.0000   1.0000   1.0000   1.0000
     1.0000   1.0000   1.0000   1.0000   1.0000   1.0000   1.0000   1.0000
     1.0000   1.0000   1.0000   1.0000   1.0000   1.0000   1.0000   1.0000
     1.0000   1.0000   1.0000   1.0000   1.0000   1.0000   1.0000   1.0000
     1.0000   1.0000   1.0000   1.0000   1.0000   1.0000   1.0000   1.0000
     1.0000   1.0000   1.0000   1.0000   1.0000   1.0000   1.0000   1.0000
     1.0000   1.0000   1.0000   1.0000   1.0000   1.0000   1.0000   1.0000
     1.0000   1.0000   1.0000   1.0000   1.0000   1.0000   1.0000   1.0000
     1.0000   1.0000   1.0000   1.0000   1.0000   1.0000   1.0000   1.0000
     1.0000   1.0000   1.0000   1.0000   1.0000   1.0000   1.0000   1.0000
     1.0000   1.0000   1.0000   1.0000   1.0000   1.0000   1.0000   1.0000
     1.0000   1.0000   1.0000   1.0000   1.0000   1.0000   1.0000   1.0000
     1.0000   1.0000   1.0000   1.0000   1.0000   1.0000   1.0000   1.0000
     1.0000   1.0000   1.0000   1.0000   1.0000   1.0000   1.0000   1.0000
     1.0000   1.0000   1.0000   1.0000   1.0000   1.0000   1.0000   1.0000
     1.0000   1.0000   1.0000   1.0000   1.0000   1.0000   1.0000   1.0000
     1.0000   1.0000   1.0000   1.0000   1.0000   1.0000   1.0000   1.0000
     1.0000   1.0000   1.0000   1.0000   1.0000   1.0000   1.0000   1.0000
     1.0000   1.0000   1.0000   1.0000   1.0000   1.0000   1.0000   1.0000
     1.0000   1.0000   1.0000   1.0000   1.0000   1.0000   1.0000   1.0000
     1.0000   1.0000   1.0000   1.0000   1.0000   1.0000   1.0000   1.0000
     1.0000   1.0000   1.0000   1.0000   1.0000   1.0000   1.0000   1.0000
     0.0000   0.0000   0.0000   0.0000   0.0000   0.0000   0.0000   0.0000
     0.0000   0.0000   0.0000   0.0000   0.0000   0.0000   0.0000   0.0000
     0.0000   0.0000   0.0000   0.0000   0.0000   0.0000   0.0000   0.0000
     0.0000   0.0000   0.0000   0.0000   0.0000   0.0000   0.0000   0.0000
     0.0000   0.0000   0.0000   0.0000   0.0000   0.0000   0.0000   0.0000
     0.0000   0.0000   0.0000   0.0000   0.0000   0.0000   0.0000   0.0000
     0.0000   0.0000   0.0000   0.0000   0.0000   0.0000   0.0000   0.0000
     0.0000   0.0000   0.0000   0.0000   0.0000   0.0000   0.0000   0.0000

          k = 0.0000 0.0000-0.4602 ( 58014 PWs)   bands (ev):

    -7.3650  -6.8857  -6.7796  -6.6038  -6.5931  -6.5931  -6.5854  -6.5806
    -6.5805  -6.5692  -6.5621  -6.5621  -6.5561  -6.5400  -6.5306  -6.5306
    -6.5179  -6.5168  -6.5168  -6.5151  -6.5001  -6.4909  -6.4857  -6.4857
    -6.4849  -6.4849  -6.4739  -6.4739  -6.4710  -6.4646  -6.4596  -6.4400
    -6.4400  -6.3174  -6.2869  -6.2869  -5.4448  -5.4327  -5.4327  -5.4209
    -5.4209  -5.4026  -5.4026  -5.3996  -5.3996  -5.3988  -5.3987  -5.3954
    -5.3954  -5.3946  -5.3946  -5.3930  -5.3879  -5.3879  -5.3877  -5.3855
    -5.3855  -5.3852  -5.3753  -5.3753  -5.3723  -5.3698  -5.3643  -5.3615
    -5.3615  -5.3575  -5.3575  -5.3573  -5.3537  -5.3518  -5.3517  -5.3517
    -5.3420  -5.3420  -5.3418  -5.3330  -5.3316  -5.3316  -5.3303  -5.3301
    -5.3301  -5.3234  -5.3234  -5.3227  -5.3196  -5.3194  -5.3194  -5.3089
    -5.3089  -5.3067  -5.3049  -5.3020  -5.3020  -5.2912  -5.2877  -5.2856
    -5.2821  -5.2821  -5.2781  -5.2781  -5.2778  -5.2733  -5.2732  -5.2732
    -5.2706  -5.2706  -5.2695  -5.2664  -5.2664  -5.2633  -5.2633  -5.2627
    -5.2627  -5.2625  -5.2601  -5.2594  -5.2594  -5.2543  -5.2543  -5.2479
    -5.2345  -5.2345  -5.2316  -5.2316  -5.2273  -5.2257  -5.2257  -5.2247
    -5.2247  -5.2236  -5.2230  -5.2230  -5.2207  -5.2200  -5.2194  -5.2194
    -5.2185  -5.2181  -5.2181  -5.2153  -5.2153  -5.2142  -5.2133  -5.2133
    -5.2097  -5.2068  -5.2060  -5.2060  -5.2047  -5.2047  -5.2023  -5.1991
    -5.1991  -5.1976  -5.1963  -5.1963  -5.1933  -5.1933  -5.1929  -5.1894
    -5.1894  -5.1808  -5.1808  -5.1688  -5.1688  -5.1679  -5.1654  -5.1654
    -5.1634  -5.1623  -5.1599  -5.1599  -5.1560  -5.1560  -5.1526  -5.1508
    -5.1508  -5.0907  -4.5224  -4.5224  -4.4722  -4.4494  -4.4491  -4.4490
    -4.4462  -4.4462  -4.4380  -4.4378  -4.4378  -4.2438  -4.1812  -3.7157
    -3.5354  -3.5243  -3.5242  -3.4375  -3.4375  -3.4314  -3.4314  -3.4309
    -3.4246  -3.4246  -3.4216  -3.3112  -3.2781  -3.2781  -3.2359  -3.2241
    -3.2241  -3.2173  -3.2146  -2.2218   2.8064   2.8175   2.8175   2.8405
     2.8483   2.8616   2.8617   2.8623   2.8714   2.8714   2.8770   2.8871
     2.8871   2.9152   2.9467   2.9467   2.9627   2.9741   2.9782   2.9782
     3.0070   3.7018   3.8257   3.8257   3.9773   4.0004   4.0004   4.0071
     4.0071   4.0162   4.0249   4.0250   4.0258   4.0259   4.0357   4.0389
     4.0389   4.6879   4.9916   4.9917   5.0174   5.1398   5.1472   5.1472
     5.1549   5.1549   5.1650   5.1702   5.1702   5.4780   5.4780   5.6188
     5.6188   6.1061   6.1061   6.1240   6.4766   6.5289   6.5463   6.5464
     6.5531   6.5629   6.5629   6.5637   6.5650   6.5650   6.5699   6.5707
     6.5708   6.5911   6.5912   6.5972   6.6008   6.9352   7.0098   7.2136
     7.2766   7.2766   7.4879   7.4941   7.4941   7.4949   7.4949   7.5012
     7.5095   7.5095   7.5129   7.5391   7.5391   7.6252   7.6271   7.6271
     7.6323   7.6341   7.6342   7.6511   7.6511   7.6530   7.6658   7.7366
     7.7367   7.7721   7.7722   8.4222   8.4223   8.4606   8.4606   8.8342
    10.8797  11.1050  11.1050  11.4140  11.5536  12.6239  12.7593  12.8567
    12.8582  12.8582  12.8673  12.8673  12.8891  12.8891  12.9144  13.0795
    13.2111  13.2112  13.4258  14.1625  14.1626  14.1761  14.1833  14.1833
    14.1917  14.1918  14.2027  14.2315  14.4252  14.4253  14.7486  14.7486
    14.8917  14.9675  14.9675  15.3126  15.3531  15.3531  15.3730  15.3851
    15.4076  15.4076  15.5135  15.5588  15.5588  15.5808  15.5808  15.5866
    15.6099  15.6183  15.6183  15.7273  15.7967  15.7967  16.1986  16.4292
    16.4292  16.4720  16.4720  16.4878  16.4963  16.4967  16.4967  16.6100

     occupation numbers 
     1.0000   1.0000   1.0000   1.0000   1.0000   1.0000   1.0000   1.0000
     1.0000   1.0000   1.0000   1.0000   1.0000   1.0000   1.0000   1.0000
     1.0000   1.0000   1.0000   1.0000   1.0000   1.0000   1.0000   1.0000
     1.0000   1.0000   1.0000   1.0000   1.0000   1.0000   1.0000   1.0000
     1.0000   1.0000   1.0000   1.0000   1.0000   1.0000   1.0000   1.0000
     1.0000   1.0000   1.0000   1.0000   1.0000   1.0000   1.0000   1.0000
     1.0000   1.0000   1.0000   1.0000   1.0000   1.0000   1.0000   1.0000
     1.0000   1.0000   1.0000   1.0000   1.0000   1.0000   1.0000   1.0000
     1.0000   1.0000   1.0000   1.0000   1.0000   1.0000   1.0000   1.0000
     1.0000   1.0000   1.0000   1.0000   1.0000   1.0000   1.0000   1.0000
     1.0000   1.0000   1.0000   1.0000   1.0000   1.0000   1.0000   1.0000
     1.0000   1.0000   1.0000   1.0000   1.0000   1.0000   1.0000   1.0000
     1.0000   1.0000   1.0000   1.0000   1.0000   1.0000   1.0000   1.0000
     1.0000   1.0000   1.0000   1.0000   1.0000   1.0000   1.0000   1.0000
     1.0000   1.0000   1.0000   1.0000   1.0000   1.0000   1.0000   1.0000
     1.0000   1.0000   1.0000   1.0000   1.0000   1.0000   1.0000   1.0000
     1.0000   1.0000   1.0000   1.0000   1.0000   1.0000   1.0000   1.0000
     1.0000   1.0000   1.0000   1.0000   1.0000   1.0000   1.0000   1.0000
     1.0000   1.0000   1.0000   1.0000   1.0000   1.0000   1.0000   1.0000
     1.0000   1.0000   1.0000   1.0000   1.0000   1.0000   1.0000   1.0000
     1.0000   1.0000   1.0000   1.0000   1.0000   1.0000   1.0000   1.0000
     1.0000   1.0000   1.0000   1.0000   1.0000   1.0000   1.0000   1.0000
     1.0000   1.0000   1.0000   1.0000   1.0000   1.0000   1.0000   1.0000
     1.0000   1.0000   1.0000   1.0000   1.0000   1.0000   1.0000   1.0000
     1.0000   1.0000   1.0000   1.0000   1.0000   1.0000   1.0000   1.0000
     1.0000   1.0000   1.0000   1.0000   1.0000   1.0000   1.0000   1.0000
     1.0000   1.0000   1.0000   1.0000   1.0000   1.0000   1.0000   1.0000
     1.0000   1.0000   1.0000   1.0000   1.0000   1.0000   1.0000   1.0000
     1.0000   1.0000   1.0000   1.0000   1.0000   1.0000   1.0000   1.0000
     1.0000   1.0000   1.0000   1.0000   1.0000   1.0000   1.0000   1.0000
     1.0000   1.0000   1.0000   1.0000   1.0000   1.0000   1.0000   1.0000
     1.0000   1.0000   1.0000   1.0000   1.0000   1.0000   1.0000   1.0000
     1.0000   1.0000   1.0000   1.0000   1.0000   1.0000   1.0000   1.0000
     1.0000   1.0000   1.0000   1.0000   1.0000   1.0000   1.0000   1.0000
     1.0000   1.0000   1.0000   1.0000   1.0000   1.0000   1.0000   1.0000
     1.0000   1.0000   1.0000   1.0000   1.0000   1.0000   1.0000   1.0000
     1.0000   1.0000   1.0000   1.0000   1.0000   1.0000   1.0000   1.0000
     1.0000   1.0000   1.0000   1.0000   1.0000   1.0000   1.0000   1.0000
     1.0000   1.0000   1.0000   1.0000   1.0000   1.0000   1.0000   1.0000
     1.0000   1.0000   1.0000   1.0000   1.0000   1.0000   1.0000   1.0000
     0.0000   0.0000   0.0000   0.0000   0.0000   0.0000   0.0000   0.0000
     0.0000   0.0000   0.0000   0.0000   0.0000   0.0000   0.0000   0.0000
     0.0000   0.0000   0.0000   0.0000   0.0000   0.0000   0.0000   0.0000
     0.0000   0.0000   0.0000   0.0000   0.0000   0.0000   0.0000   0.0000
     0.0000   0.0000   0.0000   0.0000   0.0000   0.0000   0.0000   0.0000
     0.0000   0.0000   0.0000   0.0000   0.0000   0.0000   0.0000   0.0000
     0.0000   0.0000   0.0000   0.0000   0.0000   0.0000   0.0000   0.0000
     0.0000   0.0000   0.0000   0.0000   0.0000   0.0000   0.0000   0.0000

          k = 0.0000-0.5774 0.0000 ( 57942 PWs)   bands (ev):

    -7.3511  -6.8375  -6.7615  -6.6454  -6.6362  -6.6086  -6.5978  -6.5876
    -6.5675  -6.5585  -6.5574  -6.5453  -6.5439  -6.5371  -6.5307  -6.5289
    -6.5232  -6.5223  -6.5103  -6.5006  -6.4993  -6.4944  -6.4913  -6.4868
    -6.4845  -6.4836  -6.4754  -6.4712  -6.4664  -6.4645  -6.4643  -6.4395
    -6.4372  -6.3170  -6.2910  -6.2847  -5.4466  -5.4204  -5.4141  -5.4111
    -5.4094  -5.4086  -5.4052  -5.4048  -5.3973  -5.3950  -5.3946  -5.3937
    -5.3930  -5.3918  -5.3894  -5.3837  -5.3830  -5.3825  -5.3805  -5.3788
    -5.3758  -5.3748  -5.3724  -5.3692  -5.3688  -5.3668  -5.3651  -5.3647
    -5.3640  -5.3627  -5.3609  -5.3603  -5.3580  -5.3556  -5.3539  -5.3533
    -5.3510  -5.3508  -5.3466  -5.3442  -5.3440  -5.3418  -5.3405  -5.3380
    -5.3369  -5.3360  -5.3309  -5.3249  -5.3241  -5.3173  -5.3173  -5.3140
    -5.3139  -5.3124  -5.3105  -5.3102  -5.3067  -5.3031  -5.2975  -5.2975
    -5.2963  -5.2886  -5.2855  -5.2807  -5.2787  -5.2770  -5.2737  -5.2722
    -5.2704  -5.2697  -5.2671  -5.2660  -5.2609  -5.2607  -5.2598  -5.2590
    -5.2566  -5.2563  -5.2550  -5.2536  -5.2510  -5.2484  -5.2481  -5.2460
    -5.2441  -5.2425  -5.2420  -5.2400  -5.2394  -5.2394  -5.2382  -5.2364
    -5.2346  -5.2345  -5.2338  -5.2329  -5.2316  -5.2296  -5.2284  -5.2283
    -5.2259  -5.2217  -5.2207  -5.2194  -5.2158  -5.2143  -5.2115  -5.2091
    -5.2010  -5.2007  -5.1983  -5.1976  -5.1954  -5.1914  -5.1902  -5.1885
    -5.1875  -5.1863  -5.1848  -5.1845  -5.1820  -5.1811  -5.1810  -5.1784
    -5.1763  -5.1753  -5.1731  -5.1715  -5.1707  -5.1703  -5.1690  -5.1661
    -5.1649  -5.1624  -5.1606  -5.1602  -5.1597  -5.1553  -5.1550  -5.1527
    -5.1391  -5.0842  -4.8301  -4.7935  -4.7218  -4.7155  -4.6972  -4.4347
    -4.2659  -4.2465  -4.2233  -4.0651  -3.9439  -3.9386  -3.8956  -3.8117
    -3.6749  -3.6115  -3.5950  -3.5882  -3.5238  -3.5207  -3.5205  -3.5176
    -3.5110  -3.5101  -3.5049  -3.4847  -3.2313  -3.2065  -3.1968  -3.0547
    -3.0514  -3.0465  -3.0255  -2.2955   2.2667   2.2772   2.2905   2.3361
     2.4381   2.6551   2.6778   2.6841   2.6849   2.6891   2.6920   2.7077
     2.7545   2.7945   2.8031   2.8104   2.8169   2.8296   3.3411   3.5255
     3.6289   3.6733   3.6943   3.7776   3.8499   3.8658   3.8747   4.3069
     4.4782   4.5514   4.5641   4.6463   4.6599   4.6654   4.6683   4.6700
     4.7445   4.7833   4.8829   5.0171   5.0232   5.1827   5.1972   5.2362
     5.4523   5.4970   5.7088   5.7390   5.7500   5.7523   5.7548   5.7788
     5.8797   5.9712   5.9845   6.0981   6.2117   6.2231   6.4652   6.4867
     6.5893   6.6180   6.6365   6.6466   6.6824   6.7474   6.7541   6.7603
     6.7725   6.7744   6.7965   6.8312   6.8590   6.8675   6.8694   6.8936
     6.9047   6.9170   6.9238   6.9425   6.9484   7.0096   7.0142   7.0196
     7.0386   7.0393   7.0437   7.0466   7.0515   7.0584   7.0642   7.0715
     7.1210   7.1544   7.5338   7.6096   7.6541   7.6857   7.7210   7.7258
     7.7331   7.7373   7.7725   8.2565   8.2924   8.3317   8.3797   9.1916
    10.9147  11.1498  11.3073  11.7516  11.8849  13.0031  13.0669  13.1702
    13.2529  13.4023  13.4155  13.4680  13.5334  13.7325  13.7715  13.8380
    13.9043  13.9142  13.9149  13.9168  13.9318  13.9931  14.0026  14.0088
    14.0347  14.1378  14.1489  14.2098  14.3481  14.5140  14.5222  14.5342
    14.6440  14.6445  14.6996  14.8989  14.9032  14.9580  15.0603  15.1470
    15.1887  15.1990  15.3268  15.6171  15.9754  15.9887  16.0076  16.0116
    16.0320  16.0764  16.1223  16.1395  16.1637  16.2030  16.2401  16.2617
    16.2802  16.3065  16.3187  16.3505  16.3603  16.3649  16.3776  16.4706

     occupation numbers 
     1.0000   1.0000   1.0000   1.0000   1.0000   1.0000   1.0000   1.0000
     1.0000   1.0000   1.0000   1.0000   1.0000   1.0000   1.0000   1.0000
     1.0000   1.0000   1.0000   1.0000   1.0000   1.0000   1.0000   1.0000
     1.0000   1.0000   1.0000   1.0000   1.0000   1.0000   1.0000   1.0000
     1.0000   1.0000   1.0000   1.0000   1.0000   1.0000   1.0000   1.0000
     1.0000   1.0000   1.0000   1.0000   1.0000   1.0000   1.0000   1.0000
     1.0000   1.0000   1.0000   1.0000   1.0000   1.0000   1.0000   1.0000
     1.0000   1.0000   1.0000   1.0000   1.0000   1.0000   1.0000   1.0000
     1.0000   1.0000   1.0000   1.0000   1.0000   1.0000   1.0000   1.0000
     1.0000   1.0000   1.0000   1.0000   1.0000   1.0000   1.0000   1.0000
     1.0000   1.0000   1.0000   1.0000   1.0000   1.0000   1.0000   1.0000
     1.0000   1.0000   1.0000   1.0000   1.0000   1.0000   1.0000   1.0000
     1.0000   1.0000   1.0000   1.0000   1.0000   1.0000   1.0000   1.0000
     1.0000   1.0000   1.0000   1.0000   1.0000   1.0000   1.0000   1.0000
     1.0000   1.0000   1.0000   1.0000   1.0000   1.0000   1.0000   1.0000
     1.0000   1.0000   1.0000   1.0000   1.0000   1.0000   1.0000   1.0000
     1.0000   1.0000   1.0000   1.0000   1.0000   1.0000   1.0000   1.0000
     1.0000   1.0000   1.0000   1.0000   1.0000   1.0000   1.0000   1.0000
     1.0000   1.0000   1.0000   1.0000   1.0000   1.0000   1.0000   1.0000
     1.0000   1.0000   1.0000   1.0000   1.0000   1.0000   1.0000   1.0000
     1.0000   1.0000   1.0000   1.0000   1.0000   1.0000   1.0000   1.0000
     1.0000   1.0000   1.0000   1.0000   1.0000   1.0000   1.0000   1.0000
     1.0000   1.0000   1.0000   1.0000   1.0000   1.0000   1.0000   1.0000
     1.0000   1.0000   1.0000   1.0000   1.0000   1.0000   1.0000   1.0000
     1.0000   1.0000   1.0000   1.0000   1.0000   1.0000   1.0000   1.0000
     1.0000   1.0000   1.0000   1.0000   1.0000   1.0000   1.0000   1.0000
     1.0000   1.0000   1.0000   1.0000   1.0000   1.0000   1.0000   1.0000
     1.0000   1.0000   1.0000   1.0000   1.0000   1.0000   1.0000   1.0000
     1.0000   1.0000   1.0000   1.0000   1.0000   1.0000   1.0000   1.0000
     1.0000   1.0000   1.0000   1.0000   1.0000   1.0000   1.0000   1.0000
     1.0000   1.0000   1.0000   1.0000   1.0000   1.0000   1.0000   1.0000
     1.0000   1.0000   1.0000   1.0000   1.0000   1.0000   1.0000   1.0000
     1.0000   1.0000   1.0000   1.0000   1.0000   1.0000   1.0000   1.0000
     1.0000   1.0000   1.0000   1.0000   1.0000   1.0000   1.0000   1.0000
     1.0000   1.0000   1.0000   1.0000   1.0000   1.0000   1.0000   1.0000
     1.0000   1.0000   1.0000   1.0000   1.0000   1.0000   1.0000   1.0000
     1.0000   1.0000   1.0000   1.0000   1.0000   1.0000   1.0000   1.0000
     1.0000   1.0000   1.0000   1.0000   1.0000   1.0000   1.0000   1.0000
     1.0000   1.0000   1.0000   1.0000   1.0000   1.0000   1.0000   1.0000
     1.0000   1.0000   1.0000   1.0000   1.0000   1.0000   1.0000   1.0000
     0.0000   0.0000   0.0000   0.0000   0.0000   0.0000   0.0000   0.0000
     0.0000   0.0000   0.0000   0.0000   0.0000   0.0000   0.0000   0.0000
     0.0000   0.0000   0.0000   0.0000   0.0000   0.0000   0.0000   0.0000
     0.0000   0.0000   0.0000   0.0000   0.0000   0.0000   0.0000   0.0000
     0.0000   0.0000   0.0000   0.0000   0.0000   0.0000   0.0000   0.0000
     0.0000   0.0000   0.0000   0.0000   0.0000   0.0000   0.0000   0.0000
     0.0000   0.0000   0.0000   0.0000   0.0000   0.0000   0.0000   0.0000
     0.0000   0.0000   0.0000   0.0000   0.0000   0.0000   0.0000   0.0000

          k = 0.0000-0.5774-0.4602 ( 57848 PWs)   bands (ev):

    -7.3424  -6.7586  -6.7410  -6.7263  -6.6635  -6.6124  -6.5982  -6.5816
    -6.5748  -6.5544  -6.5511  -6.5415  -6.5383  -6.5371  -6.5343  -6.5262
    -6.5224  -6.5179  -6.5091  -6.5058  -6.5030  -6.4986  -6.4924  -6.4920
    -6.4864  -6.4860  -6.4782  -6.4702  -6.4688  -6.4665  -6.4652  -6.4419
    -6.4398  -6.3165  -6.2933  -6.2871  -5.4464  -5.4137  -5.4122  -5.4110
    -5.4064  -5.4046  -5.4022  -5.3979  -5.3945  -5.3921  -5.3902  -5.3886
    -5.3874  -5.3862  -5.3830  -5.3825  -5.3822  -5.3817  -5.3788  -5.3787
    -5.3783  -5.3774  -5.3757  -5.3743  -5.3731  -5.3716  -5.3705  -5.3699
    -5.3669  -5.3644  -5.3636  -5.3624  -5.3590  -5.3583  -5.3578  -5.3559
    -5.3530  -5.3521  -5.3515  -5.3491  -5.3464  -5.3452  -5.3452  -5.3371
    -5.3365  -5.3317  -5.3307  -5.3283  -5.3235  -5.3224  -5.3196  -5.3176
    -5.3171  -5.3155  -5.3127  -5.3123  -5.3122  -5.3114  -5.3079  -5.3051
    -5.2959  -5.2911  -5.2858  -5.2766  -5.2756  -5.2720  -5.2720  -5.2689
    -5.2685  -5.2650  -5.2644  -5.2631  -5.2613  -5.2585  -5.2581  -5.2567
    -5.2529  -5.2529  -5.2518  -5.2505  -5.2505  -5.2497  -5.2488  -5.2479
    -5.2456  -5.2453  -5.2433  -5.2427  -5.2415  -5.2397  -5.2368  -5.2300
    -5.2283  -5.2276  -5.2253  -5.2237  -5.2222  -5.2217  -5.2186  -5.2182
    -5.2180  -5.2156  -5.2147  -5.2138  -5.2130  -5.2122  -5.2082  -5.2033
    -5.2010  -5.1980  -5.1977  -5.1964  -5.1936  -5.1905  -5.1867  -5.1856
    -5.1843  -5.1820  -5.1819  -5.1812  -5.1799  -5.1795  -5.1778  -5.1766
    -5.1758  -5.1741  -5.1736  -5.1717  -5.1715  -5.1706  -5.1692  -5.1686
    -5.1666  -5.1662  -5.1654  -5.1646  -5.1609  -5.1594  -5.1526  -5.1440
    -5.1354  -5.1262  -5.1245  -4.9133  -4.7106  -4.6810  -4.6740  -4.3632
    -4.0127  -3.9747  -3.9455  -3.9194  -3.9007  -3.8695  -3.8043  -3.8037
    -3.7992  -3.7974  -3.7933  -3.7361  -3.7032  -3.6318  -3.5855  -3.5722
    -3.5600  -3.3340  -3.2909  -3.2440  -3.2290  -3.2200  -3.2041  -3.1875
    -3.1825  -3.1798  -3.1754  -2.2666   2.1785   2.2377   2.5568   2.5685
     2.5746   2.5834   2.5928   2.5977   2.6031   2.7590   2.9360   2.9522
     3.0400   3.0497   3.0642   3.0949   3.1225   3.1450   3.1670   3.1831
     3.2367   3.2711   3.2756   3.2759   3.2831   3.2840   3.2994   4.3827
     4.6008   4.6422   4.6677   4.7067   4.8219   4.9083   5.0311   5.0837
     5.0923   5.0934   5.1077   5.1095   5.3251   5.3378   5.3855   5.4089
     5.4909   5.5416   5.6632   5.7436   5.7541   5.8083   5.8204   5.8273
     5.8410   5.8973   5.9620   6.0089   6.0295   6.0420   6.1608   6.2438
     6.2949   6.2985   6.3203   6.3222   6.3432   6.4040   6.4138   6.4440
     6.4606   6.5177   6.5253   6.5302   6.5353   6.5398   6.5577   6.7780
     6.9947   7.0255   7.0755   7.1724   7.1872   7.2015   7.2048   7.2104
     7.2143   7.2318   7.3030   7.3042   7.3219   7.3304   7.3476   7.3611
     7.3633   7.3746   7.3955   7.6279   7.7232   7.7311   7.7313   7.8908
     7.9143   7.9334   7.9479   8.0863   8.1744   8.1774   8.1909   9.1703
    10.8985  11.1753  11.2910  12.2951  12.3266  12.3800  12.4698  12.9097
    12.9814  13.2502  13.2905  13.3114  13.3968  13.6872  13.7397  13.7537
    13.7632  13.7634  13.7673  13.7796  13.8053  13.8192  13.8339  13.9371
    14.0076  14.1070  14.3886  14.9048  14.9327  14.9400  14.9507  14.9544
    14.9548  14.9621  14.9795  14.9897  15.0934  15.1279  15.3526  15.6051
    15.6239  15.6277  15.6341  15.6407  15.7024  15.7171  15.7510  15.7670
    15.8076  15.8758  15.9061  15.9562  16.0214  16.1167  16.2008  16.2501
    16.2530  16.3054  16.3401  16.3621  16.3707  16.3734  16.3786  16.3857

     occupation numbers 
     1.0000   1.0000   1.0000   1.0000   1.0000   1.0000   1.0000   1.0000
     1.0000   1.0000   1.0000   1.0000   1.0000   1.0000   1.0000   1.0000
     1.0000   1.0000   1.0000   1.0000   1.0000   1.0000   1.0000   1.0000
     1.0000   1.0000   1.0000   1.0000   1.0000   1.0000   1.0000   1.0000
     1.0000   1.0000   1.0000   1.0000   1.0000   1.0000   1.0000   1.0000
     1.0000   1.0000   1.0000   1.0000   1.0000   1.0000   1.0000   1.0000
     1.0000   1.0000   1.0000   1.0000   1.0000   1.0000   1.0000   1.0000
     1.0000   1.0000   1.0000   1.0000   1.0000   1.0000   1.0000   1.0000
     1.0000   1.0000   1.0000   1.0000   1.0000   1.0000   1.0000   1.0000
     1.0000   1.0000   1.0000   1.0000   1.0000   1.0000   1.0000   1.0000
     1.0000   1.0000   1.0000   1.0000   1.0000   1.0000   1.0000   1.0000
     1.0000   1.0000   1.0000   1.0000   1.0000   1.0000   1.0000   1.0000
     1.0000   1.0000   1.0000   1.0000   1.0000   1.0000   1.0000   1.0000
     1.0000   1.0000   1.0000   1.0000   1.0000   1.0000   1.0000   1.0000
     1.0000   1.0000   1.0000   1.0000   1.0000   1.0000   1.0000   1.0000
     1.0000   1.0000   1.0000   1.0000   1.0000   1.0000   1.0000   1.0000
     1.0000   1.0000   1.0000   1.0000   1.0000   1.0000   1.0000   1.0000
     1.0000   1.0000   1.0000   1.0000   1.0000   1.0000   1.0000   1.0000
     1.0000   1.0000   1.0000   1.0000   1.0000   1.0000   1.0000   1.0000
     1.0000   1.0000   1.0000   1.0000   1.0000   1.0000   1.0000   1.0000
     1.0000   1.0000   1.0000   1.0000   1.0000   1.0000   1.0000   1.0000
     1.0000   1.0000   1.0000   1.0000   1.0000   1.0000   1.0000   1.0000
     1.0000   1.0000   1.0000   1.0000   1.0000   1.0000   1.0000   1.0000
     1.0000   1.0000   1.0000   1.0000   1.0000   1.0000   1.0000   1.0000
     1.0000   1.0000   1.0000   1.0000   1.0000   1.0000   1.0000   1.0000
     1.0000   1.0000   1.0000   1.0000   1.0000   1.0000   1.0000   1.0000
     1.0000   1.0000   1.0000   1.0000   1.0000   1.0000   1.0000   1.0000
     1.0000   1.0000   1.0000   1.0000   1.0000   1.0000   1.0000   1.0000
     1.0000   1.0000   1.0000   1.0000   1.0000   1.0000   1.0000   1.0000
     1.0000   1.0000   1.0000   1.0000   1.0000   1.0000   1.0000   1.0000
     1.0000   1.0000   1.0000   1.0000   1.0000   1.0000   1.0000   1.0000
     1.0000   1.0000   1.0000   1.0000   1.0000   1.0000   1.0000   1.0000
     1.0000   1.0000   1.0000   1.0000   1.0000   1.0000   1.0000   1.0000
     1.0000   1.0000   1.0000   1.0000   1.0000   1.0000   1.0000   1.0000
     1.0000   1.0000   1.0000   1.0000   1.0000   1.0000   1.0000   1.0000
     1.0000   1.0000   1.0000   1.0000   1.0000   1.0000   1.0000   1.0000
     1.0000   1.0000   1.0000   1.0000   1.0000   1.0000   1.0000   1.0000
     1.0000   1.0000   1.0000   1.0000   1.0000   1.0000   1.0000   1.0000
     1.0000   1.0000   1.0000   1.0000   1.0000   1.0000   1.0000   1.0000
     1.0000   1.0000   1.0000   1.0000   1.0000   1.0000   1.0000   1.0000
     0.0000   0.0000   0.0000   0.0000   0.0000   0.0000   0.0000   0.0000
     0.0000   0.0000   0.0000   0.0000   0.0000   0.0000   0.0000   0.0000
     0.0000   0.0000   0.0000   0.0000   0.0000   0.0000   0.0000   0.0000
     0.0000   0.0000   0.0000   0.0000   0.0000   0.0000   0.0000   0.0000
     0.0000   0.0000   0.0000   0.0000   0.0000   0.0000   0.0000   0.0000
     0.0000   0.0000   0.0000   0.0000   0.0000   0.0000   0.0000   0.0000
     0.0000   0.0000   0.0000   0.0000   0.0000   0.0000   0.0000   0.0000
     0.0000   0.0000   0.0000   0.0000   0.0000   0.0000   0.0000   0.0000

     the Fermi energy is     9.7612 ev

!    total energy              =  -10987.44093562 Ry
     total all-electron energy =   -140351.259607 Ry
     estimated scf accuracy    <       0.00000002 Ry
     smearing contrib. (-TS)   =      -0.00000000 Ry
     internal energy E=F+TS    =  -10987.44093562 Ry

     The total energy is F=E-TS. E is the sum of the following terms:
     one-electron contribution =   -3326.34551344 Ry
     hartree contribution      =    2328.83392153 Ry
     xc contribution           =   -1603.93194519 Ry
     ewald contribution        =   -4020.05556941 Ry
     one-center paw contrib.   =   -4365.94182910 Ry
      -> PAW hartree energy AE =     289.30691837 Ry
      -> PAW hartree energy PS =    -286.49174921 Ry
      -> PAW xc energy AE      =    -313.90133653 Ry
      -> PAW xc energy PS      =      79.47802696 Ry
      -> total E_H with PAW    =    2331.64909069 Ry
      -> total E_XC with PAW   =   -1838.35525477 Ry

     convergence has been achieved in   1 iterations


     -----------------------------------------------
     Non-local corr. energy    =      19.20826422 Ry
     -----------------------------------------------


     Forces acting on atoms (cartesian axes, Ry/au):

     atom    1 type  1   force =     0.00000000    0.00000000   -0.00034538
     atom    2 type  1   force =     0.00013385    0.00014603    0.00008430
     atom    3 type  1   force =    -0.00018779   -0.00000253    0.00014448
     atom    4 type  1   force =     0.00019339    0.00004290    0.00008430
     atom    5 type  1   force =    -0.00009608   -0.00016136    0.00014448
     atom    6 type  1   force =     0.00005954   -0.00018893    0.00008430
     atom    7 type  1   force =     0.00009170    0.00016389    0.00014448
     atom    8 type  1   force =    -0.00013385    0.00014603    0.00008430
     atom    9 type  1   force =     0.00018779   -0.00000253    0.00014448
     atom   10 type  1   force =     0.00000000    0.00000000   -0.00013186
     atom   11 type  1   force =     0.00000000    0.00000000    0.00047830
     atom   12 type  1   force =    -0.00005954   -0.00018893    0.00008430
     atom   13 type  1   force =    -0.00009170    0.00016389    0.00014448
     atom   14 type  1   force =     0.00000000    0.00000000    0.00038640
     atom   15 type  1   force =     0.00000000    0.00000000    0.00080296
     atom   16 type  1   force =    -0.00019339    0.00004290    0.00008430
     atom   17 type  1   force =     0.00009608   -0.00016136    0.00014448
     atom   18 type  1   force =    -0.00024833    0.00014337   -0.00076829
     atom   19 type  1   force =     0.00043770   -0.00025271    0.00008452
     atom   20 type  1   force =     0.00022304    0.00012877   -0.00004096
     atom   21 type  1   force =    -0.00006901   -0.00003984   -0.00006444
     atom   22 type  1   force =     0.00000000   -0.00028675   -0.00076829
     atom   23 type  1   force =     0.00000000    0.00050542    0.00008452
     atom   24 type  1   force =     0.00024833    0.00014337   -0.00076829
     atom   25 type  1   force =    -0.00043770   -0.00025271    0.00008452
     atom   26 type  1   force =     0.00000000   -0.00025377    0.00033924
     atom   27 type  1   force =     0.00000000   -0.00009390   -0.00020543
     atom   28 type  1   force =    -0.00021977    0.00012688    0.00033924
     atom   29 type  1   force =    -0.00008132    0.00004695   -0.00020543
     atom   30 type  1   force =     0.00000000   -0.00025754   -0.00004096
     atom   31 type  1   force =     0.00000000    0.00007968   -0.00006444
     atom   32 type  1   force =    -0.00022304    0.00012877   -0.00004096
     atom   33 type  1   force =     0.00006901   -0.00003984   -0.00006444
     atom   34 type  1   force =     0.00021977    0.00012688    0.00033924
     atom   35 type  1   force =     0.00008132    0.00004695   -0.00020543
     atom   36 type  2   force =     0.00000000    0.00000000   -0.00001719
     atom   37 type  2   force =     0.00000000    0.00000000   -0.00069943
     atom   38 type  2   force =     0.00001902    0.00002502   -0.00015669
     atom   39 type  2   force =    -0.00027773    0.00018491   -0.00001610
     atom   40 type  2   force =     0.00003118    0.00000396   -0.00015669
     atom   41 type  2   force =     0.00002128   -0.00033297   -0.00001610
     atom   42 type  2   force =     0.00001216   -0.00002898   -0.00015669
     atom   43 type  2   force =     0.00029900    0.00014806   -0.00001610
     atom   44 type  2   force =    -0.00001902    0.00002502   -0.00015669
     atom   45 type  2   force =     0.00027773    0.00018491   -0.00001610
     atom   46 type  2   force =     0.00000000    0.00000000    0.00051163
     atom   47 type  2   force =     0.00000000    0.00000000    0.00007596
     atom   48 type  2   force =    -0.00001216   -0.00002898   -0.00015669
     atom   49 type  2   force =    -0.00029900    0.00014806   -0.00001610
     atom   50 type  2   force =     0.00000000    0.00000000   -0.00015686
     atom   51 type  2   force =     0.00000000    0.00000000    0.00088986
     atom   52 type  2   force =    -0.00003118    0.00000396   -0.00015669
     atom   53 type  2   force =    -0.00002128   -0.00033297   -0.00001610
     atom   54 type  2   force =    -0.00081699    0.00047169   -0.00012127
     atom   55 type  2   force =    -0.00008354    0.00004823   -0.00023929
     atom   56 type  2   force =    -0.00069775   -0.00040285   -0.00032308
     atom   57 type  2   force =    -0.00005341   -0.00003083    0.00016926
     atom   58 type  2   force =     0.00000000   -0.00094338   -0.00012127
     atom   59 type  2   force =     0.00000000   -0.00009646   -0.00023929
     atom   60 type  2   force =     0.00081699    0.00047169   -0.00012127
     atom   61 type  2   force =     0.00008354    0.00004823   -0.00023929
     atom   62 type  2   force =     0.00000000   -0.00014907   -0.00020048
     atom   63 type  2   force =     0.00000000   -0.00027308    0.00060942
     atom   64 type  2   force =    -0.00012909    0.00007453   -0.00020048
     atom   65 type  2   force =    -0.00023650    0.00013654    0.00060942
     atom   66 type  2   force =     0.00000000    0.00080569   -0.00032308
     atom   67 type  2   force =     0.00000000    0.00006167    0.00016926
     atom   68 type  2   force =     0.00069775   -0.00040285   -0.00032308
     atom   69 type  2   force =     0.00005341   -0.00003083    0.00016926
     atom   70 type  2   force =     0.00012909    0.00007453   -0.00020048
     atom   71 type  2   force =     0.00023650    0.00013654    0.00060942
     atom   72 type  2   force =     0.00000000    0.00000000    0.00015207
     The non-local contrib.  to forces
     atom    1 type  1   force =     0.00000000    0.00000000    0.00346927
     atom    2 type  1   force =    -0.03091753   -0.02212118   -0.02342879
     atom    3 type  1   force =    -0.00118315   -0.00382938    0.00909942
     atom    4 type  1   force =    -0.03461627   -0.01571478   -0.02342879
     atom    5 type  1   force =    -0.00390792    0.00089005    0.00909942
     atom    6 type  1   force =    -0.00369874    0.03783596   -0.02342879
     atom    7 type  1   force =    -0.00272477    0.00293933    0.00909942
     atom    8 type  1   force =     0.03091753   -0.02212118   -0.02342879
     atom    9 type  1   force =     0.00118315   -0.00382938    0.00909942
     atom   10 type  1   force =     0.00000000   -0.00000000    0.00557777
     atom   11 type  1   force =     0.00000000   -0.00000000   -0.00404398
     atom   12 type  1   force =     0.00369874    0.03783596   -0.02342879
     atom   13 type  1   force =     0.00272477    0.00293933    0.00909942
     atom   14 type  1   force =     0.00000000    0.00000000   -0.00275362
     atom   15 type  1   force =     0.00000000    0.00000000   -0.00526073
     atom   16 type  1   force =     0.03461627   -0.01571478   -0.02342879
     atom   17 type  1   force =     0.00390792    0.00089005    0.00909942
     atom   18 type  1   force =     0.02322767   -0.01341050    0.00980766
     atom   19 type  1   force =    -0.01960984    0.01132175    0.02798227
     atom   20 type  1   force =     0.00251268    0.00145070   -0.00045821
     atom   21 type  1   force =     0.00636900    0.00367714   -0.00706296
     atom   22 type  1   force =     0.00000000    0.02682100    0.00980766
     atom   23 type  1   force =     0.00000000   -0.02264350    0.02798227
     atom   24 type  1   force =    -0.02322767   -0.01341050    0.00980766
     atom   25 type  1   force =     0.01960984    0.01132175    0.02798227
     atom   26 type  1   force =     0.00000000   -0.00054543   -0.00548897
     atom   27 type  1   force =     0.00000000    0.00626816    0.00386445
     atom   28 type  1   force =    -0.00047235    0.00027271   -0.00548897
     atom   29 type  1   force =     0.00542838   -0.00313408    0.00386445
     atom   30 type  1   force =     0.00000000   -0.00290139   -0.00045821
     atom   31 type  1   force =     0.00000000   -0.00735429   -0.00706296
     atom   32 type  1   force =    -0.00251268    0.00145070   -0.00045821
     atom   33 type  1   force =    -0.00636900    0.00367714   -0.00706296
     atom   34 type  1   force =     0.00047235    0.00027271   -0.00548897
     atom   35 type  1   force =    -0.00542838   -0.00313408    0.00386445
     atom   36 type  2   force =     0.00000000   -0.00000000    0.07114865
     atom   37 type  2   force =     0.00000000   -0.00000000    0.04623275
     atom   38 type  2   force =     0.00448268   -0.01472073    0.00174136
     atom   39 type  2   force =     0.00998675    0.00857171    0.01352182
     atom   40 type  2   force =    -0.01050719    0.01124248    0.00174136
     atom   41 type  2   force =     0.01241669    0.00436292    0.01352182
     atom   42 type  2   force =    -0.01498987    0.00347825    0.00174136
     atom   43 type  2   force =     0.00242994   -0.01293463    0.01352182
     atom   44 type  2   force =    -0.00448268   -0.01472073    0.00174136
     atom   45 type  2   force =    -0.00998675    0.00857171    0.01352182
     atom   46 type  2   force =     0.00000000    0.00000000    0.01700216
     atom   47 type  2   force =     0.00000000    0.00000000    0.01160035
     atom   48 type  2   force =     0.01498987    0.00347825    0.00174136
     atom   49 type  2   force =    -0.00242994   -0.01293463    0.01352182
     atom   50 type  2   force =     0.00000000    0.00000000    0.02570671
     atom   51 type  2   force =     0.00000000    0.00000000    0.01423898
     atom   52 type  2   force =     0.01050719    0.01124248    0.00174136
     atom   53 type  2   force =    -0.01241669    0.00436292    0.01352182
     atom   54 type  2   force =    -0.06899028    0.03983156   -0.02012594
     atom   55 type  2   force =     0.00314989   -0.00181859    0.03429291
     atom   56 type  2   force =    -0.01908906   -0.01102107   -0.00579604
     atom   57 type  2   force =    -0.00250114   -0.00144403    0.01154935
     atom   58 type  2   force =     0.00000000   -0.07966311   -0.02012594
     atom   59 type  2   force =     0.00000000    0.00363718    0.03429291
     atom   60 type  2   force =     0.06899028    0.03983156   -0.02012594
     atom   61 type  2   force =    -0.00314989   -0.00181859    0.03429291
     atom   62 type  2   force =     0.00000000   -0.01665433    0.03208935
     atom   63 type  2   force =     0.00000000    0.00105070    0.00633086
     atom   64 type  2   force =    -0.01442308    0.00832717    0.03208935
     atom   65 type  2   force =     0.00090993   -0.00052535    0.00633086
     atom   66 type  2   force =     0.00000000    0.02204215   -0.00579604
     atom   67 type  2   force =     0.00000000    0.00288807    0.01154935
     atom   68 type  2   force =     0.01908906   -0.01102107   -0.00579604
     atom   69 type  2   force =     0.00250114   -0.00144403    0.01154935
     atom   70 type  2   force =     0.01442308    0.00832717    0.03208935
     atom   71 type  2   force =    -0.00090993   -0.00052535    0.00633086
     atom   72 type  2   force =     0.00000000    0.00000000   -0.01151819
     The ionic contribution  to forces
     atom    1 type  1   force =    -0.00003343    0.00001942    0.07913691
     atom    2 type  1   force =     1.11946545   -3.30231897   -0.42221630
     atom    3 type  1   force =     0.07039205   -0.46345368    0.43156106
     atom    4 type  1   force =    -2.30019578    2.62070513   -0.42221595
     atom    5 type  1   force =    -0.36620087    0.29274871    0.43156128
     atom    6 type  1   force =    -3.41969285    0.68167693   -0.42221603
     atom    7 type  1   force =    -0.43662577    0.17076648    0.43156107
     atom    8 type  1   force =    -1.11953013   -3.30231804   -0.42221855
     atom    9 type  1   force =    -0.07045860   -0.46345317    0.43156157
     atom   10 type  1   force =    -0.00003307    0.00002197   -0.02273413
     atom   11 type  1   force =    -0.00003271    0.00002176    0.35374131
     atom   12 type  1   force =     3.41962720    0.68167562   -0.42221648
     atom   13 type  1   force =     0.43656108    0.17076715    0.43156072
     atom   14 type  1   force =    -0.00003242    0.00002160   -0.23684063
     atom   15 type  1   force =    -0.00003204    0.00002138    0.44135569
     atom   16 type  1   force =     2.30012867    2.62070475   -0.42221865
     atom   17 type  1   force =     0.36613532    0.29274988    0.43156144
     atom   18 type  1   force =     2.17960062   -1.25839720   -3.02490515
     atom   19 type  1   force =     1.45343659   -0.83914602    3.83663932
     atom   20 type  1   force =     0.03597693    0.02073449   -0.81325678
     atom   21 type  1   force =     0.03269611    0.01884029    1.22400877
     atom   22 type  1   force =     0.00003840    2.51673100   -3.02491908
     atom   23 type  1   force =     0.00003557    1.67822737    3.83665415
     atom   24 type  1   force =    -2.17953451   -1.25840332   -3.02491816
     atom   25 type  1   force =    -1.45337062   -0.83914895    3.83665381
     atom   26 type  1   force =     0.00003327   -1.05775260   -0.89120705
     atom   27 type  1   force =     0.00003305   -1.02125005    1.28013506
     atom   28 type  1   force =    -0.91599418    0.52884840   -0.89121072
     atom   29 type  1   force =    -0.88438131    0.51059671    1.28013866
     atom   30 type  1   force =     0.00003106   -0.04152860   -0.81325659
     atom   31 type  1   force =     0.00003106   -0.03774017    1.22400896
     atom   32 type  1   force =    -0.03591108    0.02073236   -0.81325657
     atom   33 type  1   force =    -0.03263099    0.01883859    1.22400896
     atom   34 type  1   force =     0.91605663    0.52884596   -0.89120734
     atom   35 type  1   force =     0.88444434    0.51059486    1.28013509
     atom   36 type  2   force =    -0.00002968    0.00001804   -5.11915109
     atom   37 type  2   force =    -0.00002922    0.00001774    0.96917853
     atom   38 type  2   force =     0.26488356   -0.54858420   -0.70740597
     atom   39 type  2   force =    -0.01235543   -0.39214627    0.35955336
     atom   40 type  2   force =    -0.34267843    0.50374305   -0.70740689
     atom   41 type  2   force =    -0.34581755    0.18542800    0.35955374
     atom   42 type  2   force =    -0.60759173    0.04489870   -0.70740672
     atom   43 type  2   force =    -0.33349233    0.20677475    0.35955391
     atom   44 type  2   force =    -0.26494299   -0.54858417   -0.70740597
     atom   45 type  2   force =     0.01229603   -0.39214681    0.35955390
     atom   46 type  2   force =    -0.00002958    0.00001918   -0.47830395
     atom   47 type  2   force =    -0.00002963    0.00001921    0.15650355
     atom   48 type  2   force =     0.60753156    0.04489837   -0.70740568
     atom   49 type  2   force =     0.33343280    0.20677533    0.35955367
     atom   50 type  2   force =    -0.00002938    0.00001927   -0.60689145
     atom   51 type  2   force =    -0.00002905    0.00001906    0.19903409
     atom   52 type  2   force =     0.34261831    0.50374276   -0.70740586
     atom   53 type  2   force =     0.34575904    0.18542804    0.35955404
     atom   54 type  2   force =     3.93806511   -2.27364609    1.46110596
     atom   55 type  2   force =     0.14879468   -0.08590926   -0.54115869
     atom   56 type  2   force =     0.14095528    0.08134811    0.05566233
     atom   57 type  2   force =     0.03282657    0.01891658   -0.16109275
     atom   58 type  2   force =     0.00003769    4.54726213    1.46112099
     atom   59 type  2   force =     0.00002906    0.17176071   -0.54115891
     atom   60 type  2   force =    -3.93802556   -2.27366673    1.46112004
     atom   61 type  2   force =    -0.14873580   -0.08590871   -0.54115922
     atom   62 type  2   force =     0.00002932   -0.73062495   -0.15176869
     atom   63 type  2   force =     0.00002952   -0.17886979   -0.17067086
     atom   64 type  2   force =    -0.63269734    0.36528675   -0.15176849
     atom   65 type  2   force =    -0.15485979    0.08940709   -0.17067098
     atom   66 type  2   force =     0.00002695   -0.16274828    0.05566213
     atom   67 type  2   force =     0.00002976   -0.03789025   -0.16109295
     atom   68 type  2   force =    -0.14089678    0.08134551    0.05566257
     atom   69 type  2   force =    -0.03276764    0.01891697   -0.16109268
     atom   70 type  2   force =     0.63275338    0.36528517   -0.15176855
     atom   71 type  2   force =     0.15491935    0.08940733   -0.17067074
     atom   72 type  2   force =    -0.00001312    0.00000762   -0.01448537
     The local contribution  to forces
     atom    1 type  1   force =    -0.00005829    0.00012647   -0.08283138
     atom    2 type  1   force =    -1.08858132    3.32464917    0.44509068
     atom    3 type  1   force =    -0.06950583    0.46747867   -0.44066468
     atom    4 type  1   force =     2.33480434   -2.60482965    0.44509121
     atom    5 type  1   force =     0.36994887   -0.29367873   -0.44066405
     atom    6 type  1   force =     3.42333206   -0.71945361    0.44509076
     atom    7 type  1   force =     0.43940459   -0.17340580   -0.44066452
     atom    8 type  1   force =     1.08846982    3.32467350    0.44509086
     atom    9 type  1   force =     0.06939004    0.46747795   -0.44066443
     atom   10 type  1   force =    -0.00007323    0.00014743    0.01670020
     atom   11 type  1   force =    -0.00005732    0.00013600   -0.34956491
     atom   12 type  1   force =    -3.42344042   -0.71945488    0.44509091
     atom   13 type  1   force =    -0.43950362   -0.17340575   -0.44066405
     atom   14 type  1   force =    -0.00006373    0.00014379    0.24001051
     atom   15 type  1   force =    -0.00004937    0.00013094   -0.43557309
     atom   16 type  1   force =    -2.33491734   -2.60480896    0.44509027
     atom   17 type  1   force =    -0.37006356   -0.29367947   -0.44066431
     atom   18 type  1   force =    -2.20188408    1.27128197    3.01379476
     atom   19 type  1   force =    -1.43220546    0.82690696   -3.86517829
     atom   20 type  1   force =    -0.03700886   -0.02262651    0.81331515
     atom   21 type  1   force =    -0.03793602   -0.02316196   -1.21757428
     atom   22 type  1   force =     0.00110105   -2.54441487    3.01380780
     atom   23 type  1   force =     0.00110380   -1.65566237   -3.86519131
     atom   24 type  1   force =     2.20411474    1.27128777    3.01380589
     atom   25 type  1   force =     1.43443418    0.82690818   -3.86519044
     atom   26 type  1   force =     0.00111692    1.05733466    0.89644654
     atom   27 type  1   force =     0.00111694    1.01432938   -1.28423298
     atom   28 type  1   force =     0.91732978   -0.52958837    0.89645002
     atom   29 type  1   force =     0.88008395   -0.50808402   -1.28423699
     atom   30 type  1   force =     0.00112700    0.04339834    0.81331545
     atom   31 type  1   force =     0.00112732    0.04447050   -1.21757452
     atom   32 type  1   force =     0.03924051   -0.02262339    0.81331559
     atom   33 type  1   force =     0.04016981   -0.02315959   -1.21757423
     atom   34 type  1   force =    -0.91509337   -0.52958594    0.89644753
     atom   35 type  1   force =    -0.87784857   -0.50808479   -1.28423335
     atom   36 type  2   force =    -0.00000927   -0.00000165    5.04906961
     atom   37 type  2   force =    -0.00001013   -0.00000083   -1.01550119
     atom   38 type  2   force =    -0.26930783    0.56311040    0.70538418
     atom   39 type  2   force =     0.00221698    0.38390249   -0.37301590
     atom   40 type  2   force =     0.35300885   -0.51477464    0.70538494
     atom   41 type  2   force =     0.33357166   -0.19002044   -0.37301531
     atom   42 type  2   force =     0.62230650   -0.04833899    0.70538549
     atom   43 type  2   force =     0.33134451   -0.19388266   -0.37301580
     atom   44 type  2   force =     0.26928687    0.56311116    0.70538377
     atom   45 type  2   force =    -0.00223973    0.38390242   -0.37301435
     atom   46 type  2   force =    -0.00001119   -0.00000045    0.46192997
     atom   47 type  2   force =    -0.00001110    0.00000003   -0.16797381
     atom   48 type  2   force =    -0.62232931   -0.04833888    0.70538464
     atom   49 type  2   force =    -0.33136414   -0.19388241   -0.37301548
     atom   50 type  2   force =    -0.00001099   -0.00000019    0.58130021
     atom   51 type  2   force =    -0.00001042   -0.00000065   -0.21229977
     atom   52 type  2   force =    -0.35303230   -0.51477391    0.70538457
     atom   53 type  2   force =    -0.33359405   -0.19002157   -0.37301512
     atom   54 type  2   force =    -3.87092824    2.23487288   -1.44156716
     atom   55 type  2   force =    -0.15187271    0.08767119    0.50703379
     atom   56 type  2   force =    -0.12273819   -0.07097338   -0.05040358
     atom   57 type  2   force =    -0.03030413   -0.01760641    0.14974766
     atom   58 type  2   force =     0.00006732   -4.46994625   -1.44159761
     atom   59 type  2   force =     0.00008466   -0.17552564    0.50703541
     atom   60 type  2   force =     3.87112010    2.23489091   -1.44158863
     atom   61 type  2   force =     0.15204238    0.08767128    0.50703508
     atom   62 type  2   force =     0.00009023    0.74677337    0.11985718
     atom   63 type  2   force =     0.00008451    0.17748072    0.16490174
     atom   64 type  2   force =     0.64686979   -0.37348047    0.11985759
     atom   65 type  2   force =     0.15384046   -0.08883246    0.16490237
     atom   66 type  2   force =     0.00009125    0.14176273   -0.05040245
     atom   67 type  2   force =     0.00008564    0.03502750    0.14974759
     atom   68 type  2   force =     0.12290479   -0.07097054   -0.05040459
     atom   69 type  2   force =     0.03047364   -0.01760628    0.14974740
     atom   70 type  2   force =    -0.64669436   -0.37348219    0.11985877
     atom   71 type  2   force =    -0.15367070   -0.08883236    0.16490184
     atom   72 type  2   force =     0.00000951    0.00000773    0.02577170
     The core correction contribution to forces
     atom    1 type  1   force =    -0.00000540    0.00001293   -0.00024035
     atom    2 type  1   force =     0.00012373    0.00006434    0.00052464
     atom    3 type  1   force =     0.00001787   -0.00003739   -0.00000141
     atom    4 type  1   force =     0.00010489    0.00009713    0.00052468
     atom    5 type  1   force =    -0.00003794    0.00005931   -0.00000136
     atom    6 type  1   force =    -0.00002420   -0.00012525    0.00052464
     atom    7 type  1   force =    -0.00006063    0.00001794   -0.00000140
     atom    8 type  1   force =    -0.00013320    0.00006654    0.00052466
     atom    9 type  1   force =    -0.00002865   -0.00003748   -0.00000139
     atom   10 type  1   force =    -0.00000670    0.00001417    0.00019437
     atom   11 type  1   force =    -0.00000537    0.00001360    0.00018826
[...]
              0.604748118385015E+02
              0.192077660665648E+01
              0.188462022375984E+03
              0.261348775489440E+02
             -0.274940686496984E+02
              0.109388102483565E+02
             -0.253447825913472E+02
              0.147961255419939E+03
             -0.803873861587050E+00
              0.282566967108955E+02
              0.102752845229720E+03
              0.276455420406210E+02
             -0.779324442090859E+02
             -0.126540923327162E+03
              0.710701895558213E+01
             -0.144013754256737E+03
              0.482980491835168E+02
             -0.248970775493042E+02
             -0.553684604500140E+02
              0.560798848719774E+02
              0.194369336961543E+02
              0.540354520857177E+02
              0.230184125061987E+01
              0.802133691457536E+02
             -0.136294506614677E+03
             -0.966951786772415E+01
             -0.119693043329329E+03
              0.268169513311254E+02
              0.655844843385942E+02
             -0.667185625875459E+01
             -0.436483137797336E+02
              0.982185176717809E+02
             -0.454267317748777E+02
              0.335889989011452E+02
             -0.287998868914727E+02
              0.777544743471582E+02
              0.816474773415761E+02
             -0.353469740751229E+02
              0.701061614051988E+02
              0.263189533377381E+02
             -0.707592561214771E+02
             -0.461496051362940E+02
              0.113631252383003E+03
              0.557421440367349E+02
             -0.477500881546155E+01
             -0.120583237909673E+02
              0.175063179473849E+03
              0.103198162481046E+03
              0.366681416747830E+02
             -0.110402244434615E+03
              0.176642348420287E+03
             -0.825595344561730E+02
             -0.101945319557429E+03
             -0.153474208673789E+03
              0.684763342476099E+02
             -0.137914991230085E+03
              0.623470438097911E+02
              0.100932696024880E+03
              0.717863362355384E+02
              0.184148961312596E+02
              0.475615831020110E+02
             -0.113742583602118E+03
             -0.407143506590655E+02
             -0.309495509230629E+02
              0.583995181105249E+02
              0.115541577820910E+03
              0.119537103330432E+03
              0.922374542326264E+02
             -0.211867742565992E+02
              0.293267981380266E+02
              0.154199268337328E+01
             -0.379204952115300E+02
              0.486245202937222E+02
              0.529933675011273E+02
             -0.671175473930149E+02
             -0.799205504672216E+02
             -0.315059750158704E+02
              0.831609096310818E+02
              0.398318333010821E+02
             -0.570366607589683E+02
             -0.871917047452578E+02
             -0.126894224934431E+03
              0.255821047684850E+01
              0.340098732130231E+02
             -0.479732442398232E+02
              0.177586529833424E+03
              0.871600535658808E+01
             -0.201336198730957E+03
              0.445533288552224E+02
              0.883524009015510E+02
             -0.405083401107021E+02
              0.490878208677532E+01
             -0.561392205878765E+02
              0.823471557335887E+02
              0.380140193379222E+02
             -0.105347736800777E+03
              0.125499085490169E+03
              0.341094167611521E+01
             -0.539598833444066E+02
             -0.639367508666738E+02
              0.249732133677105E+03
              0.111333537302056E+03
             -0.309792795362639E+02
              0.613423098799630E+02
             -0.109013587697643E+03
             -0.194685803063060E+02
             -0.110796031164127E+03
              0.444033018345265E+02
              0.753126479793186E+02
              0.895485664312234E+02
             -0.356819026007897E+02
              0.105657111906723E+02
              0.102189916218774E+03
              0.379418205576548E+02
              0.641066579446012E+02
              0.273271622594316E+02
             -0.184600241901417E+02
              0.271394655734861E+01
             -0.168469323129581E+02
              0.260509102355478E+02
              0.578410615996142E+01
             -0.930245141791554E+02
              0.141879517704038E+03
              0.567694934217182E+02
             -0.101816228432179E+03
             -0.755388859649066E+02
             -0.109559112562789E+03
             -0.519265739703387E+02
             -0.381203869512510E+02
             -0.847379869818930E+02
             -0.829685135026504E+02
              0.104796605911715E+03
              0.825264295457648E+02
             -0.103673998702454E+02
              0.120209393933861E+03
              0.228793631107283E+02
             -0.194184543866599E+03
              0.109475013458234E+03
              0.253582544693982E+02
              0.845209849857101E+02
              0.189112173221934E+02
              0.142233784077907E+02
              0.167868903080849E+02
              0.440634521183742E+02
             -0.804400084553988E+02
             -0.402034856382339E+02
             -0.738386917775404E+02
             -0.612294100891411E+02
              0.279923899601637E+02
             -0.702963874760965E+02
              0.327888664828925E+02
              0.434323112747974E+02
             -0.463087821075621E+02
             -0.243601185239302E+02
             -0.217026641178069E+01
              0.120207933942765E+03
              0.190329076230717E+02
              0.119315914505517E+03
              0.423381705910684E+02
             -0.153905458515303E+03
             -0.524675789963474E+02
              0.526041477219931E+02
              0.118259707968085E+03
              0.229171914834068E+02
              0.462038856140369E+02
              0.111628475344742E+03
             -0.650282137012177E+02
             -0.105551864890606E+03
              0.136962530999784E+03
              0.212424534078752E+01
             -0.145317747984605E+03
              0.487155232004741E+02
              0.961714442075613E+02
             -0.221319078431200E+02
             -0.908164176928137E+02
              0.160031442772068E+02
              0.601481894525045E+01
             -0.497428964297533E+02
              0.181152401008615E+02
             -0.155350314553184E+02
              0.213983275555573E+03
              0.589091066879286E+02
             -0.983021234717149E+02
              0.297504326062310E+02
              0.137458755601714E+03
             -0.879896274849816E+02
             -0.236317293042933E+02
             -0.778873604561666E+02
              0.620997859269780E+02
              0.265326466529089E+02
              0.412192407511036E+02
              0.312205842640202E+01
              0.154261858825360E+03
             -0.863971454726770E+02
             -0.655703096439056E+02
             -0.722939891346658E+02
              0.622597134677272E+02
              0.148379198369744E+03
             -0.186491775041617E+02
              0.613302122691898E+02
             -0.829299914625358E+02
              0.816133572044606E+01
             -0.245342620021518E+02
             -0.846493094487221E+01
             -0.353813589494776E+02
             -0.325924898265902E+02
             -0.240155219462155E+02
              0.257705889290482E+02
              0.432137536143711E+02
             -0.996609137958467E+02
              0.724181209623228E+02
             -0.117005547364573E+03
              0.873619549301667E+02
             -0.101586811153343E+03
              0.153701150496107E+03
              0.818884477764012E+02
              0.912578985410841E+02
              0.208762610329836E+02
              0.233589757865243E+02
             -0.206071268709265E+03
              0.353989780454942E+02
              0.939749603023461E+01
              0.160942701096383E+02
             -0.306931907493080E+02
              0.160248347948470E+03
             -0.489329000459206E+02
             -0.632130937994405E+02
             -0.159031408529379E+03
             -0.529295913471381E+02
             -0.721379486978296E+02
             -0.640741093361401E+02
             -0.175546593235325E+02
             -0.334565989316536E+02
             -0.444189577134771E+02
             -0.667780914519494E+02
              0.497598561176751E+02
              0.164484575666846E+03
              0.140292107281123E+03
             -0.280930734851984E+02
             -0.172173160947171E+03
             -0.723664867462343E+02
              0.332678954020813E+02
              0.367095564796930E+02
              0.531246279759927E+02
              0.414571271091332E+02
              0.135185359629095E+02
              0.159153881207540E+03
             -0.395013699065078E+02
              0.808613689825191E+02
              0.370185318458118E+02
             -0.521630404410173E+02
             -0.328704195860996E+02
              0.736336204836697E+02
             -0.425933839084232E+02
             -0.303374962687317E+02
             -0.196326316619319E+02
              0.920125086581179E+02
             -0.123250195772139E+03
             -0.136812763119023E+02
             -0.101000593781891E+03
             -0.218401922553588E+03
              0.900497627733671E+00
             -0.269999775478545E+02
              0.749839987944569E+02
              0.890925302564835E+02
              0.122281345448275E+03
             -0.803875735836813E+02
              0.130845615030271E+03
              0.341842771436293E+02
             -0.388851031869251E+02
              0.236649563118088E+02
             -0.416373330297315E+02
             -0.291197934355266E+02
              0.665726355823165E+02
             -0.650173223324306E+02
              0.158058422843761E+03
             -0.403927851754534E+02
             -0.845469135003609E+02
              0.160821122804987E+03
             -0.904204341959226E+02
             -0.134865499532871E+02
              0.164634473588778E+02
              0.498404400292327E+02
             -0.736823450254076E+02
             -0.552059729659785E+02
              0.837971637431517E+02
             -0.136147867722301E+03
              0.998475109047440E+02
              0.130928998041426E+02
              0.780128126358535E+02
              0.108145448227473E+03
              0.271334419361181E+02
             -0.142198803389126E+03
             -0.628633012132588E+02
             -0.105227348450480E+03
             -0.659399992450740E+02
             -0.218670362962573E+02
              0.257968937370490E+02
             -0.492317960891201E+02
              0.352805916613670E+01
             -0.160252194468397E+03
              0.387692701350733E+01
             -0.101230904923035E+03
              0.993711823972891E+02
             -0.532973288511732E+02
             -0.105211153806038E+02
              0.715296658577479E+02
              0.762150012846927E+01
              0.712685746001302E+02
             -0.127594078531444E+03
              0.280228845035510E+02
              0.887974038336679E+01
              0.512171421405051E+02
              0.921732069669665E+02
             -0.160239856773733E+02
             -0.101154086957732E+03
             -0.578504017760350E+02
             -0.399414854275578E+02
             -0.194785794460570E+02
              0.953064035169961E+02
              0.587150874004176E+02
             -0.612041447063184E+02
             -0.559442029375544E+02
              0.462646463094316E+02
              0.452208127438278E+02
             -0.125281010044452E+03
              0.351447688975547E+02
              0.919393691418038E+02
             -0.454471059239938E+01
              0.107685431901237E+03
              0.546753365607292E+02
              0.860314337583061E+02
              0.130568454152232E+03
              0.213020927336746E+02
             -0.182835749816364E+03
              0.187296593448058E+02
              0.202771781266462E+03
              0.145808746421210E+03
             -0.978076937063451E+02
              0.974407717557521E+01
              0.126803894984269E+03
              0.115308873063216E+03
              0.548162838322356E+02
             -0.290969199034224E+02
              0.525561028178361E+02
              0.110642587568861E+03
             -0.493098367683751E+02
             -0.354147851918369E+02
              0.689676159176913E+02
             -0.498141896693937E+01
              0.646725712645839E+02
             -0.160375565621489E+02
              0.133467647437573E+03
             -0.508430094515817E+02
              0.303556466515344E+02
             -0.623064042653799E+02
              0.630545882435015E+02
             -0.832115029691249E+01
              0.996622797342518E+02
              0.693703124535176E+01
              0.392489720725667E+02
             -0.661457282505360E+02
             -0.406361152847115E+02
             -0.192000064608572E+02
             -0.164676928183163E+02
              0.104637891739138E+03
              0.432162711267172E+02
              0.134392297778629E+03
              0.111473519935400E+03
              0.248573776294388E+02
              0.933500227952564E+00
              0.131210328555169E+03
              0.690618581982612E+02
              0.193921162252497E+01
              0.116591890708630E+03
             -0.104633453488274E+03
              0.344211843766767E+02
             -0.657269183388930E+02
             -0.265174556826607E+02
              0.167747087178924E+03
             -0.257179300658831E+02
             -0.120321002849721E+01
             -0.221424950885958E+02
              0.139443389623575E+03
             -0.325923784167472E+02
             -0.387349019267452E+01
              0.281572522329388E+03
             -0.910952729471979E+02
             -0.970004193486091E+02
             -0.101990998813594E+03
             -0.596523835333073E+02
              0.594793120899997E+02
             -0.254432358746606E+02
              0.165554571216954E+02
             -0.510445188680046E+01
              0.356361029277386E+02
              0.580832862344932E+02
              0.668331422659089E+02
              0.986359854286915E+02
              0.543033836438248E+02
              0.692201377011686E+02
             -0.111711982192036E+03
             -0.106709182527454E+03
             -0.271514441004148E+02
             -0.104737871388468E+03
              0.167877139173797E+03
              0.143883269723126E+03
              0.687134939872543E+02
              0.186022981938469E+03
             -0.968466991919273E+02
             -0.395356487097395E+02
             -0.548486627073203E+02
              0.153802622015395E+03
 
 BEEF-vdW xc energy contributions
            1 :    -1410.307349845458     
            2 :     1269.834008300462     
            3 :    -1034.513614858036     
            4 :     773.2631585855144     
            5 :    -546.7175609231824     
            6 :     384.1722733004569     
            7 :    -280.3225556600373     
            8 :     210.2439155977322     
            9 :    -150.5390025582035     
           10 :     92.89912939984720     
           11 :    -43.58972084767379     
           12 :     12.68673544142598     
           13 :    -2.972246666885894     
           14 :     6.709703119844335     
           15 :    -11.35516324025616     
           16 :     8.476186117953375     
           17 :     1.416828814562678     
           18 :    -11.32789013215142     
           19 :     14.74159760861789     
           20 :    -11.18232488746321     
           21 :     6.211144839184726     
           22 :    -6.477082692680824     
           23 :     14.23495792966855     
           24 :    -25.72732330089320     
           25 :     34.38637110365903     
           26 :    -35.94600520306335     
           27 :     31.32021815824373     
           28 :    -25.22859113842082     
           29 :     22.06765464681757     
           30 :    -22.54924391630948     
           31 :    -121.2682400059991     
           32 :    -83.05124899685507     

     Writing all to output data dir ./GaN.save/
 
     init_run     :      2.94s CPU      5.11s WALL (       1 calls)
     electrons    :     23.13s CPU     26.07s WALL (       1 calls)
     forces       :      3.05s CPU      3.11s WALL (       1 calls)
     stress       :     38.20s CPU     38.51s WALL (       1 calls)

     Called by init_run:
     wfcinit      :      0.78s CPU      2.76s WALL (       1 calls)
     potinit      :      1.37s CPU      1.47s WALL (       1 calls)
     hinit0       :      0.45s CPU      0.49s WALL (       1 calls)

     Called by electrons:
     c_bands      :     19.34s CPU     22.06s WALL (       2 calls)
     sum_band     :      2.46s CPU      2.52s WALL (       2 calls)
     v_of_rho     :      1.22s CPU      1.28s WALL (       2 calls)
     v_h          :      0.01s CPU      0.01s WALL (       2 calls)
     v_xc         :     14.38s CPU     14.60s WALL (      38 calls)
     newd         :      0.14s CPU      0.17s WALL (       2 calls)
     PAW_pot      :      1.01s CPU      1.01s WALL (       2 calls)
     mix_rho      :      0.00s CPU      0.00s WALL (       2 calls)
     vdW_kernel   :      0.45s CPU      0.47s WALL (       1 calls)

     Called by c_bands:
     init_us_2    :      0.27s CPU      0.28s WALL (      12 calls)
     init_us_2:cp :      0.27s CPU      0.28s WALL (      12 calls)
     cegterg      :     18.31s CPU     20.63s WALL (       4 calls)

     Called by sum_band:
     sum_band:wei :      0.00s CPU      0.00s WALL (       2 calls)
     sum_band:loo :      2.23s CPU      2.26s WALL (       2 calls)
     sum_band:buf :      0.06s CPU      0.06s WALL (       4 calls)
     sum_band:ini :      0.11s CPU      0.11s WALL (       4 calls)
     sum_band:cal :      0.86s CPU      0.86s WALL (       4 calls)
     sum_band:bec :      0.02s CPU      0.02s WALL (       4 calls)
     addusdens    :      0.20s CPU      0.22s WALL (       2 calls)
     addusd:skk   :      0.02s CPU      0.02s WALL (       4 calls)
     addusd:dgemm :      0.12s CPU      0.14s WALL (       4 calls)
     addusd:qvan2 :      0.05s CPU      0.05s WALL (       4 calls)

     Called by *egterg:
     cdiaghg      :      4.98s CPU      6.77s WALL (       6 calls)
     cegterg:over :      1.58s CPU      1.66s WALL (       6 calls)
     cegterg:upda :      0.75s CPU      0.80s WALL (       6 calls)
     cegterg:last :      0.60s CPU      0.61s WALL (       4 calls)
     h_psi        :      7.74s CPU      7.90s WALL (      10 calls)
     s_psi        :      1.63s CPU      1.64s WALL (      10 calls)
     g_psi        :      0.02s CPU      0.02s WALL (       6 calls)

     Called by h_psi:
     h_psi:calbec :      1.75s CPU      1.76s WALL (      10 calls)
     vloc_psi     :      4.26s CPU      4.32s WALL (      10 calls)
     add_vuspsi   :      1.64s CPU      1.66s WALL (      10 calls)

     General routines
     calbec       :      4.94s CPU      4.97s WALL (      24 calls)
     fft          :      5.13s CPU      5.20s WALL (    2232 calls)
     ffts         :      0.01s CPU      0.01s WALL (       4 calls)
     fftw         :      4.88s CPU      4.94s WALL (    7700 calls)
     interpolate  :      0.01s CPU      0.01s WALL (       2 calls)
 
     Parallel routines

     PAW routines
     PAW_pot      :      1.01s CPU      1.01s WALL (       2 calls)
     PAW_symme    :      0.00s CPU      0.00s WALL (       3 calls)
 
     PWSCF        :   1m20.85s CPU   1m28.45s WALL

 
   This run was terminated on:   8:32:42  24Mar2024            

=------------------------------------------------------------------------------=
   JOB DONE.
=------------------------------------------------------------------------------=
