
     Program PWSCF v.7.1 starts on 28Mar2024 at  4:52:52 

     This program is part of the open-source Quantum ESPRESSO suite
     for quantum simulation of materials; please cite
         "P. Giannozzi et al., J. Phys.:Condens. Matter 21 395502 (2009);
         "P. Giannozzi et al., J. Phys.:Condens. Matter 29 465901 (2017);
         "P. Giannozzi et al., J. Chem. Phys. 152 154105 (2020);
          URL http://www.quantum-espresso.org", 
     in publications or presentations arising from this work. More details at
     http://www.quantum-espresso.org/quote

     Parallel version (MPI & OpenMP), running on      20 processor cores
     Number of MPI processes:                20
     Threads/MPI process:                     1

     MPI processes distributed on     1 nodes
     1998157 MiB available memory on the printing compute node when the environment starts
 
     Reading input from espresso.pwi
Warning: card &CELL ignored
Warning: card    CELL_DYNAMICS    = 'BFGS' ignored
Warning: card / ignored

     Current dimensions of program PWSCF are:
     Max number of different atomic species (ntypx) = 10
     Max number of k-points (npk) =  40000
     Max angular momentum in pseudopotentials (lmaxx) =  4
     file Pb.pbe-dn-kjpaw_psl.1.0.0.UPF: wavefunction(s)  6S 6P 5D renormalized
     file I.pbe-dn-kjpaw_psl.1.0.0.UPF: wavefunction(s)  5S 5P renormalized

     **************************************************************************
     Initializing libbeef V0.1.2 with the BEEF-vdW functional.
     Citation: Wellendorff et al., PRB 85, 235149 (2012).
     **************************************************************************


     IMPORTANT: XC functional enforced from input :
     Exchange-correlation= BEEF-VDW
                           (   1   4  43  14   2   0   0)
     Any further DFT definition will be discarded
     Please, verify this is what you really want

 
     R & G space division:  proc/nbgrp/npool/nimage =      20
     Subspace diagonalization in iterative solution of the eigenvalue problem:
     a serial algorithm will be used

 
     Parallelization info
     --------------------
     sticks:   dense  smooth     PW     G-vecs:    dense   smooth      PW
     Min         381     306     80                42326    30292    4074
     Max         383     307     81                42331    30298    4079
     Sum        7639    6121   1615               846533   605897   81527
 
     Using Slab Decomposition
 


     bravais-lattice index     =            4
     lattice parameter (alat)  =      17.8060  a.u.
     unit-cell volume          =    7656.2263 (a.u.)^3
     number of atoms/cell      =           24
     number of atomic types    =            2
     number of electrons       =       379.00
     number of Kohn-Sham states=          228
     kinetic-energy cutoff     =      70.0000  Ry
     charge density cutoff     =     350.0000  Ry
     scf convergence threshold =      1.0E-07
     mixing beta               =       0.7000
     number of iterations used =            8  plain     mixing
     energy convergence thresh.=      1.0E-04
     force convergence thresh. =      1.0E-03
     Exchange-correlation= BEEF-VDW
                           (   1   4  43  14   2   0   0)
     nstep                     =           50


     celldm(1)=  17.806016  celldm(2)=   0.000000  celldm(3)=   1.565971
     celldm(4)=   0.000000  celldm(5)=   0.000000  celldm(6)=   0.000000

     crystal axes: (cart. coord. in units of alat)
               a(1) = (   1.000000   0.000000   0.000000 )  
               a(2) = (  -0.500000   0.866025   0.000000 )  
               a(3) = (   0.000000   0.000000   1.565971 )  

     reciprocal axes: (cart. coord. in units 2 pi/alat)
               b(1) = (  1.000000  0.577350 -0.000000 )  
               b(2) = (  0.000000  1.154701  0.000000 )  
               b(3) = (  0.000000 -0.000000  0.638581 )  


     PseudoPot. # 1 for Pb read from file:
     /trace/group/acmegroup/atimmins/packages/espresso/pseudo/psl_1.0.0/pslibrary.1.0.0/pbe/PSEUDOPOTENTIALS/Pb.pbe-dn-kjpaw_psl.1.0.0.UPF
     MD5 check sum: 39ab5b8a6bbd56b7735ad9f188aac93a
     Pseudo is Projector augmented-wave + core cor, Zval = 14.0
     Generated using 'atomic' code by A. Dal Corso  v.7.1
     Shape of augmentation charge: PSQ
     Using radial grid of 1281 points,  6 beta functions with: 
                l(1) =   0
                l(2) =   0
                l(3) =   1
                l(4) =   1
                l(5) =   2
                l(6) =   2
     Q(r) pseudized with 0 coefficients 


     PseudoPot. # 2 for I  read from file:
     /trace/group/acmegroup/atimmins/packages/espresso/pseudo/psl_1.0.0/pslibrary.1.0.0/pbe/PSEUDOPOTENTIALS/I.pbe-dn-kjpaw_psl.1.0.0.UPF
     MD5 check sum: bfa8781bc1224d19af3f3980e3fab11e
     Pseudo is Projector augmented-wave + core cor, Zval = 17.0
     Generated using 'atomic' code by A. Dal Corso  v.7.1
     Shape of augmentation charge: PSQ
     Using radial grid of 1247 points,  6 beta functions with: 
                l(1) =   0
                l(2) =   0
                l(3) =   1
                l(4) =   1
                l(5) =   2
                l(6) =   2
     Q(r) pseudized with 0 coefficients 


     atomic species   valence    mass     pseudopotential
        Pb            14.00   207.20000     Pb( 1.00)
        I             17.00   126.90447     I ( 1.00)

     No symmetry found


                                    s                        frac. trans.

      isym =  1     identity                                     

 cryst.   s( 1) = (     1          0          0      )
                  (     0          1          0      )
                  (     0          0          1      )

 cart.    s( 1) = (  1.0000000  0.0000000  0.0000000 )
                  (  0.0000000  1.0000000  0.0000000 )
                  (  0.0000000  0.0000000  1.0000000 )


     point group C_1 (1)    
     there are  1 classes
     the character table:

       E    
A      1.00

     the symmetry operations in each class and the name of the first element:

     E        1
          identity                                               

   Cartesian axes

     site n.     atom                  positions (alat units)
         1           Pb  tau(   1) = (   0.2500170   0.4329745   1.5659650  )
         2           Pb  tau(   2) = (   0.2500068   0.4329836   0.7829793  )
         3           Pb  tau(   3) = (   0.0000153   0.8659852   1.5659567  )
         4           Pb  tau(   4) = (   0.0000051   0.8659943   0.7829710  )
         5           Pb  tau(   5) = (   0.7500170   0.4329726   1.5659715  )
         6           Pb  tau(   6) = (   0.7500068   0.4329816   0.7829858  )
         7           Pb  tau(   7) = (   0.5000153   0.8659833   1.5659633  )
         8           Pb  tau(   8) = (   0.5000051   0.8659923   0.7829776  )
         9           I   tau(   9) = (   0.2500209   0.1443009   1.3648506  )
        10           I   tau(  10) = (   0.0000091   0.5773207   0.5818567  )
        11           I   tau(  11) = (   0.0000193   0.5773116   1.3648424  )
        12           I   tau(  12) = (   0.7500107   0.1443080   0.5818714  )
        13           I   tau(  13) = (   0.7500209   0.1442990   1.3648571  )
        14           I   tau(  14) = (   0.5000091   0.5773187   0.5818632  )
        15           I   tau(  15) = (   0.5000193   0.5773097   1.3648489  )
        16           I   tau(  16) = (  -0.0000034   0.2886595   0.2011110  )
        17           I   tau(  17) = (   0.0000068   0.2886504   0.9840967  )
        18           I   tau(  18) = (  -0.2500051   0.7216702   0.2011027  )
        19           I   tau(  19) = (  -0.2499949   0.7216611   0.9840884  )
        20           I   tau(  20) = (   0.4999966   0.2886575   0.2011175  )
        21           I   tau(  21) = (   0.5000068   0.2886485   0.9841032  )
        22           I   tau(  22) = (   0.2499949   0.7216682   0.2011092  )
        23           I   tau(  23) = (   0.2500051   0.7216592   0.9840949  )
        24           Pb  tau(  24) = (   0.2500107   0.1443099   0.5818649  )

   Crystallographic axes

     site n.     atom                  positions (cryst. coord.)
         1           Pb  tau(   1) = (  0.4999949  0.4999559  0.9999959  )
         2           Pb  tau(   2) = (  0.4999900  0.4999663  0.4999959  )
         3           Pb  tau(   3) = (  0.4999921  0.9999536  0.9999906  )
         4           Pb  tau(   4) = (  0.4999871  0.9999640  0.4999906  )
         5           Pb  tau(   5) = (  0.9999938  0.4999537  1.0000001  )
         6           Pb  tau(   6) = (  0.9999888  0.4999641  0.5000001  )
         7           Pb  tau(   7) = (  0.9999910  0.9999514  0.9999948  )
         8           Pb  tau(   8) = (  0.9999860  0.9999618  0.4999948  )
         9           I   tau(   9) = (  0.3333331  0.1666243  0.8715680  )
        10           I   tau(  10) = (  0.3333253  0.6666325  0.3715628  )
        11           I   tau(  11) = (  0.3333303  0.6666220  0.8715628  )
        12           I   tau(  12) = (  0.8333270  0.1666326  0.3715722  )
        13           I   tau(  13) = (  0.8333320  0.1666221  0.8715722  )
        14           I   tau(  14) = (  0.8333242  0.6666303  0.3715669  )
        15           I   tau(  15) = (  0.8333292  0.6666198  0.8715669  )
        16           I   tau(  16) = (  0.1666542  0.3333152  0.1284257  )
        17           I   tau(  17) = (  0.1666592  0.3333048  0.6284257  )
        18           I   tau(  18) = (  0.1666514  0.8333129  0.1284204  )
        19           I   tau(  19) = (  0.1666564  0.8333025  0.6284204  )
        20           I   tau(  20) = (  0.6666531  0.3333130  0.1284299  )
        21           I   tau(  21) = (  0.6666581  0.3333026  0.6284299  )
        22           I   tau(  22) = (  0.6666503  0.8333107  0.1284246  )
        23           I   tau(  23) = (  0.6666553  0.8333003  0.6284246  )
        24           Pb  tau(  24) = (  0.3333281  0.1666348  0.3715680  )

     number of k points=     4  Gaussian smearing, width (Ry)=  0.0100
                       cart. coord. in units 2pi/alat
        k(    1) = (   0.0000000   0.0000000   0.0000000), wk =   0.5000000
        k(    2) = (   0.0000000  -0.5773503   0.0000000), wk =   0.5000000
        k(    3) = (   0.5000000  -0.2886751   0.0000000), wk =   0.5000000
        k(    4) = (  -0.5000000  -0.2886751   0.0000000), wk =   0.5000000

                       cryst. coord.
        k(    1) = (   0.0000000   0.0000000   0.0000000), wk =   0.5000000
        k(    2) = (   0.0000000  -0.5000000   0.0000000), wk =   0.5000000
        k(    3) = (   0.5000000  -0.5000000   0.0000000), wk =   0.5000000
        k(    4) = (  -0.5000000  -0.0000000   0.0000000), wk =   0.5000000

     Dense  grid:   846533 G-vectors     FFT dimensions: ( 108, 108, 180)

     Smooth grid:   605897 G-vectors     FFT dimensions: (  96,  96, 150)

     Dynamical RAM for                 wfc:      13.17 MB

     Dynamical RAM for     wfc (w. buffer):      65.86 MB

     Dynamical RAM for           str. fact:       1.29 MB

     Dynamical RAM for           local pot:       0.00 MB

     Dynamical RAM for          nlocal pot:      24.96 MB

     Dynamical RAM for                qrad:       3.00 MB

     Dynamical RAM for          rho,v,vnew:       4.34 MB

     Dynamical RAM for               rhoin:       1.45 MB

     Dynamical RAM for            rho*nmix:      10.33 MB

     Dynamical RAM for           G-vectors:       2.65 MB

     Dynamical RAM for          h,s,v(r/c):      38.07 MB

     Dynamical RAM for          <psi|beta>:       1.50 MB

     Dynamical RAM for                 psi:      52.69 MB

     Dynamical RAM for                hpsi:      52.69 MB

     Dynamical RAM for                spsi:      52.69 MB

     Dynamical RAM for      wfcinit/wfcrot:      27.53 MB

     Dynamical RAM for           addusdens:     129.83 MB

     Dynamical RAM for          addusforce:     148.30 MB

     Dynamical RAM for         addusstress:     129.83 MB

     Estimated static dynamical RAM per process >     109.49 MB

     Estimated max dynamical RAM per process >     317.46 MB

     Estimated total dynamical RAM >       6.20 GB

     Check: negative core charge=   -0.000001

     Initial potential from superposition of free atoms

     starting charge     380.9777, renormalised to     379.0000


     %%%%%%%%%%%%%%%%%%%%%%%%%%%%%%%%%%%%%%%%%%%%%%%%%%%%%%%%%%%%%%%%%%%%%%%%
     %                                                                      %
     % You are using vdW-DF, which was implemented by the Thonhauser group. %
     % Please cite the following two papers that made this development      %
     % possible and the two reviews that describe the various versions:     %
     %                                                                      %
     %   T. Thonhauser et al., PRL 115, 136402 (2015).                      %
     %   T. Thonhauser et al., PRB 76, 125112 (2007).                       %
     %   K. Berland et al., Rep. Prog. Phys. 78, 066501 (2015).             %
     %   D.C. Langreth et al., J. Phys.: Condens. Matter 21, 084203 (2009). %
     %                                                                      %
     % If you are calculating stress with vdW-DF, please also cite:         %
     %                                                                      %
     %   R. Sabatini et al., J. Phys.: Condens. Matter 24, 424209 (2012).   %
     %                                                                      %
     %%%%%%%%%%%%%%%%%%%%%%%%%%%%%%%%%%%%%%%%%%%%%%%%%%%%%%%%%%%%%%%%%%%%%%%%

     %%%%%%%%%%%%%%%%%%%%%%%%%%%%%%%%%%%%%%%%%%%%%%%%%%%%%%%%%%%%%%%%%%%%%%%%
     %                                                                      %
     %  vdW-DF NEWS:                                                        %
     %                                                                      %
     %  * vdW-DF3 is now available. DOI: 10.1021/acs.jctc.0c00471           %
     %    use with input_dft = 'vdW-DF3-opt1' or 'vdW-DF3-opt2'             %
     %                                                                      %
     %  * Unscreened and range-separated vdW-DF hybrid functionals          %
     %    DOI: 10.1063/1.4986522 and 10.1088/1361-648X/ac2ad2               %
     %    use with input_dft = 'vdW-DF-cx0' (etc) and 'vdW-DF-ahcx'         %
     %                                                                      %
     %%%%%%%%%%%%%%%%%%%%%%%%%%%%%%%%%%%%%%%%%%%%%%%%%%%%%%%%%%%%%%%%%%%%%%%%


     Carrying out vdW-DF run using the following parameters:
     Nqs    =  20  Npoints =  1024  r_max =  100.000
     q_mesh =  0.00001000  0.04494208  0.09755937  0.15916263
               0.23128650  0.31572767  0.41458969  0.53033537
               0.66584808  0.82450364  1.01025438  1.22772762
               1.48234092  1.78043706  2.12944203  2.53805004
               3.01644009  3.57652955  4.23227104  5.00000000


     -----------------------------------------------
     Non-local corr. energy    =      11.10636649 Ry
     -----------------------------------------------

     Starting wfcs are  216 randomized atomic wfcs +   12 random wfcs
     Checking if some PAW data can be deallocated... 
       PAW data deallocated on   15 nodes for type:  1
       PAW data deallocated on    5 nodes for type:  2

     total cpu time spent up to now is        8.0 secs

     Self-consistent Calculation

     iteration #  1     ecut=    70.00 Ry     beta= 0.70
     Davidson diagonalization with overlap

---- Real-time Memory Report at c_bands before calling an iterative solver
           349 MiB given to the printing process from OS
             0 MiB allocation reported by mallinfo(arena+hblkhd)
       1996072 MiB available memory on the node where the printing process lives
------------------
     ethr =  1.00E-02,  avg # of iterations =  8.0

     Threshold (ethr) on eigenvalues was too large:
     Diagonalizing with lowered threshold

     Davidson diagonalization with overlap

---- Real-time Memory Report at c_bands before calling an iterative solver
           449 MiB given to the printing process from OS
             0 MiB allocation reported by mallinfo(arena+hblkhd)
       1994101 MiB available memory on the node where the printing process lives
------------------
     ethr =  4.23E-04,  avg # of iterations = 11.0


     -----------------------------------------------
     Non-local corr. energy    =      11.28391866 Ry
     -----------------------------------------------


     total cpu time spent up to now is       54.4 secs

     total energy              =  -16521.42779160 Ry
     estimated scf accuracy    <       1.61962243 Ry

     iteration #  2     ecut=    70.00 Ry     beta= 0.70
     Davidson diagonalization with overlap

---- Real-time Memory Report at c_bands before calling an iterative solver
           457 MiB given to the printing process from OS
             0 MiB allocation reported by mallinfo(arena+hblkhd)
       1995736 MiB available memory on the node where the printing process lives
------------------
     ethr =  4.27E-04,  avg # of iterations =  8.5


     -----------------------------------------------
     Non-local corr. energy    =      11.25390990 Ry
     -----------------------------------------------


     total cpu time spent up to now is       78.7 secs

     total energy              =  -16519.70831197 Ry
     estimated scf accuracy    <      16.71534094 Ry

     iteration #  3     ecut=    70.00 Ry     beta= 0.70
     Davidson diagonalization with overlap

---- Real-time Memory Report at c_bands before calling an iterative solver
           465 MiB given to the printing process from OS
             0 MiB allocation reported by mallinfo(arena+hblkhd)
       1995696 MiB available memory on the node where the printing process lives
------------------
     ethr =  4.27E-04,  avg # of iterations = 12.5


     -----------------------------------------------
     Non-local corr. energy    =      11.22578778 Ry
     -----------------------------------------------


     total cpu time spent up to now is      106.9 secs

     total energy              =  -16521.75647230 Ry
     estimated scf accuracy    <       3.93758796 Ry

     iteration #  4     ecut=    70.00 Ry     beta= 0.70
     Davidson diagonalization with overlap

---- Real-time Memory Report at c_bands before calling an iterative solver
           471 MiB given to the printing process from OS
             0 MiB allocation reported by mallinfo(arena+hblkhd)
       1995643 MiB available memory on the node where the printing process lives
------------------
     ethr =  4.27E-04,  avg # of iterations = 10.5


     -----------------------------------------------
     Non-local corr. energy    =      11.21565657 Ry
     -----------------------------------------------


     total cpu time spent up to now is      131.7 secs

     total energy              =  -16522.17866127 Ry
     estimated scf accuracy    <       0.38764302 Ry

     iteration #  5     ecut=    70.00 Ry     beta= 0.70
     Davidson diagonalization with overlap

---- Real-time Memory Report at c_bands before calling an iterative solver
           471 MiB given to the printing process from OS
             0 MiB allocation reported by mallinfo(arena+hblkhd)
       1994730 MiB available memory on the node where the printing process lives
------------------
     ethr =  1.02E-04,  avg # of iterations = 11.5


     -----------------------------------------------
     Non-local corr. energy    =      11.21096422 Ry
     -----------------------------------------------


     total cpu time spent up to now is      157.0 secs

     total energy              =  -16522.19675749 Ry
     estimated scf accuracy    <       0.20103214 Ry

     iteration #  6     ecut=    70.00 Ry     beta= 0.70
     Davidson diagonalization with overlap

---- Real-time Memory Report at c_bands before calling an iterative solver
           471 MiB given to the printing process from OS
             0 MiB allocation reported by mallinfo(arena+hblkhd)
       1993773 MiB available memory on the node where the printing process lives
------------------
     ethr =  5.30E-05,  avg # of iterations =  7.0


     -----------------------------------------------
     Non-local corr. energy    =      11.20378674 Ry
     -----------------------------------------------


     total cpu time spent up to now is      175.8 secs

     total energy              =  -16522.17459295 Ry
     estimated scf accuracy    <       0.09736876 Ry

     iteration #  7     ecut=    70.00 Ry     beta= 0.70
     Davidson diagonalization with overlap

---- Real-time Memory Report at c_bands before calling an iterative solver
           471 MiB given to the printing process from OS
             0 MiB allocation reported by mallinfo(arena+hblkhd)
       1993666 MiB available memory on the node where the printing process lives
------------------
     ethr =  2.57E-05,  avg # of iterations = 10.8


     -----------------------------------------------
     Non-local corr. energy    =      11.20257462 Ry
     -----------------------------------------------


     total cpu time spent up to now is      200.8 secs

     total energy              =  -16522.18398417 Ry
     estimated scf accuracy    <       0.00811756 Ry

     iteration #  8     ecut=    70.00 Ry     beta= 0.70
     Davidson diagonalization with overlap

---- Real-time Memory Report at c_bands before calling an iterative solver
           471 MiB given to the printing process from OS
             0 MiB allocation reported by mallinfo(arena+hblkhd)
       1994061 MiB available memory on the node where the printing process lives
------------------
     ethr =  2.14E-06,  avg # of iterations = 15.3


     -----------------------------------------------
     Non-local corr. energy    =      11.20058247 Ry
     -----------------------------------------------


     total cpu time spent up to now is      237.2 secs

     total energy              =  -16522.18522161 Ry
     estimated scf accuracy    <       0.00297740 Ry

     iteration #  9     ecut=    70.00 Ry     beta= 0.70
     Davidson diagonalization with overlap

---- Real-time Memory Report at c_bands before calling an iterative solver
           478 MiB given to the printing process from OS
             0 MiB allocation reported by mallinfo(arena+hblkhd)
       1994562 MiB available memory on the node where the printing process lives
------------------
     ethr =  7.86E-07,  avg # of iterations = 13.5


     -----------------------------------------------
     Non-local corr. energy    =      11.19949165 Ry
     -----------------------------------------------


     total cpu time spent up to now is      268.8 secs

     total energy              =  -16522.18567075 Ry
     estimated scf accuracy    <       0.00200529 Ry

     iteration # 10     ecut=    70.00 Ry     beta= 0.70
     Davidson diagonalization with overlap

---- Real-time Memory Report at c_bands before calling an iterative solver
           478 MiB given to the printing process from OS
             0 MiB allocation reported by mallinfo(arena+hblkhd)
       1993340 MiB available memory on the node where the printing process lives
------------------
     ethr =  5.29E-07,  avg # of iterations = 13.0


     -----------------------------------------------
     Non-local corr. energy    =      11.19886710 Ry
     -----------------------------------------------


     total cpu time spent up to now is      294.7 secs

     total energy              =  -16522.18587390 Ry
     estimated scf accuracy    <       0.00059799 Ry

     iteration # 11     ecut=    70.00 Ry     beta= 0.70
     Davidson diagonalization with overlap

---- Real-time Memory Report at c_bands before calling an iterative solver
           478 MiB given to the printing process from OS
             0 MiB allocation reported by mallinfo(arena+hblkhd)
       1994796 MiB available memory on the node where the printing process lives
------------------
     ethr =  1.58E-07,  avg # of iterations = 12.8


     -----------------------------------------------
     Non-local corr. energy    =      11.19881626 Ry
     -----------------------------------------------


     total cpu time spent up to now is      322.2 secs

     total energy              =  -16522.18591910 Ry
     estimated scf accuracy    <       0.00078298 Ry

     iteration # 12     ecut=    70.00 Ry     beta= 0.70
     Davidson diagonalization with overlap

---- Real-time Memory Report at c_bands before calling an iterative solver
           478 MiB given to the printing process from OS
             0 MiB allocation reported by mallinfo(arena+hblkhd)
       1995385 MiB available memory on the node where the printing process lives
------------------
     ethr =  1.58E-07,  avg # of iterations = 12.5


     -----------------------------------------------
     Non-local corr. energy    =      11.19869201 Ry
     -----------------------------------------------


     total cpu time spent up to now is      347.3 secs

     total energy              =  -16522.18601447 Ry
     estimated scf accuracy    <       0.00012723 Ry

     iteration # 13     ecut=    70.00 Ry     beta= 0.70
     Davidson diagonalization with overlap

---- Real-time Memory Report at c_bands before calling an iterative solver
           478 MiB given to the printing process from OS
             0 MiB allocation reported by mallinfo(arena+hblkhd)
       1993139 MiB available memory on the node where the printing process lives
------------------
     ethr =  3.36E-08,  avg # of iterations = 12.0


     -----------------------------------------------
     Non-local corr. energy    =      11.19849304 Ry
     -----------------------------------------------


     total cpu time spent up to now is      373.5 secs

     total energy              =  -16522.18604033 Ry
     estimated scf accuracy    <       0.00000282 Ry

     iteration # 14     ecut=    70.00 Ry     beta= 0.70
     Davidson diagonalization with overlap

---- Real-time Memory Report at c_bands before calling an iterative solver
           478 MiB given to the printing process from OS
             0 MiB allocation reported by mallinfo(arena+hblkhd)
       1993363 MiB available memory on the node where the printing process lives
------------------
     c_bands:  1 eigenvalues not converged
     c_bands:  1 eigenvalues not converged
     ethr =  7.44E-10,  avg # of iterations = 14.5


     -----------------------------------------------
     Non-local corr. energy    =      11.19848984 Ry
     -----------------------------------------------


     total cpu time spent up to now is      411.8 secs

     total energy              =  -16522.18604547 Ry
     estimated scf accuracy    <       0.00000143 Ry

     iteration # 15     ecut=    70.00 Ry     beta= 0.70
     Davidson diagonalization with overlap

---- Real-time Memory Report at c_bands before calling an iterative solver
           527 MiB given to the printing process from OS
             0 MiB allocation reported by mallinfo(arena+hblkhd)
       1993349 MiB available memory on the node where the printing process lives
------------------
     ethr =  3.76E-10,  avg # of iterations = 13.0


     -----------------------------------------------
     Non-local corr. energy    =      11.19846023 Ry
     -----------------------------------------------


     total cpu time spent up to now is      439.3 secs

     total energy              =  -16522.18604555 Ry
     estimated scf accuracy    <       0.00000031 Ry

     iteration # 16     ecut=    70.00 Ry     beta= 0.70
     Davidson diagonalization with overlap

---- Real-time Memory Report at c_bands before calling an iterative solver
           527 MiB given to the printing process from OS
             0 MiB allocation reported by mallinfo(arena+hblkhd)
       1995286 MiB available memory on the node where the printing process lives
------------------
     c_bands:  1 eigenvalues not converged
     ethr =  8.26E-11,  avg # of iterations = 16.3


     -----------------------------------------------
     Non-local corr. energy    =      11.19841816 Ry
     -----------------------------------------------


     total cpu time spent up to now is      469.7 secs

     total energy              =  -16522.18604555 Ry
     estimated scf accuracy    <       0.00000016 Ry

     iteration # 17     ecut=    70.00 Ry     beta= 0.70
     Davidson diagonalization with overlap

---- Real-time Memory Report at c_bands before calling an iterative solver
           527 MiB given to the printing process from OS
             0 MiB allocation reported by mallinfo(arena+hblkhd)
       1995291 MiB available memory on the node where the printing process lives
------------------
     c_bands:  1 eigenvalues not converged
     ethr =  4.34E-11,  avg # of iterations = 16.5


     -----------------------------------------------
     Non-local corr. energy    =      11.19840916 Ry
     -----------------------------------------------


     total cpu time spent up to now is      499.6 secs

     End of self-consistent calculation

          k = 0.0000 0.0000 0.0000 ( 75645 PWs)   bands (ev):

   -41.7214 -41.7214 -41.7197 -41.7191 -41.7191 -41.0391 -41.0390 -41.0387
   -41.0368 -41.0366 -41.0364 -41.0259 -41.0258 -41.0256 -41.0254 -41.0253
   -41.0251 -41.0233 -41.0231 -41.0228 -41.0073 -41.0072 -41.0069 -41.0065
   -41.0064 -41.0062 -41.0058 -41.0057 -41.0054 -41.0049 -41.0048 -41.0046
   -40.9995 -40.9994 -40.9992 -40.5364 -40.5364 -40.5363 -40.5267 -40.5266
   -40.5265 -40.5261 -40.5261 -40.5260 -40.4976 -40.4976 -40.4975 -40.4970
   -40.4969 -40.4968 -40.3607 -40.3607 -40.3606 -40.3580 -40.3580 -40.3579
   -40.3565 -40.3565 -40.3564 -40.3481 -40.3481 -40.3480 -40.3475 -40.3475
   -40.3475 -40.2557 -40.2556 -40.2554 -40.2547 -40.2547 -40.2524 -40.2522
   -40.2521 -40.2502 -40.2502 -14.2575 -14.2575 -14.2402 -14.2106 -14.2106
   -13.4385 -13.3999 -13.3997 -13.3880 -13.3860 -13.3859 -13.3808 -13.3807
   -13.3789 -13.3612 -13.3609 -13.3466 -13.3444 -13.3418 -13.3416 -12.9540
   -12.9540 -12.9390 -12.9390 -12.9388 -12.5909 -12.5909 -12.5739 -12.5739
   -12.5730 -12.4369 -12.4368 -12.4332 -12.4217 -12.4178 -12.4154 -12.4153
   -12.4121 -12.4121 -12.4112 -12.4085 -12.4085 -12.4016 -12.4015 -12.4005
    -8.4568  -8.0498  -7.8147  -7.7869  -7.7868  -7.6947  -7.6946  -7.6478
    -7.2771  -7.2770  -7.2471  -7.0864  -7.0863  -7.0640  -6.9935  -5.1944
    -4.0684  -4.0683  -3.6303  -3.2320  -3.2035  -3.1197  -3.1196  -2.6864
     0.7572   0.7572   0.8086   1.4680   1.4681   1.4709   1.6860   1.6917
     1.6917   1.7330   1.7387   1.7387   2.1957   2.3694   2.3694   2.4169
     2.4178   2.4252   2.4253   2.4523   2.4524   2.5243   2.5243   2.5547
     2.6104   2.6105   2.6290   2.7250   2.7549   2.7550   2.9996   3.1176
     3.1176   3.1643   3.1647   3.2264   3.2849   3.3167   3.3168   3.3574
     3.3903   3.3903   3.4907   3.4908   3.6667   4.0428   4.0430   4.1602
     5.7906   6.4100   6.4102   6.5254   6.6006   6.6007   6.8447   7.0828
     7.1194   7.1196   7.3085   7.3087   7.3133   7.3400   7.3403   7.5086
     7.6051   7.6052   7.9033   7.9322   7.9324   8.3452   8.3453   8.3457
     9.1376   9.1377   9.2295   9.9681  10.0202  10.0203  10.0252  10.5463
    11.1748  11.1748  11.3519  11.3727

     occupation numbers 
     1.0000   1.0000   1.0000   1.0000   1.0000   1.0000   1.0000   1.0000
     1.0000   1.0000   1.0000   1.0000   1.0000   1.0000   1.0000   1.0000
     1.0000   1.0000   1.0000   1.0000   1.0000   1.0000   1.0000   1.0000
     1.0000   1.0000   1.0000   1.0000   1.0000   1.0000   1.0000   1.0000
     1.0000   1.0000   1.0000   1.0000   1.0000   1.0000   1.0000   1.0000
     1.0000   1.0000   1.0000   1.0000   1.0000   1.0000   1.0000   1.0000
     1.0000   1.0000   1.0000   1.0000   1.0000   1.0000   1.0000   1.0000
     1.0000   1.0000   1.0000   1.0000   1.0000   1.0000   1.0000   1.0000
     1.0000   1.0000   1.0000   1.0000   1.0000   1.0000   1.0000   1.0000
     1.0000   1.0000   1.0000   1.0000   1.0000   1.0000   1.0000   1.0000
     1.0000   1.0000   1.0000   1.0000   1.0000   1.0000   1.0000   1.0000
     1.0000   1.0000   1.0000   1.0000   1.0000   1.0000   1.0000   1.0000
     1.0000   1.0000   1.0000   1.0000   1.0000   1.0000   1.0000   1.0000
     1.0000   1.0000   1.0000   1.0000   1.0000   1.0000   1.0000   1.0000
     1.0000   1.0000   1.0000   1.0000   1.0000   1.0000   1.0000   1.0000
     1.0000   1.0000   1.0000   1.0000   1.0000   1.0000   1.0000   1.0000
     1.0000   1.0000   1.0000   1.0000   1.0000   1.0000   1.0000   1.0000
     1.0000   1.0000   1.0000   1.0000   1.0000   1.0000   1.0000   1.0000
     1.0000   1.0000   1.0000   1.0000   1.0000   1.0000   1.0000   1.0000
     1.0000   1.0000   1.0000   1.0000   1.0000   1.0000   1.0000   1.0000
     1.0000   1.0000   1.0000   1.0000   1.0000   1.0000   1.0000   1.0000
     1.0000   1.0000   1.0000   1.0000   1.0000   1.0000   1.0000   1.0000
     1.0000   1.0000   1.0000   1.0000   1.0000   1.0000   1.0000   1.0000
     1.0000   1.0000   1.0000   1.0000   0.9991   0.2170   0.2166   0.0226
     0.0000   0.0000   0.0000   0.0000   0.0000   0.0000   0.0000   0.0000
     0.0000   0.0000   0.0000   0.0000   0.0000   0.0000   0.0000   0.0000
     0.0000   0.0000   0.0000   0.0000   0.0000   0.0000   0.0000   0.0000
     0.0000   0.0000   0.0000   0.0000   0.0000   0.0000   0.0000   0.0000
     0.0000   0.0000   0.0000   0.0000

          k = 0.0000-0.5774 0.0000 ( 75730 PWs)   bands (ev):

   -41.7214 -41.7214 -41.7197 -41.7191 -41.7191 -41.0391 -41.0390 -41.0387
   -41.0368 -41.0366 -41.0364 -41.0259 -41.0258 -41.0256 -41.0254 -41.0253
   -41.0251 -41.0233 -41.0231 -41.0228 -41.0073 -41.0072 -41.0069 -41.0065
   -41.0064 -41.0062 -41.0058 -41.0057 -41.0054 -41.0049 -41.0048 -41.0046
   -40.9995 -40.9994 -40.9992 -40.5364 -40.5364 -40.5363 -40.5267 -40.5267
   -40.5265 -40.5261 -40.5261 -40.5260 -40.4976 -40.4976 -40.4975 -40.4970
   -40.4969 -40.4968 -40.3607 -40.3607 -40.3606 -40.3580 -40.3580 -40.3579
   -40.3565 -40.3565 -40.3564 -40.3481 -40.3481 -40.3480 -40.3475 -40.3475
   -40.3475 -40.2557 -40.2556 -40.2554 -40.2547 -40.2547 -40.2524 -40.2522
   -40.2521 -40.2502 -40.2502 -14.2577 -14.2575 -14.2402 -14.2106 -14.2106
   -13.4290 -13.4086 -13.3994 -13.3869 -13.3850 -13.3836 -13.3828 -13.3814
   -13.3800 -13.3615 -13.3569 -13.3517 -13.3435 -13.3425 -13.3417 -12.9543
   -12.9542 -12.9391 -12.9391 -12.9388 -12.5904 -12.5902 -12.5738 -12.5738
   -12.5729 -12.4373 -12.4310 -12.4269 -12.4257 -12.4185 -12.4170 -12.4158
   -12.4156 -12.4108 -12.4102 -12.4071 -12.4065 -12.4060 -12.4053 -12.4013
    -8.4155  -8.0137  -7.9072  -7.8089  -7.7667  -7.7227  -7.6731  -7.4946
    -7.4472  -7.2853  -7.2103  -7.1470  -7.0780  -7.0498  -6.9951  -5.2444
    -4.0575  -3.9222  -3.5186  -3.3522  -3.1916  -3.1082  -2.9153  -2.8633
     1.0334   1.1080   1.2274   1.2761   1.3117   1.4760   1.6641   1.6876
     1.7248   1.7800   1.8028   1.8600   1.9035   1.9586   1.9700   2.0309
     2.1038   2.1400   2.3497   2.3674   2.4220   2.4529   2.4834   2.5436
     2.6496   2.6511   2.6847   2.7353   2.7658   2.8080   2.9140   2.9295
     3.0285   3.1068   3.1463   3.1627   3.1673   3.2447   3.3030   3.3547
     3.4158   3.6106   3.7290   3.7316   3.7658   4.0276   4.0663   4.0768
     6.2913   6.4500   6.8102   6.8729   6.9148   7.0119   7.0318   7.0989
     7.1465   7.2288   7.4016   7.4987   7.5558   7.6446   7.6484   7.7168
     7.7331   7.8067   7.8236   7.8554   7.8691   7.8735   8.0868   8.1447
     9.6987   9.8021  10.0961  10.1839  10.2629  10.2709  10.3512  10.4054
    10.7864  10.8268  10.9325  10.9489

     occupation numbers 
     1.0000   1.0000   1.0000   1.0000   1.0000   1.0000   1.0000   1.0000
     1.0000   1.0000   1.0000   1.0000   1.0000   1.0000   1.0000   1.0000
     1.0000   1.0000   1.0000   1.0000   1.0000   1.0000   1.0000   1.0000
     1.0000   1.0000   1.0000   1.0000   1.0000   1.0000   1.0000   1.0000
     1.0000   1.0000   1.0000   1.0000   1.0000   1.0000   1.0000   1.0000
     1.0000   1.0000   1.0000   1.0000   1.0000   1.0000   1.0000   1.0000
     1.0000   1.0000   1.0000   1.0000   1.0000   1.0000   1.0000   1.0000
     1.0000   1.0000   1.0000   1.0000   1.0000   1.0000   1.0000   1.0000
     1.0000   1.0000   1.0000   1.0000   1.0000   1.0000   1.0000   1.0000
     1.0000   1.0000   1.0000   1.0000   1.0000   1.0000   1.0000   1.0000
     1.0000   1.0000   1.0000   1.0000   1.0000   1.0000   1.0000   1.0000
     1.0000   1.0000   1.0000   1.0000   1.0000   1.0000   1.0000   1.0000
     1.0000   1.0000   1.0000   1.0000   1.0000   1.0000   1.0000   1.0000
     1.0000   1.0000   1.0000   1.0000   1.0000   1.0000   1.0000   1.0000
     1.0000   1.0000   1.0000   1.0000   1.0000   1.0000   1.0000   1.0000
     1.0000   1.0000   1.0000   1.0000   1.0000   1.0000   1.0000   1.0000
     1.0000   1.0000   1.0000   1.0000   1.0000   1.0000   1.0000   1.0000
     1.0000   1.0000   1.0000   1.0000   1.0000   1.0000   1.0000   1.0000
     1.0000   1.0000   1.0000   1.0000   1.0000   1.0000   1.0000   1.0000
     1.0000   1.0000   1.0000   1.0000   1.0000   1.0000   1.0000   1.0000
     1.0000   1.0000   1.0000   1.0000   1.0000   1.0000   1.0000   1.0000
     1.0000   1.0000   1.0000   1.0000   1.0000   1.0000   1.0000   1.0000
     1.0000   1.0000   1.0000   1.0000   1.0000   1.0000   1.0000   1.0000
     1.0000   0.9999   0.9934   0.9929   0.9820   0.2664   0.1523   0.1281
     0.0000   0.0000   0.0000   0.0000   0.0000   0.0000   0.0000   0.0000
     0.0000   0.0000   0.0000   0.0000   0.0000   0.0000   0.0000   0.0000
     0.0000   0.0000   0.0000   0.0000   0.0000   0.0000   0.0000   0.0000
     0.0000   0.0000   0.0000   0.0000   0.0000   0.0000   0.0000   0.0000
     0.0000   0.0000   0.0000   0.0000

          k = 0.5000-0.2887 0.0000 ( 75730 PWs)   bands (ev):

   -41.7214 -41.7214 -41.7197 -41.7191 -41.7191 -41.0391 -41.0390 -41.0387
   -41.0368 -41.0366 -41.0364 -41.0259 -41.0258 -41.0256 -41.0254 -41.0253
   -41.0251 -41.0233 -41.0231 -41.0228 -41.0073 -41.0072 -41.0069 -41.0065
   -41.0064 -41.0062 -41.0058 -41.0057 -41.0054 -41.0049 -41.0048 -41.0046
   -40.9995 -40.9994 -40.9992 -40.5364 -40.5364 -40.5363 -40.5267 -40.5267
   -40.5265 -40.5261 -40.5261 -40.5260 -40.4976 -40.4976 -40.4975 -40.4970
   -40.4969 -40.4968 -40.3607 -40.3607 -40.3606 -40.3580 -40.3580 -40.3579
   -40.3565 -40.3565 -40.3564 -40.3481 -40.3481 -40.3480 -40.3475 -40.3475
   -40.3475 -40.2557 -40.2556 -40.2554 -40.2547 -40.2547 -40.2524 -40.2522
   -40.2521 -40.2502 -40.2502 -14.2577 -14.2575 -14.2402 -14.2106 -14.2106
   -13.4289 -13.4088 -13.3992 -13.3867 -13.3851 -13.3837 -13.3829 -13.3815
   -13.3798 -13.3613 -13.3573 -13.3515 -13.3433 -13.3429 -13.3415 -12.9543
   -12.9542 -12.9391 -12.9391 -12.9388 -12.5904 -12.5902 -12.5739 -12.5737
   -12.5729 -12.4373 -12.4310 -12.4269 -12.4257 -12.4185 -12.4170 -12.4158
   -12.4156 -12.4108 -12.4102 -12.4071 -12.4065 -12.4060 -12.4053 -12.4013
    -8.4155  -8.0137  -7.9071  -7.8089  -7.7666  -7.7227  -7.6732  -7.4946
    -7.4471  -7.2854  -7.2103  -7.1469  -7.0780  -7.0498  -6.9951  -5.2445
    -4.0573  -3.9223  -3.5186  -3.3522  -3.1916  -3.1081  -2.9154  -2.8634
     1.0335   1.1079   1.2275   1.2760   1.3116   1.4760   1.6641   1.6876
     1.7249   1.7801   1.8029   1.8600   1.9037   1.9587   1.9699   2.0308
     2.1038   2.1400   2.3496   2.3671   2.4220   2.4528   2.4834   2.5435
     2.6495   2.6510   2.6848   2.7353   2.7657   2.8081   2.9140   2.9296
     3.0285   3.1067   3.1463   3.1627   3.1673   3.2447   3.3030   3.3547
     3.4159   3.6107   3.7291   3.7316   3.7659   4.0276   4.0663   4.0768
     6.2913   6.4499   6.8104   6.8728   6.9149   7.0120   7.0317   7.0989
     7.1466   7.2288   7.4016   7.4987   7.5558   7.6446   7.6483   7.7166
     7.7333   7.8071   7.8238   7.8552   7.8690   7.8738   8.0866   8.1444
     9.6986   9.8021  10.0961  10.1839  10.2629  10.2709  10.3511  10.4052
    10.7862  10.8266  10.9323  10.9488

     occupation numbers 
     1.0000   1.0000   1.0000   1.0000   1.0000   1.0000   1.0000   1.0000
     1.0000   1.0000   1.0000   1.0000   1.0000   1.0000   1.0000   1.0000
     1.0000   1.0000   1.0000   1.0000   1.0000   1.0000   1.0000   1.0000
     1.0000   1.0000   1.0000   1.0000   1.0000   1.0000   1.0000   1.0000
     1.0000   1.0000   1.0000   1.0000   1.0000   1.0000   1.0000   1.0000
     1.0000   1.0000   1.0000   1.0000   1.0000   1.0000   1.0000   1.0000
     1.0000   1.0000   1.0000   1.0000   1.0000   1.0000   1.0000   1.0000
     1.0000   1.0000   1.0000   1.0000   1.0000   1.0000   1.0000   1.0000
     1.0000   1.0000   1.0000   1.0000   1.0000   1.0000   1.0000   1.0000
     1.0000   1.0000   1.0000   1.0000   1.0000   1.0000   1.0000   1.0000
     1.0000   1.0000   1.0000   1.0000   1.0000   1.0000   1.0000   1.0000
     1.0000   1.0000   1.0000   1.0000   1.0000   1.0000   1.0000   1.0000
     1.0000   1.0000   1.0000   1.0000   1.0000   1.0000   1.0000   1.0000
     1.0000   1.0000   1.0000   1.0000   1.0000   1.0000   1.0000   1.0000
     1.0000   1.0000   1.0000   1.0000   1.0000   1.0000   1.0000   1.0000
     1.0000   1.0000   1.0000   1.0000   1.0000   1.0000   1.0000   1.0000
     1.0000   1.0000   1.0000   1.0000   1.0000   1.0000   1.0000   1.0000
     1.0000   1.0000   1.0000   1.0000   1.0000   1.0000   1.0000   1.0000
     1.0000   1.0000   1.0000   1.0000   1.0000   1.0000   1.0000   1.0000
     1.0000   1.0000   1.0000   1.0000   1.0000   1.0000   1.0000   1.0000
     1.0000   1.0000   1.0000   1.0000   1.0000   1.0000   1.0000   1.0000
     1.0000   1.0000   1.0000   1.0000   1.0000   1.0000   1.0000   1.0000
     1.0000   1.0000   1.0000   1.0000   1.0000   1.0000   1.0000   1.0000
     1.0000   0.9999   0.9934   0.9929   0.9820   0.2662   0.1524   0.1281
     0.0000   0.0000   0.0000   0.0000   0.0000   0.0000   0.0000   0.0000
     0.0000   0.0000   0.0000   0.0000   0.0000   0.0000   0.0000   0.0000
     0.0000   0.0000   0.0000   0.0000   0.0000   0.0000   0.0000   0.0000
     0.0000   0.0000   0.0000   0.0000   0.0000   0.0000   0.0000   0.0000
     0.0000   0.0000   0.0000   0.0000

          k =-0.5000-0.2887 0.0000 ( 75730 PWs)   bands (ev):

   -41.7214 -41.7214 -41.7197 -41.7191 -41.7191 -41.0391 -41.0390 -41.0387
   -41.0368 -41.0366 -41.0364 -41.0259 -41.0258 -41.0256 -41.0254 -41.0253
   -41.0251 -41.0233 -41.0231 -41.0228 -41.0073 -41.0072 -41.0069 -41.0065
   -41.0064 -41.0062 -41.0058 -41.0057 -41.0054 -41.0049 -41.0048 -41.0046
   -40.9995 -40.9994 -40.9992 -40.5364 -40.5364 -40.5363 -40.5267 -40.5266
   -40.5266 -40.5261 -40.5261 -40.5260 -40.4976 -40.4976 -40.4975 -40.4970
   -40.4969 -40.4968 -40.3607 -40.3607 -40.3606 -40.3580 -40.3580 -40.3579
   -40.3565 -40.3565 -40.3564 -40.3481 -40.3481 -40.3480 -40.3475 -40.3475
   -40.3475 -40.2557 -40.2556 -40.2554 -40.2547 -40.2547 -40.2524 -40.2522
   -40.2521 -40.2502 -40.2502 -14.2577 -14.2575 -14.2402 -14.2106 -14.2106
   -13.4290 -13.4085 -13.3994 -13.3869 -13.3850 -13.3836 -13.3828 -13.3814
   -13.3800 -13.3615 -13.3569 -13.3517 -13.3435 -13.3425 -13.3417 -12.9543
   -12.9542 -12.9391 -12.9391 -12.9388 -12.5904 -12.5902 -12.5738 -12.5738
   -12.5729 -12.4373 -12.4310 -12.4269 -12.4257 -12.4185 -12.4170 -12.4158
   -12.4156 -12.4108 -12.4102 -12.4071 -12.4064 -12.4060 -12.4053 -12.4013
    -8.4155  -8.0137  -7.9071  -7.8089  -7.7666  -7.7227  -7.6732  -7.4947
    -7.4471  -7.2854  -7.2103  -7.1469  -7.0780  -7.0498  -6.9951  -5.2444
    -4.0575  -3.9222  -3.5186  -3.3522  -3.1916  -3.1082  -2.9153  -2.8634
     1.0335   1.1079   1.2274   1.2760   1.3116   1.4760   1.6640   1.6876
     1.7249   1.7801   1.8028   1.8600   1.9036   1.9587   1.9700   2.0309
     2.1038   2.1399   2.3497   2.3672   2.4220   2.4529   2.4834   2.5436
     2.6496   2.6510   2.6847   2.7353   2.7658   2.8080   2.9140   2.9296
     3.0285   3.1068   3.1463   3.1627   3.1673   3.2447   3.3030   3.3547
     3.4159   3.6106   3.7291   3.7316   3.7658   4.0276   4.0663   4.0768
     6.2913   6.4499   6.8103   6.8729   6.9149   7.0119   7.0317   7.0988
     7.1465   7.2289   7.4016   7.4986   7.5559   7.6446   7.6483   7.7167
     7.7333   7.8068   7.8236   7.8553   7.8692   7.8735   8.0868   8.1446
     9.6986   9.8021  10.0960  10.1839  10.2629  10.2709  10.3512  10.4053
    10.7864  10.8268  10.9324  10.9489

     occupation numbers 
     1.0000   1.0000   1.0000   1.0000   1.0000   1.0000   1.0000   1.0000
     1.0000   1.0000   1.0000   1.0000   1.0000   1.0000   1.0000   1.0000
     1.0000   1.0000   1.0000   1.0000   1.0000   1.0000   1.0000   1.0000
     1.0000   1.0000   1.0000   1.0000   1.0000   1.0000   1.0000   1.0000
     1.0000   1.0000   1.0000   1.0000   1.0000   1.0000   1.0000   1.0000
     1.0000   1.0000   1.0000   1.0000   1.0000   1.0000   1.0000   1.0000
     1.0000   1.0000   1.0000   1.0000   1.0000   1.0000   1.0000   1.0000
     1.0000   1.0000   1.0000   1.0000   1.0000   1.0000   1.0000   1.0000
     1.0000   1.0000   1.0000   1.0000   1.0000   1.0000   1.0000   1.0000
     1.0000   1.0000   1.0000   1.0000   1.0000   1.0000   1.0000   1.0000
     1.0000   1.0000   1.0000   1.0000   1.0000   1.0000   1.0000   1.0000
     1.0000   1.0000   1.0000   1.0000   1.0000   1.0000   1.0000   1.0000
     1.0000   1.0000   1.0000   1.0000   1.0000   1.0000   1.0000   1.0000
     1.0000   1.0000   1.0000   1.0000   1.0000   1.0000   1.0000   1.0000
     1.0000   1.0000   1.0000   1.0000   1.0000   1.0000   1.0000   1.0000
     1.0000   1.0000   1.0000   1.0000   1.0000   1.0000   1.0000   1.0000
     1.0000   1.0000   1.0000   1.0000   1.0000   1.0000   1.0000   1.0000
     1.0000   1.0000   1.0000   1.0000   1.0000   1.0000   1.0000   1.0000
     1.0000   1.0000   1.0000   1.0000   1.0000   1.0000   1.0000   1.0000
     1.0000   1.0000   1.0000   1.0000   1.0000   1.0000   1.0000   1.0000
     1.0000   1.0000   1.0000   1.0000   1.0000   1.0000   1.0000   1.0000
     1.0000   1.0000   1.0000   1.0000   1.0000   1.0000   1.0000   1.0000
     1.0000   1.0000   1.0000   1.0000   1.0000   1.0000   1.0000   1.0000
     1.0000   0.9999   0.9934   0.9929   0.9820   0.2663   0.1523   0.1280
     0.0000   0.0000   0.0000   0.0000   0.0000   0.0000   0.0000   0.0000
     0.0000   0.0000   0.0000   0.0000   0.0000   0.0000   0.0000   0.0000
     0.0000   0.0000   0.0000   0.0000   0.0000   0.0000   0.0000   0.0000
     0.0000   0.0000   0.0000   0.0000   0.0000   0.0000   0.0000   0.0000
     0.0000   0.0000   0.0000   0.0000

     the Fermi energy is     3.9676 ev

!    total energy              =  -16522.18604556 Ry
     total all-electron energy =   -589787.657087 Ry
     estimated scf accuracy    <       0.00000003 Ry
     smearing contrib. (-TS)   =      -0.01135765 Ry
     internal energy E=F+TS    =  -16522.17468791 Ry

     The total energy is F=E-TS. E is the sum of the following terms:
     one-electron contribution =   -2884.12701321 Ry
     hartree contribution      =    1619.72594540 Ry
     xc contribution           =   -1112.35668332 Ry
     ewald contribution        =   -2434.09035852 Ry
     one-center paw contrib.   =  -11711.32657826 Ry
      -> PAW hartree energy AE =     191.43033855 Ry
      -> PAW hartree energy PS =    -191.90136264 Ry
      -> PAW xc energy AE      =   -1596.81272663 Ry
      -> PAW xc energy PS      =      66.57872087 Ry
      -> total E_H with PAW    =    1619.25492130 Ry
      -> total E_XC with PAW   =   -2642.59068908 Ry

     convergence has been achieved in  17 iterations


     -----------------------------------------------
     Non-local corr. energy    =      11.19840916 Ry
     -----------------------------------------------


     Forces acting on atoms (cartesian axes, Ry/au):

     atom    1 type  1   force =    -0.00000063    0.00226258   -0.00373582
     atom    2 type  1   force =     0.00000075    0.01912100    0.01183580
     atom    3 type  1   force =     0.00195543   -0.00112777   -0.00373280
     atom    4 type  1   force =     0.01653480   -0.00954874    0.01184199
     atom    5 type  1   force =    -0.00000634    0.00000260   -0.00749564
     atom    6 type  1   force =    -0.00000581    0.00000006    0.00103554
     atom    7 type  1   force =    -0.00196026   -0.00112783   -0.00373783
     atom    8 type  1   force =    -0.01655857   -0.00956503    0.01183803
     atom    9 type  2   force =    -0.00001495    0.00001344    0.00135197
     atom   10 type  2   force =     0.00358376    0.00202663    0.00284565
     atom   11 type  2   force =    -0.00198284   -0.00114800    0.00115175
     atom   12 type  2   force =     0.00005355   -0.00412101    0.00284088
     atom   13 type  2   force =     0.00000345    0.00229861    0.00113922
     atom   14 type  2   force =    -0.00358109    0.00208892    0.00287428
     atom   15 type  2   force =     0.00196358   -0.00112762    0.00112861
     atom   16 type  2   force =     0.00281374   -0.00163277    0.00929007
     atom   17 type  2   force =     0.00480716   -0.00278780   -0.00466629
     atom   18 type  2   force =    -0.00000667    0.00323081    0.00930431
     atom   19 type  2   force =    -0.00005745    0.00551371   -0.00461288
     atom   20 type  2   force =    -0.00281004   -0.00161934    0.00928972
     atom   21 type  2   force =    -0.00481972   -0.00271576   -0.00463009
     atom   22 type  2   force =     0.00002193   -0.00001032   -0.00088698
     atom   23 type  2   force =     0.00008212   -0.00002987   -0.00877616
     atom   24 type  1   force =    -0.00001589    0.00000349   -0.03549335
     The non-local contrib.  to forces
     atom    1 type  1   force =     0.00003649    0.00381070   -0.00686018
     atom    2 type  1   force =    -0.00000139    0.07446748    0.06340257
     atom    3 type  1   force =     0.00335921   -0.00196660   -0.00688922
     atom    4 type  1   force =     0.06444000   -0.03722359    0.06336216
     atom    5 type  1   force =     0.00003055   -0.00003882   -0.02525806
     atom    6 type  1   force =    -0.00000774   -0.00000923    0.00122144
     atom    7 type  1   force =    -0.00330252   -0.00197454   -0.00686823
     atom    8 type  1   force =    -0.06450098   -0.03725706    0.06340474
     atom    9 type  2   force =    -0.00000720    0.00001281    0.23686475
     atom   10 type  2   force =    -0.00003326   -0.00003428    0.26587864
     atom   11 type  2   force =    -0.00072815   -0.00039367    0.23642073
     atom   12 type  2   force =     0.00003165    0.00005329    0.26587540
     atom   13 type  2   force =    -0.00000785    0.00085029    0.23642226
     atom   14 type  2   force =     0.00003727    0.00000040    0.26590064
     atom   15 type  2   force =     0.00070327   -0.00038734    0.23641572
     atom   16 type  2   force =     0.02890903   -0.01668016   -0.17895002
     atom   17 type  2   force =     0.00257373   -0.00148705   -0.27470549
     atom   18 type  2   force =    -0.00002324    0.03341543   -0.17893061
     atom   19 type  2   force =    -0.00005054    0.00295529   -0.27467821
     atom   20 type  2   force =    -0.02895298   -0.01667740   -0.17891795
     atom   21 type  2   force =    -0.00256334   -0.00143033   -0.27468109
     atom   22 type  2   force =     0.00000828    0.00000837   -0.23099712
     atom   23 type  2   force =     0.00007437   -0.00001883   -0.29993731
     atom   24 type  1   force =     0.00002343   -0.00000294    0.03246904
     The ionic contribution  to forces
     atom    1 type  1   force =    -0.00073265   -0.10226319    0.51675655
     atom    2 type  1   force =     0.00004888   -1.36992009   -1.36024182
     atom    3 type  1   force =    -0.08965194    0.05240417    0.51700243
     atom    4 type  1   force =    -1.18619419    0.68528737   -1.35996886
     atom    5 type  1   force =    -0.00064293    0.00081256    0.41982668
     atom    6 type  1   force =     0.00010832    0.00013533   -0.60109459
     atom    7 type  1   force =     0.08857603    0.05262926    0.51680177
     atom    8 type  1   force =     1.18653088    0.68542535   -1.36010808
     atom    9 type  2   force =    -0.00078895   -0.00000803  -14.07766388
     atom   10 type  2   force =    -0.00051809   -0.00035606  -14.07709177
     atom   11 type  2   force =    -0.00059434   -0.00029400  -14.07715678
     atom   12 type  2   force =     0.00008830    0.00036079  -14.07817875
     atom   13 type  2   force =     0.00002300    0.00041844  -14.07812499
     atom   14 type  2   force =     0.00025366    0.00003962  -14.07760536
     atom   15 type  2   force =     0.00020577    0.00013739  -14.07761795
     atom   16 type  2   force =     0.43763936   -0.25370262   15.35946159
     atom   17 type  2   force =     0.37554553   -0.21759485   12.86506176
     atom   18 type  2   force =     0.00110033    0.50383238   15.36021036
     atom   19 type  2   force =     0.00025940    0.43382847   12.86569275
     atom   20 type  2   force =    -0.43585210   -0.25375289   15.35910649
     atom   21 type  2   force =    -0.37535133   -0.21759489   12.86459316
     atom   22 type  2   force =     0.00067372   -0.00024129   14.91933271
     atom   23 type  2   force =    -0.00013660    0.00047623   13.25437792
     atom   24 type  1   force =    -0.00059005   -0.00005945  -11.59337135
     The local contribution  to forces
     atom    1 type  1   force =     0.00069245    0.10095464   -0.51416447
     atom    2 type  1   force =    -0.00006131    1.32039224    1.31288270
     atom    3 type  1   force =     0.08845814   -0.05168494   -0.51437735
     atom    4 type  1   force =     1.14333068   -0.66053055    1.31267206
     atom    5 type  1   force =     0.00061356   -0.00077459   -0.40342052
     atom    6 type  1   force =    -0.00009583   -0.00011683    0.60102707
     atom    7 type  1   force =    -0.08744035   -0.05189326   -0.51421069
     atom    8 type  1   force =    -1.14362157   -0.66063040    1.31274847
     atom    9 type  2   force =     0.00080169   -0.00000696   13.84767377
     atom   10 type  2   force =     0.00421263    0.00260268   13.82004609
     atom   11 type  2   force =    -0.00085832   -0.00053501   13.84732466
     atom   12 type  2   force =    -0.00023029   -0.00468086   13.82110888
     atom   13 type  2   force =    -0.00004842    0.00123395   13.84826433
     atom   14 type  2   force =    -0.00396355    0.00205388   13.82047375
     atom   15 type  2   force =     0.00125458   -0.00100054   13.84780599
     atom   16 type  2   force =    -0.46307382    0.26837479  -15.17503185
     atom   17 type  2   force =    -0.37315159    0.21624237  -12.60114715
     atom   18 type  2   force =    -0.00103401   -0.53325611  -15.17580257
     atom   19 type  2   force =    -0.00006874   -0.43099562  -12.60186698
     atom   20 type  2   force =     0.46137338    0.26839545  -15.17474231
     atom   21 type  2   force =     0.37293116    0.21604602  -12.60076952
     atom   22 type  2   force =    -0.00069221    0.00023126  -14.69432982
     atom   23 type  2   force =    -0.00005260   -0.00041497  -12.97021584
     atom   24 type  1   force =     0.00068017    0.00002179   11.51866323
     The core correction contribution to forces
     atom    1 type  1   force =    -0.00000008   -0.00031758    0.00052968
     atom    2 type  1   force =    -0.00000039   -0.00571315   -0.00421792
     atom    3 type  1   force =    -0.00027544    0.00015908    0.00052973
     atom    4 type  1   force =    -0.00494620    0.00285570   -0.00421518
     atom    5 type  1   force =    -0.00000018    0.00000012    0.00134940
     atom    6 type  1   force =     0.00000033    0.00000042   -0.00012092
     atom    7 type  1   force =     0.00027518    0.00015920    0.00052940
     atom    8 type  1   force =     0.00494831    0.00285717   -0.00421775
     atom    9 type  2   force =    -0.00000125    0.00000251   -0.00533046
     atom   10 type  2   force =    -0.00016162   -0.00009134   -0.00597499
     atom   11 type  2   force =     0.00010802    0.00006558   -0.00533861
     atom   12 type  2   force =    -0.00000059    0.00018826   -0.00597275
     atom   13 type  2   force =    -0.00000123   -0.00012361   -0.00533778
     atom   14 type  2   force =     0.00016008   -0.00009092   -0.00597368
     atom   15 type  2   force =    -0.00011005    0.00006537   -0.00533790
     atom   16 type  2   force =    -0.00068531    0.00039715    0.00372338
     atom   17 type  2   force =    -0.00025475    0.00014881    0.00619488
     atom   18 type  2   force =     0.00000059   -0.00079012    0.00372105
     atom   19 type  2   force =     0.00000085   -0.00029041    0.00619242
     atom   20 type  2   force =     0.00068662    0.00039710    0.00372081
     atom   21 type  2   force =     0.00025200    0.00014818    0.00619481
     atom   22 type  2   force =    -0.00000012    0.00000175    0.00518674
     atom   23 type  2   force =    -0.00000201    0.00000277    0.00706126
     atom   24 type  1   force =    -0.00000008   -0.00000002    0.00678391
     The Hubbard contrib.    to forces
     atom    1 type  1   force =     0.00000000    0.00000000    0.00000000
     atom    2 type  1   force =     0.00000000    0.00000000    0.00000000
     atom    3 type  1   force =     0.00000000    0.00000000    0.00000000
     atom    4 type  1   force =     0.00000000    0.00000000    0.00000000
     atom    5 type  1   force =     0.00000000    0.00000000    0.00000000
     atom    6 type  1   force =     0.00000000    0.00000000    0.00000000
     atom    7 type  1   force =     0.00000000    0.00000000    0.00000000
     atom    8 type  1   force =     0.00000000    0.00000000    0.00000000
     atom    9 type  2   force =     0.00000000    0.00000000    0.00000000
     atom   10 type  2   force =     0.00000000    0.00000000    0.00000000
     atom   11 type  2   force =     0.00000000    0.00000000    0.00000000
     atom   12 type  2   force =     0.00000000    0.00000000    0.00000000
     atom   13 type  2   force =     0.00000000    0.00000000    0.00000000
     atom   14 type  2   force =     0.00000000    0.00000000    0.00000000
     atom   15 type  2   force =     0.00000000    0.00000000    0.00000000
     atom   16 type  2   force =     0.00000000    0.00000000    0.00000000
     atom   17 type  2   force =     0.00000000    0.00000000    0.00000000
     atom   18 type  2   force =     0.00000000    0.00000000    0.00000000
     atom   19 type  2   force =     0.00000000    0.00000000    0.00000000
     atom   20 type  2   force =     0.00000000    0.00000000    0.00000000
     atom   21 type  2   force =     0.00000000    0.00000000    0.00000000
     atom   22 type  2   force =     0.00000000    0.00000000    0.00000000
     atom   23 type  2   force =     0.00000000    0.00000000    0.00000000
     atom   24 type  1   force =     0.00000000    0.00000000    0.00000000
     The SCF correction term to forces
     atom    1 type  1   force =     0.00000486    0.00008061    0.00002194
     atom    2 type  1   force =     0.00001665   -0.00010289    0.00002961
     atom    3 type  1   force =     0.00006715   -0.00003686    0.00002096
     atom    4 type  1   force =    -0.00009380    0.00006494    0.00001115
     atom    5 type  1   force =    -0.00000566    0.00000593    0.00002619
     atom    6 type  1   force =    -0.00000920   -0.00000701    0.00002189
     atom    7 type  1   force =    -0.00006690   -0.00004588    0.00002924
     atom    8 type  1   force =     0.00008647    0.00004252    0.00002998
     atom    9 type  2   force =    -0.00001756    0.00001572   -0.00017289
     atom   10 type  2   force =     0.00008580   -0.00009177    0.00000700
     atom   11 type  2   force =     0.00009164    0.00001170   -0.00007892
     atom   12 type  2   force =     0.00016616   -0.00003988    0.00002742
     atom   13 type  2   force =     0.00003964   -0.00007786   -0.00006528
     atom   14 type  2   force =    -0.00006685    0.00008854    0.00009827
     atom   15 type  2   force =    -0.00008831    0.00006011   -0.00011791
     atom   16 type  2   force =     0.00002616   -0.00001934    0.00010630
     atom   17 type  2   force =     0.00009593   -0.00009448   -0.00005095
     atom   18 type  2   force =    -0.00004865    0.00003183    0.00012542
     atom   19 type  2   force =    -0.00019673    0.00001858    0.00006647
     atom   20 type  2   force =    -0.00006327    0.00002100    0.00014201
     atom   21 type  2   force =    -0.00008652    0.00011786    0.00005188
     atom   22 type  2   force =     0.00003395   -0.00000780   -0.00006015
     atom   23 type  2   force =     0.00020064   -0.00007246   -0.00004285
     atom   24 type  1   force =    -0.00012768    0.00004672   -0.00001884

     Total force =     0.059266     Total SCF correction =     0.000650


     Computing stress (Cartesian axis) and pressure



     -----------------------------------------------
     Non-local corr. energy    =      11.19840916 Ry
     -----------------------------------------------

          total   stress  (Ry/bohr**3)                   (kbar)     P=      -30.74
  -0.00020164  -0.00000001   0.00000002          -29.66       -0.00        0.00
  -0.00000001  -0.00020166  -0.00000002           -0.00      -29.67       -0.00
   0.00000002  -0.00000002  -0.00022354            0.00       -0.00      -32.88

     kinetic stress (kbar)  15270.89     -0.00      0.01
                               -0.00  15270.89     -0.00
                                0.01     -0.00  15276.64

     local   stress (kbar)  -7243.45      0.50     -0.45
                                0.50  -7242.59      0.36
                               -0.45      0.36   1425.05

     nonloc. stress (kbar)  -1518.50     -0.00      0.01
                               -0.00  -1518.50     -0.00
                                0.01     -0.00  -1526.95

     hartree stress (kbar)  11677.90     -0.19      0.18
                               -0.19  11677.57     -0.14
                                0.18     -0.14   7765.59

     exc-cor stress (kbar)   6808.89     -0.00      0.00
                               -0.00   6808.88     -0.00
                                0.00     -0.00   6807.85

     corecor stress (kbar) -11102.84      0.00     -0.00
                                0.00 -11102.84      0.00
                               -0.00      0.00 -11102.74

     ewald   stress (kbar) -14003.49     -0.31      0.27
                               -0.31 -14004.03     -0.22
                                0.27     -0.22 -18760.57

     hubbard stress (kbar)      0.00      0.00      0.00
                                0.00      0.00      0.00
                                0.00      0.00      0.00

     DFT-D   stress (kbar)      0.00      0.00      0.00
                                0.00      0.00      0.00
                                0.00      0.00      0.00

     XDM     stress (kbar)      0.00      0.00      0.00
                                0.00      0.00      0.00
                                0.00      0.00      0.00

     dft-nl  stress (kbar)     80.95      0.00     -0.00
                                0.00     80.95      0.00
                               -0.00      0.00     82.24

     TS-vdW  stress (kbar)      0.00      0.00      0.00
                                0.00      0.00      0.00
                                0.00      0.00      0.00

     MDB     stress (kbar)      0.00      0.00      0.00
                                0.00      0.00      0.00
                                0.00      0.00      0.00

     3D-RISM stress (kbar)      0.00      0.00      0.00
                                0.00      0.00      0.00
                                0.00      0.00      0.00


     BFGS Geometry Optimization
     Energy error            =      0.0E+00 Ry
     Gradient error          =      3.5E-02 Ry/Bohr

     number of scf cycles    =   1
     number of bfgs steps    =   0

     energy             new  =  -16522.1860455619 Ry

     new trust radius        =       0.0354933499 bohr
     new conv_thr            =       0.0000001000 Ry


ATOMIC_POSITIONS (angstrom)
Pb            2.3557943416        4.0809161548       14.7533877842
Pb            2.3556988238        4.0899223982        7.3839154245
Pb            0.0011792241        8.1591819588       14.7533116890
Pb            0.0087980442        8.1548109249        7.3838410071
Pb            7.0670603376        4.0797020798       14.7514595304
Pb            7.0669643687        4.0797858869        7.3782615329
Pb            4.7103761450        8.1591637808       14.7533703823
Pb            4.7025548051        8.1547841581        7.3839002714
I             2.3558239323        1.3596879612       12.8610722955
I             0.0019818191        5.4408983410        5.4840725222
I            -0.0008676508        5.4391332498       12.8608886552
I             7.0670329519        1.3575671069        5.4842090472
I             7.0671026910        1.3608790728       12.8610210752
I             4.7094593595        5.4409131577        5.4841490315
I             4.7124897201        5.4391258894       12.8609377696
I             0.0014568475        2.7190407543        1.8998918296
I             0.0026079697        2.7183443876        9.2702189493
I            -2.3556858706        6.8016743483        1.8998216735
I            -2.3556164914        6.8027972594        9.2701695189
I             4.7097498930        2.7190297171        1.8999530041
I             4.7087826621        2.7183643628        9.2702994629
I             2.3555982842        6.7999410700        1.8944900366
I             2.3557263827        6.7998455759        9.2680277670
Pb            2.3557271862        1.3597678465        5.4638620919



     Writing config-only to output data dir ./PbI2.save/
     NEW-OLD atomic charge density approx. for the potential

     Check: negative core charge=   -0.000001


     -----------------------------------------------
     Non-local corr. energy    =      11.19832938 Ry
     -----------------------------------------------


     total cpu time spent up to now is      540.1 secs

     Self-consistent Calculation

     iteration #  1     ecut=    70.00 Ry     beta= 0.70
     Davidson diagonalization with overlap

---- Real-time Memory Report at c_bands before calling an iterative solver
           527 MiB given to the printing process from OS
             0 MiB allocation reported by mallinfo(arena+hblkhd)
       2001125 MiB available memory on the node where the printing process lives
------------------
     ethr =  1.00E-06,  avg # of iterations =  7.3

     Threshold (ethr) on eigenvalues was too large:
     Diagonalizing with lowered threshold

     Davidson diagonalization with overlap

---- Real-time Memory Report at c_bands before calling an iterative solver
           528 MiB given to the printing process from OS
             0 MiB allocation reported by mallinfo(arena+hblkhd)
       2001202 MiB available memory on the node where the printing process lives
------------------
     ethr =  7.44E-08,  avg # of iterations = 14.5


     -----------------------------------------------
     Non-local corr. energy    =      11.19834513 Ry
     -----------------------------------------------


     total cpu time spent up to now is      590.4 secs

     total energy              =  -16522.18936927 Ry
     estimated scf accuracy    <       0.00027880 Ry

     iteration #  2     ecut=    70.00 Ry     beta= 0.70
     Davidson diagonalization with overlap

---- Real-time Memory Report at c_bands before calling an iterative solver
           528 MiB given to the printing process from OS
             0 MiB allocation reported by mallinfo(arena+hblkhd)
       2001099 MiB available memory on the node where the printing process lives
------------------
     ethr =  7.36E-08,  avg # of iterations = 13.0


     -----------------------------------------------
     Non-local corr. energy    =      11.19815544 Ry
     -----------------------------------------------


     total cpu time spent up to now is      621.3 secs

     total energy              =  -16522.18880279 Ry
     estimated scf accuracy    <       0.00708491 Ry

     iteration #  3     ecut=    70.00 Ry     beta= 0.70
     Davidson diagonalization with overlap

---- Real-time Memory Report at c_bands before calling an iterative solver
           528 MiB given to the printing process from OS
             0 MiB allocation reported by mallinfo(arena+hblkhd)
       2001104 MiB available memory on the node where the printing process lives
------------------
     ethr =  7.36E-08,  avg # of iterations = 14.5


     -----------------------------------------------
     Non-local corr. energy    =      11.19820894 Ry
     -----------------------------------------------


     total cpu time spent up to now is      650.4 secs

     total energy              =  -16522.18943518 Ry
     estimated scf accuracy    <       0.00095770 Ry

     iteration #  4     ecut=    70.00 Ry     beta= 0.70
     Davidson diagonalization with overlap

---- Real-time Memory Report at c_bands before calling an iterative solver
           528 MiB given to the printing process from OS
             0 MiB allocation reported by mallinfo(arena+hblkhd)
       2001526 MiB available memory on the node where the printing process lives
------------------
     ethr =  7.36E-08,  avg # of iterations = 14.5


     -----------------------------------------------
     Non-local corr. energy    =      11.19821088 Ry
     -----------------------------------------------


     total cpu time spent up to now is      677.3 secs

     total energy              =  -16522.18946081 Ry
     estimated scf accuracy    <       0.00021311 Ry

     iteration #  5     ecut=    70.00 Ry     beta= 0.70
     Davidson diagonalization with overlap

---- Real-time Memory Report at c_bands before calling an iterative solver
           528 MiB given to the printing process from OS
             0 MiB allocation reported by mallinfo(arena+hblkhd)
       2001530 MiB available memory on the node where the printing process lives
------------------
     ethr =  5.62E-08,  avg # of iterations = 15.0


     -----------------------------------------------
     Non-local corr. energy    =      11.19824802 Ry
     -----------------------------------------------


     total cpu time spent up to now is      702.7 secs

     total energy              =  -16522.18946233 Ry
     estimated scf accuracy    <       0.00004454 Ry

     iteration #  6     ecut=    70.00 Ry     beta= 0.70
     Davidson diagonalization with overlap

---- Real-time Memory Report at c_bands before calling an iterative solver
           528 MiB given to the printing process from OS
             0 MiB allocation reported by mallinfo(arena+hblkhd)
       2001500 MiB available memory on the node where the printing process lives
------------------
     ethr =  1.18E-08,  avg # of iterations = 14.5


     -----------------------------------------------
     Non-local corr. energy    =      11.19834261 Ry
     -----------------------------------------------


     total cpu time spent up to now is      726.5 secs

     total energy              =  -16522.18944933 Ry
     estimated scf accuracy    <       0.00001586 Ry

     iteration #  7     ecut=    70.00 Ry     beta= 0.70
     Davidson diagonalization with overlap

---- Real-time Memory Report at c_bands before calling an iterative solver
           528 MiB given to the printing process from OS
             0 MiB allocation reported by mallinfo(arena+hblkhd)
       2001474 MiB available memory on the node where the printing process lives
------------------
     ethr =  4.19E-09,  avg # of iterations = 11.5


     -----------------------------------------------
     Non-local corr. energy    =      11.19837850 Ry
     -----------------------------------------------


     total cpu time spent up to now is      747.8 secs

     total energy              =  -16522.18944917 Ry
     estimated scf accuracy    <       0.00000148 Ry

     iteration #  8     ecut=    70.00 Ry     beta= 0.70
     Davidson diagonalization with overlap

---- Real-time Memory Report at c_bands before calling an iterative solver
           528 MiB given to the printing process from OS
             0 MiB allocation reported by mallinfo(arena+hblkhd)
       2001454 MiB available memory on the node where the printing process lives
------------------
     ethr =  3.90E-10,  avg # of iterations =  9.5


     -----------------------------------------------
     Non-local corr. energy    =      11.19843735 Ry
     -----------------------------------------------


     total cpu time spent up to now is      778.6 secs

     total energy              =  -16522.18944984 Ry
     estimated scf accuracy    <       0.00000046 Ry

     iteration #  9     ecut=    70.00 Ry     beta= 0.70
     Davidson diagonalization with overlap

---- Real-time Memory Report at c_bands before calling an iterative solver
           528 MiB given to the printing process from OS
             0 MiB allocation reported by mallinfo(arena+hblkhd)
       2001431 MiB available memory on the node where the printing process lives
------------------
     ethr =  1.20E-10,  avg # of iterations =  3.8


     -----------------------------------------------
     Non-local corr. energy    =      11.19850702 Ry
     -----------------------------------------------


     total cpu time spent up to now is      792.2 secs

     total energy              =  -16522.18944985 Ry
     estimated scf accuracy    <       0.00000013 Ry

     iteration # 10     ecut=    70.00 Ry     beta= 0.70
     Davidson diagonalization with overlap

---- Real-time Memory Report at c_bands before calling an iterative solver
           528 MiB given to the printing process from OS
             0 MiB allocation reported by mallinfo(arena+hblkhd)
       2001398 MiB available memory on the node where the printing process lives
------------------
     c_bands:  1 eigenvalues not converged
     ethr =  3.49E-11,  avg # of iterations = 14.3


     -----------------------------------------------
     Non-local corr. energy    =      11.19848795 Ry
     -----------------------------------------------


     total cpu time spent up to now is      820.8 secs

     End of self-consistent calculation

          k = 0.0000 0.0000 0.0000 ( 75645 PWs)   bands (ev):

   -41.7474 -41.7474 -41.7447 -41.7445 -41.7444 -41.0347 -41.0346 -41.0345
   -41.0322 -41.0321 -41.0320 -41.0229 -41.0228 -41.0226 -41.0223 -41.0222
   -41.0220 -41.0192 -41.0190 -41.0190 -41.0033 -41.0033 -41.0031 -41.0029
   -41.0027 -41.0027 -41.0020 -41.0020 -41.0018 -41.0015 -41.0013 -41.0013
   -40.9965 -40.9965 -40.9963 -40.5276 -40.5276 -40.5276 -40.5175 -40.5174
   -40.5174 -40.5170 -40.5170 -40.5169 -40.4871 -40.4871 -40.4870 -40.4864
   -40.4864 -40.4863 -40.3655 -40.3655 -40.3654 -40.3629 -40.3628 -40.3627
   -40.3610 -40.3610 -40.3609 -40.3525 -40.3524 -40.3523 -40.3519 -40.3518
   -40.3517 -40.2454 -40.2454 -40.2454 -40.2452 -40.2450 -40.2450 -40.2440
   -40.2440 -40.2434 -40.2434 -14.2671 -14.2670 -14.2502 -14.2260 -14.2260
   -13.4337 -13.3974 -13.3968 -13.3833 -13.3814 -13.3811 -13.3758 -13.3756
   -13.3739 -13.3558 -13.3552 -13.3408 -13.3386 -13.3360 -13.3355 -12.9541
   -12.9541 -12.9392 -12.9392 -12.9392 -12.5947 -12.5947 -12.5779 -12.5779
   -12.5769 -12.4328 -12.4328 -12.4287 -12.4176 -12.4139 -12.4115 -12.4114
   -12.4077 -12.4077 -12.4068 -12.4041 -12.4041 -12.3972 -12.3972 -12.3962
    -8.4874  -8.0524  -7.8126  -7.7851  -7.7850  -7.6926  -7.6925  -7.6401
    -7.2668  -7.2667  -7.2469  -7.0910  -7.0909  -7.0560  -6.9881  -5.1655
    -4.0667  -4.0663  -3.6360  -3.2380  -3.2128  -3.1150  -3.1149  -2.6845
     0.7492   0.7493   0.8033   1.4724   1.4725   1.4756   1.6691   1.6910
     1.6911   1.7257   1.7258   1.7307   2.1962   2.3699   2.3699   2.4179
     2.4247   2.4287   2.4288   2.4570   2.4571   2.5227   2.5227   2.5591
     2.6124   2.6124   2.6296   2.7256   2.7567   2.7568   2.9994   3.1188
     3.1189   3.1723   3.1726   3.2260   3.2863   3.3159   3.3159   3.3586
     3.3917   3.3917   3.4964   3.4965   3.6710   4.0597   4.0599   4.1666
     5.7937   6.4149   6.4150   6.5287   6.6047   6.6047   6.8382   7.0916
     7.1148   7.1151   7.3095   7.3096   7.3137   7.3425   7.3427   7.5003
     7.5876   7.5878   7.9025   7.9300   7.9301   8.3398   8.3399   8.3403
     9.1324   9.1325   9.2245   9.9687  10.0208  10.0209  10.0262  10.5452
    11.1738  11.1738  11.3549  11.3704

     occupation numbers 
     1.0000   1.0000   1.0000   1.0000   1.0000   1.0000   1.0000   1.0000
     1.0000   1.0000   1.0000   1.0000   1.0000   1.0000   1.0000   1.0000
     1.0000   1.0000   1.0000   1.0000   1.0000   1.0000   1.0000   1.0000
     1.0000   1.0000   1.0000   1.0000   1.0000   1.0000   1.0000   1.0000
     1.0000   1.0000   1.0000   1.0000   1.0000   1.0000   1.0000   1.0000
     1.0000   1.0000   1.0000   1.0000   1.0000   1.0000   1.0000   1.0000
     1.0000   1.0000   1.0000   1.0000   1.0000   1.0000   1.0000   1.0000
     1.0000   1.0000   1.0000   1.0000   1.0000   1.0000   1.0000   1.0000
     1.0000   1.0000   1.0000   1.0000   1.0000   1.0000   1.0000   1.0000
     1.0000   1.0000   1.0000   1.0000   1.0000   1.0000   1.0000   1.0000
     1.0000   1.0000   1.0000   1.0000   1.0000   1.0000   1.0000   1.0000
     1.0000   1.0000   1.0000   1.0000   1.0000   1.0000   1.0000   1.0000
     1.0000   1.0000   1.0000   1.0000   1.0000   1.0000   1.0000   1.0000
     1.0000   1.0000   1.0000   1.0000   1.0000   1.0000   1.0000   1.0000
     1.0000   1.0000   1.0000   1.0000   1.0000   1.0000   1.0000   1.0000
     1.0000   1.0000   1.0000   1.0000   1.0000   1.0000   1.0000   1.0000
     1.0000   1.0000   1.0000   1.0000   1.0000   1.0000   1.0000   1.0000
     1.0000   1.0000   1.0000   1.0000   1.0000   1.0000   1.0000   1.0000
     1.0000   1.0000   1.0000   1.0000   1.0000   1.0000   1.0000   1.0000
     1.0000   1.0000   1.0000   1.0000   1.0000   1.0000   1.0000   1.0000
     1.0000   1.0000   1.0000   1.0000   1.0000   1.0000   1.0000   1.0000
     1.0000   1.0000   1.0000   1.0000   1.0000   1.0000   1.0000   1.0000
     1.0000   1.0000   1.0000   1.0000   1.0000   1.0000   1.0000   1.0000
     1.0000   1.0000   1.0000   1.0000   0.9993   0.1988   0.1982   0.0251
     0.0000   0.0000   0.0000   0.0000   0.0000   0.0000   0.0000   0.0000
     0.0000   0.0000   0.0000   0.0000   0.0000   0.0000   0.0000   0.0000
     0.0000   0.0000   0.0000   0.0000   0.0000   0.0000   0.0000   0.0000
     0.0000   0.0000   0.0000   0.0000   0.0000   0.0000   0.0000   0.0000
     0.0000   0.0000   0.0000   0.0000

          k = 0.0000-0.5774 0.0000 ( 75730 PWs)   bands (ev):

   -41.7474 -41.7474 -41.7447 -41.7445 -41.7444 -41.0347 -41.0346 -41.0345
   -41.0322 -41.0321 -41.0320 -41.0228 -41.0228 -41.0226 -41.0223 -41.0222
   -41.0220 -41.0192 -41.0190 -41.0190 -41.0033 -41.0033 -41.0031 -41.0029
   -41.0027 -41.0027 -41.0020 -41.0020 -41.0018 -41.0015 -41.0013 -41.0013
   -40.9965 -40.9965 -40.9963 -40.5276 -40.5276 -40.5276 -40.5175 -40.5174
   -40.5174 -40.5170 -40.5170 -40.5169 -40.4871 -40.4871 -40.4870 -40.4864
   -40.4864 -40.4863 -40.3655 -40.3655 -40.3654 -40.3629 -40.3628 -40.3627
   -40.3610 -40.3610 -40.3609 -40.3525 -40.3524 -40.3523 -40.3519 -40.3518
   -40.3517 -40.2454 -40.2454 -40.2454 -40.2452 -40.2450 -40.2450 -40.2440
   -40.2440 -40.2434 -40.2434 -14.2672 -14.2671 -14.2502 -14.2260 -14.2260
   -13.4238 -13.4063 -13.3968 -13.3822 -13.3802 -13.3787 -13.3778 -13.3764
   -13.3750 -13.3560 -13.3512 -13.3460 -13.3377 -13.3365 -13.3357 -12.9544
[...]
     atom    2 type  1   force =     0.00001033    0.08397024    0.07618836
     atom    3 type  1   force =     0.01826836   -0.01055064   -0.02867198
     atom    4 type  1   force =     0.07275001   -0.04200989    0.07619268
     atom    5 type  1   force =     0.00000381    0.00001632   -0.14721764
     atom    6 type  1   force =     0.00000509   -0.00000170   -0.01369844
     atom    7 type  1   force =    -0.01825165   -0.01053948   -0.02863624
     atom    8 type  1   force =    -0.07272092   -0.04200002    0.07616791
     atom    9 type  2   force =     0.00000331   -0.00000441    0.26528380
     atom   10 type  2   force =    -0.01200647   -0.00692634    0.22560643
     atom   11 type  2   force =    -0.02327525   -0.01341011    0.28167587
     atom   12 type  2   force =     0.00000320    0.01386809    0.22560531
     atom   13 type  2   force =    -0.00001017    0.02685613    0.28167216
     atom   14 type  2   force =     0.01199714   -0.00691941    0.22560923
     atom   15 type  2   force =     0.02327310   -0.01342122    0.28166626
     atom   16 type  2   force =     0.16034768   -0.09256523   -0.11543901
     atom   17 type  2   force =     0.00802235   -0.00462533   -0.23797041
     atom   18 type  2   force =    -0.00000608    0.18515796   -0.11542139
     atom   19 type  2   force =    -0.00000557    0.00927007   -0.23796566
     atom   20 type  2   force =    -0.16036585   -0.09256737   -0.11542194
     atom   21 type  2   force =    -0.00803193   -0.00462212   -0.23796652
     atom   22 type  2   force =     0.00000475   -0.00000713   -0.26878891
     atom   23 type  2   force =    -0.00000347   -0.00000658   -0.23040141
     atom   24 type  1   force =     0.00002133   -0.00000802   -0.11151764
     The ionic contribution  to forces
     atom    1 type  1   force =     0.00041689    0.36228813   -1.27993040
     atom    2 type  1   force =     0.00001864   -6.16703570   -3.14096960
     atom    3 type  1   force =     0.31201692   -0.18016287   -1.28011432
     atom    4 type  1   force =    -5.34179545    3.08439577   -3.14135263
     atom    5 type  1   force =    -0.00038768   -0.00039337    1.39622346
     atom    6 type  1   force =    -0.00018284   -0.00016591   -0.23300357
     atom    7 type  1   force =    -0.31250057   -0.18086787   -1.28081936
     atom    8 type  1   force =     5.34100534    3.08377701   -3.14014768
     atom    9 type  2   force =    -0.00017837   -0.00012302  -16.54984170
     atom   10 type  2   force =     0.00109334   -0.00097828  -10.95996225
     atom   11 type  2   force =     0.93088208    0.53662086  -15.84264703
     atom   12 type  2   force =     0.00051824    0.00053239  -10.95974565
     atom   13 type  2   force =     0.00038076   -1.07391418  -15.84261042
     atom   14 type  2   force =    -0.00114000   -0.00029789  -10.95912107
     atom   15 type  2   force =    -0.93109861    0.53718991  -15.84297022
     atom   16 type  2   force =    -6.11823365    3.53260891   11.19934591
     atom   17 type  2   force =     1.19991327   -0.69307466   10.76342354
     atom   18 type  2   force =     0.00026703   -7.06508094   11.19761517
     atom   19 type  2   force =    -0.00112519    1.38463607   10.76436986
     atom   20 type  2   force =     6.11874849    3.53259835   11.19829051
     atom   21 type  2   force =    -1.19984278   -0.69181534   10.76415137
     atom   22 type  2   force =     0.00004101   -0.00059657   15.18741717
     atom   23 type  2   force =     0.00165408   -0.00093956   13.56427515
     atom   24 type  1   force =    -0.00047096    0.00079878   14.41812377
     The local contribution  to forces
     atom    1 type  1   force =    -0.00041321   -0.38316062    1.30738484
     atom    2 type  1   force =    -0.00003064    6.08584032    3.06723933
     atom    3 type  1   force =    -0.33014503    0.19063350    1.30762174
     atom    4 type  1   force =     5.27144307   -3.04376986    3.06761437
     atom    5 type  1   force =     0.00038359    0.00037714   -1.25251020
     atom    6 type  1   force =     0.00017682    0.00016898    0.24697876
     atom    7 type  1   force =     0.33061019    0.19132457    1.30828512
     atom    8 type  1   force =    -5.27068698   -3.04316228    3.06643865
     atom    9 type  2   force =     0.00017339    0.00012679   16.29027445
     atom   10 type  2   force =     0.01048136    0.00765369   10.73912520
     atom   11 type  2   force =    -0.90749175   -0.52314636   15.56765132
     atom   12 type  2   force =    -0.00051883   -0.01389305   10.73891019
     atom   13 type  2   force =    -0.00036950    1.04692963   15.56761954
     atom   14 type  2   force =    -0.01042744    0.00697072   10.73828664
     atom   15 type  2   force =     0.90770789   -0.52370165   15.56798631
     atom   16 type  2   force =     5.96146463   -3.44210806  -11.08667910
     atom   17 type  2   force =    -1.20706509    0.69719598  -10.53102507
     atom   18 type  2   force =    -0.00025998    6.88405362  -11.08497267
     atom   19 type  2   force =     0.00112806   -1.39290759  -10.53197003
     atom   20 type  2   force =    -5.96195944   -3.44209509  -11.08564617
     atom   21 type  2   force =     1.20700529    0.69593699  -10.53174924
     atom   22 type  2   force =    -0.00004497    0.00060273  -14.92409644
     atom   23 type  2   force =    -0.00164281    0.00094063  -13.33833275
     atom   24 type  1   force =     0.00044696   -0.00078925  -14.30818561
     The core correction contribution to forces
     atom    1 type  1   force =    -0.00000011   -0.00033646    0.00053241
     atom    2 type  1   force =    -0.00000012   -0.00270956   -0.00205825
     atom    3 type  1   force =    -0.00029180    0.00016842    0.00053254
     atom    4 type  1   force =    -0.00234669    0.00135500   -0.00205802
     atom    5 type  1   force =     0.00000003   -0.00000026    0.00288283
     atom    6 type  1   force =     0.00000008   -0.00000013    0.00020330
     atom    7 type  1   force =     0.00029172    0.00016855    0.00053243
     atom    8 type  1   force =     0.00234656    0.00135501   -0.00205805
     atom    9 type  2   force =    -0.00000087    0.00000225   -0.00560404
     atom   10 type  2   force =     0.00015778    0.00009243   -0.00491775
     atom   11 type  2   force =     0.00059955    0.00034822   -0.00618923
     atom   12 type  2   force =    -0.00000061   -0.00018368   -0.00491757
     atom   13 type  2   force =    -0.00000035   -0.00069179   -0.00618924
     atom   14 type  2   force =    -0.00015757    0.00009167   -0.00491796
     atom   15 type  2   force =    -0.00060019    0.00034813   -0.00618892
     atom   16 type  2   force =    -0.00363823    0.00210213    0.00236828
     atom   17 type  2   force =    -0.00026101    0.00015205    0.00505661
     atom   18 type  2   force =    -0.00000029   -0.00420084    0.00236763
     atom   19 type  2   force =    -0.00000076   -0.00029881    0.00505531
     atom   20 type  2   force =     0.00363811    0.00210244    0.00236734
     atom   21 type  2   force =     0.00025977    0.00015213    0.00505495
     atom   22 type  2   force =    -0.00000075    0.00000248    0.00571781
     atom   23 type  2   force =    -0.00000005    0.00000216    0.00494159
     atom   24 type  1   force =    -0.00000025    0.00000020    0.00135956
     The Hubbard contrib.    to forces
     atom    1 type  1   force =     0.00000000    0.00000000    0.00000000
     atom    2 type  1   force =     0.00000000    0.00000000    0.00000000
     atom    3 type  1   force =     0.00000000    0.00000000    0.00000000
     atom    4 type  1   force =     0.00000000    0.00000000    0.00000000
     atom    5 type  1   force =     0.00000000    0.00000000    0.00000000
     atom    6 type  1   force =     0.00000000    0.00000000    0.00000000
     atom    7 type  1   force =     0.00000000    0.00000000    0.00000000
     atom    8 type  1   force =     0.00000000    0.00000000    0.00000000
     atom    9 type  2   force =     0.00000000    0.00000000    0.00000000
     atom   10 type  2   force =     0.00000000    0.00000000    0.00000000
     atom   11 type  2   force =     0.00000000    0.00000000    0.00000000
     atom   12 type  2   force =     0.00000000    0.00000000    0.00000000
     atom   13 type  2   force =     0.00000000    0.00000000    0.00000000
     atom   14 type  2   force =     0.00000000    0.00000000    0.00000000
     atom   15 type  2   force =     0.00000000    0.00000000    0.00000000
     atom   16 type  2   force =     0.00000000    0.00000000    0.00000000
     atom   17 type  2   force =     0.00000000    0.00000000    0.00000000
     atom   18 type  2   force =     0.00000000    0.00000000    0.00000000
     atom   19 type  2   force =     0.00000000    0.00000000    0.00000000
     atom   20 type  2   force =     0.00000000    0.00000000    0.00000000
     atom   21 type  2   force =     0.00000000    0.00000000    0.00000000
     atom   22 type  2   force =     0.00000000    0.00000000    0.00000000
     atom   23 type  2   force =     0.00000000    0.00000000    0.00000000
     atom   24 type  1   force =     0.00000000    0.00000000    0.00000000
     The SCF correction term to forces
     atom    1 type  1   force =     0.00000081    0.00000722    0.00002140
     atom    2 type  1   force =     0.00000041    0.00003518    0.00000310
     atom    3 type  1   force =     0.00000587   -0.00000335    0.00002153
     atom    4 type  1   force =     0.00003013   -0.00001744    0.00000271
     atom    5 type  1   force =    -0.00000090    0.00000055   -0.00002622
     atom    6 type  1   force =    -0.00000045    0.00000027    0.00000308
     atom    7 type  1   force =    -0.00000594   -0.00000434    0.00002131
     atom    8 type  1   force =    -0.00003027   -0.00001798    0.00000308
     atom    9 type  2   force =     0.00000037   -0.00000028    0.00000615
     atom   10 type  2   force =     0.00003814    0.00002213    0.00001427
     atom   11 type  2   force =     0.00002654    0.00001589   -0.00002509
     atom   12 type  2   force =    -0.00000011   -0.00004396    0.00001423
     atom   13 type  2   force =    -0.00000049   -0.00003089   -0.00002495
     atom   14 type  2   force =    -0.00003811    0.00002189    0.00001427
     atom   15 type  2   force =    -0.00002629    0.00001524   -0.00002501
     atom   16 type  2   force =     0.00002736   -0.00001570    0.00001117
     atom   17 type  2   force =     0.00001057   -0.00000599   -0.00000856
     atom   18 type  2   force =    -0.00000022    0.00003118    0.00001034
     atom   19 type  2   force =    -0.00000062    0.00001148   -0.00000808
     atom   20 type  2   force =    -0.00002719   -0.00001543    0.00001051
     atom   21 type  2   force =    -0.00001030   -0.00000495   -0.00000810
     atom   22 type  2   force =     0.00000046   -0.00000018    0.00001452
     atom   23 type  2   force =     0.00000061   -0.00000038   -0.00002755
     atom   24 type  1   force =     0.00000026   -0.00000017   -0.00001926

     Total force =     0.002919     Total SCF correction =     0.000150


     Computing stress (Cartesian axis) and pressure



     -----------------------------------------------
     Non-local corr. energy    =      11.20106848 Ry
     -----------------------------------------------

          total   stress  (Ry/bohr**3)                   (kbar)     P=      -28.46
  -0.00019269  -0.00000000   0.00000000          -28.35       -0.00        0.00
  -0.00000000  -0.00019270  -0.00000001           -0.00      -28.35       -0.00
   0.00000000  -0.00000001  -0.00019511            0.00       -0.00      -28.70

     kinetic stress (kbar)  15269.58      0.00      0.00
                                0.00  15269.58     -0.00
                                0.00     -0.00  15286.26

     local   stress (kbar)  -6890.25      0.04     -0.08
                                0.04  -6890.10      0.20
                               -0.08      0.20    639.75

     nonloc. stress (kbar)  -1520.93      0.00      0.00
                                0.00  -1520.93     -0.00
                                0.00     -0.00  -1519.17

     hartree stress (kbar)  11515.62     -0.01      0.03
                               -0.01  11515.57     -0.08
                                0.03     -0.08   8137.57

     exc-cor stress (kbar)   6808.12     -0.00      0.00
                               -0.00   6808.12     -0.00
                                0.00     -0.00   6807.31

     corecor stress (kbar) -11102.87      0.00     -0.00
                                0.00 -11102.87      0.00
                               -0.00      0.00 -11102.99

     ewald   stress (kbar) -14188.66     -0.03      0.05
                               -0.03 -14188.76     -0.12
                                0.05     -0.12 -18359.57

     hubbard stress (kbar)      0.00      0.00      0.00
                                0.00      0.00      0.00
                                0.00      0.00      0.00

     DFT-D   stress (kbar)      0.00      0.00      0.00
                                0.00      0.00      0.00
                                0.00      0.00      0.00

     XDM     stress (kbar)      0.00      0.00      0.00
                                0.00      0.00      0.00
                                0.00      0.00      0.00

     dft-nl  stress (kbar)     81.05      0.00     -0.00
                                0.00     81.05      0.00
                               -0.00      0.00     82.15

     TS-vdW  stress (kbar)      0.00      0.00      0.00
                                0.00      0.00      0.00
                                0.00      0.00      0.00

     MDB     stress (kbar)      0.00      0.00      0.00
                                0.00      0.00      0.00
                                0.00      0.00      0.00

     3D-RISM stress (kbar)      0.00      0.00      0.00
                                0.00      0.00      0.00
                                0.00      0.00      0.00

     Energy error            =      1.9E-05 Ry
     Gradient error          =      8.5E-04 Ry/Bohr

     bfgs converged in  40 scf cycles and  39 bfgs steps
     (criteria: energy <  1.0E-04 Ry, force <  1.0E-03 Ry/Bohr)

     End of BFGS Geometry Optimization

     Final energy             =  -16522.3271445023 Ry

     File ./PbI2.bfgs deleted, as requested
Begin final coordinates

ATOMIC_POSITIONS (angstrom)
Pb            2.3557148038        4.1107506094       14.7931258062
Pb            2.3557399588        4.0608970238        7.4971909153
Pb            0.0268978182        8.1443436772       14.7929411197
Pb           -0.0163376143        8.1693622348        7.4971264910
Pb            7.0669885842        4.0797166991       14.5811431156
Pb            7.0670488415        4.0797669695        7.4095632680
Pb            4.6845437829        8.1443592669       14.7930184448
Pb            4.7278089070        8.1693633939        7.4971690007
I             2.3557141852        1.3598260018       12.9879002684
I             0.0211839347        5.4520317639        5.5720502313
I            -0.0150522461        5.4310872169       12.9232153793
I             7.0670043006        1.3352843157        5.5720622158
I             7.0669658885        1.3770920388       12.9231575597
I             4.6903172002        5.4520085790        5.5720569869
I             4.7264994961        5.4310647777       12.9232049329
I             0.0163665813        2.7103339522        2.0997281252
I             0.0085205824        2.7149697988        9.3366417628
I            -2.3555822247        6.8185867419        2.0997609565
I            -2.3555119436        6.8096383992        9.3365656699
I             4.6950121689        2.7103256131        2.0998102306
I             4.7029350263        2.7149408192        9.3365273363
I             2.3556891384        6.7999270915        1.9305606084
I             2.3556153081        6.7999702182        9.2248921758
Pb            2.3557132985        1.3596302405        3.7751197508
End final coordinates



     Writing all to output data dir ./PbI2.save/
 
     init_run     :      7.23s CPU      7.48s WALL (       1 calls)
     electrons    :  12865.67s CPU  13113.97s WALL (      40 calls)
     update_pot   :     65.52s CPU     66.42s WALL (      39 calls)
     forces       :    128.68s CPU    132.27s WALL (      40 calls)
     stress       :   1332.24s CPU   1342.55s WALL (      40 calls)

     Called by init_run:
     wfcinit      :      3.80s CPU      3.89s WALL (       1 calls)
     wfcinit:atom :      0.03s CPU      0.05s WALL (       4 calls)
     wfcinit:wfcr :      3.70s CPU      3.75s WALL (       4 calls)
     potinit      :      2.45s CPU      2.51s WALL (       1 calls)
     hinit0       :      0.44s CPU      0.45s WALL (       1 calls)

     Called by electrons:
     c_bands      :  11264.26s CPU  11410.92s WALL (     540 calls)
     sum_band     :    923.24s CPU    975.85s WALL (     540 calls)
     v_of_rho     :    266.80s CPU    277.30s WALL (     560 calls)
     v_h          :      2.96s CPU      2.98s WALL (     560 calls)
     v_xc         :    301.96s CPU    313.82s WALL (     640 calls)
     newd         :    198.18s CPU    234.32s WALL (     560 calls)
     PAW_pot      :    262.60s CPU    263.81s WALL (     599 calls)
     mix_rho      :     12.98s CPU     13.19s WALL (     540 calls)
     vdW_kernel   :      1.18s CPU      1.19s WALL (       1 calls)

     Called by c_bands:
     init_us_2    :     54.01s CPU     54.39s WALL (    4800 calls)
     init_us_2:cp :     53.96s CPU     54.37s WALL (    4800 calls)
     cegterg      :  11066.20s CPU  11209.02s WALL (    2160 calls)

     Called by sum_band:
     sum_band:wei :      0.26s CPU      0.27s WALL (     540 calls)
     sum_band:loo :    695.70s CPU    700.21s WALL (     540 calls)
     sum_band:buf :     19.76s CPU     19.97s WALL (    2160 calls)
     sum_band:ini :     24.77s CPU     24.93s WALL (    2160 calls)
     sum_band:cal :    168.52s CPU    169.27s WALL (    2316 calls)
     sum_band:bec :      1.42s CPU      1.44s WALL (    2316 calls)
     addusdens    :    139.06s CPU    186.76s WALL (     540 calls)
     addusd:skk   :      2.79s CPU      3.03s WALL (    1080 calls)
     addusd:dgemm :     60.75s CPU    107.08s WALL (    1080 calls)
     addusd:qvan2 :     70.36s CPU     70.67s WALL (    1080 calls)

     Called by *egterg:
     cdiaghg      :   3991.57s CPU   4005.78s WALL (   23925 calls)
     cegterg:over :   1303.99s CPU   1310.53s WALL (   22001 calls)
     cegterg:upda :    714.37s CPU    735.05s WALL (   22001 calls)
     cegterg:last :    274.28s CPU    275.55s WALL (    2292 calls)
     h_psi        :   3763.44s CPU   3817.62s WALL (   24165 calls)
     s_psi        :    502.88s CPU    505.56s WALL (   24165 calls)
     g_psi        :      7.10s CPU      7.18s WALL (   22001 calls)

     Called by h_psi:
     h_psi:calbec :    613.48s CPU    616.49s WALL (   24165 calls)
     vloc_psi     :   2618.25s CPU   2639.27s WALL (   24165 calls)
     add_vuspsi   :    502.00s CPU    504.65s WALL (   24165 calls)

     General routines
     calbec       :   1187.97s CPU   1193.18s WALL (   27281 calls)
     fft          :    254.55s CPU    256.04s WALL (   42019 calls)
     ffts         :      2.97s CPU      2.99s WALL (    1100 calls)
     fftw         :   2865.82s CPU   2888.35s WALL ( 3246174 calls)
     interpolate  :      4.48s CPU      4.52s WALL (     560 calls)
 
     Parallel routines

     PAW routines
     PAW_pot      :    262.60s CPU    263.81s WALL (     599 calls)
 
     PWSCF        :      4h 0m CPU      4h 5m WALL

 
   This run was terminated on:   8:58:11  28Mar2024            

=------------------------------------------------------------------------------=
   JOB DONE.
=------------------------------------------------------------------------------=
