
     Program PWSCF v.7.1 starts on 18Feb2024 at  7:38:23 

     This program is part of the open-source Quantum ESPRESSO suite
     for quantum simulation of materials; please cite
         "P. Giannozzi et al., J. Phys.:Condens. Matter 21 395502 (2009);
         "P. Giannozzi et al., J. Phys.:Condens. Matter 29 465901 (2017);
         "P. Giannozzi et al., J. Chem. Phys. 152 154105 (2020);
          URL http://www.quantum-espresso.org", 
     in publications or presentations arising from this work. More details at
     http://www.quantum-espresso.org/quote

     Parallel version (MPI & OpenMP), running on     128 processor cores
     Number of MPI processes:               128
     Threads/MPI process:                     1

     MPI processes distributed on     1 nodes
     1920854 MiB available memory on the printing compute node when the environment starts
 
     Reading input from espresso.pwi
Warning: card &CELL ignored
Warning: card    CELL_DYNAMICS    = 'BFGS' ignored
Warning: card / ignored

     Current dimensions of program PWSCF are:
     Max number of different atomic species (ntypx) = 10
     Max number of k-points (npk) =  40000
     Max angular momentum in pseudopotentials (lmaxx) =  4
     file Ga.pbe-dn-kjpaw_psl.1.0.0.UPF: wavefunction(s)  4S renormalized
     file N.pbe-n-kjpaw_psl.1.0.0.UPF: wavefunction(s)  2S renormalized

     **************************************************************************
     Initializing libbeef V0.1.2 with the BEEF-vdW functional.
     Citation: Wellendorff et al., PRB 85, 235149 (2012).
     **************************************************************************


     IMPORTANT: XC functional enforced from input :
     Exchange-correlation= BEEF-VDW
                           (   1   4  43  14   2   0   0)
     Any further DFT definition will be discarded
     Please, verify this is what you really want

 
     K-points division:     npool     =       4
     R & G space division:  proc/nbgrp/npool/nimage =      32
     Subspace diagonalization in iterative solution of the eigenvalue problem:
     a serial algorithm will be used

 
     Parallelization info
     --------------------
     sticks:   dense  smooth     PW     G-vecs:    dense   smooth      PW
     Min         253     203     54                20226    14477    1979
     Max         255     204     56                20235    14484    1982
     Sum        8137    6505   1735               647327   463355   63361
 
     Using Slab Decomposition
 


     bravais-lattice index     =            4
     lattice parameter (alat)  =      18.3939  a.u.
     unit-cell volume          =    5856.2271 (a.u.)^3
     number of atoms/cell      =           72
     number of atomic types    =            2
     number of electrons       =       656.00
     number of Kohn-Sham states=          394
     kinetic-energy cutoff     =      70.0000  Ry
     charge density cutoff     =     350.0000  Ry
     scf convergence threshold =      1.0E-07
     mixing beta               =       0.7000
     number of iterations used =            8  plain     mixing
     energy convergence thresh.=      1.0E-04
     force convergence thresh. =      1.0E-03
     Exchange-correlation= BEEF-VDW
                           (   1   4  43  14   2   0   0)
     nstep                     =           50


     celldm(1)=  18.393924  celldm(2)=   0.000000  celldm(3)=   1.086586
     celldm(4)=   0.000000  celldm(5)=   0.000000  celldm(6)=   0.000000

     crystal axes: (cart. coord. in units of alat)
               a(1) = (   1.000000   0.000000   0.000000 )  
               a(2) = (  -0.500000   0.866025   0.000000 )  
               a(3) = (   0.000000   0.000000   1.086586 )  

     reciprocal axes: (cart. coord. in units 2 pi/alat)
               b(1) = (  1.000000  0.577350 -0.000000 )  
               b(2) = (  0.000000  1.154701  0.000000 )  
               b(3) = (  0.000000 -0.000000  0.920314 )  


     PseudoPot. # 1 for Ga read from file:
     //group///packages/espresso/pseudo/psl_1.0.0/pslibrary.1.0.0/pbe/PSEUDOPOTENTIALS/Ga.pbe-dn-kjpaw_psl.1.0.0.UPF
     MD5 check sum: cd2a01e492f15b435d17032472d8505c
     Pseudo is Projector augmented-wave + core cor, Zval = 13.0
     Generated using 'atomic' code by A. Dal Corso  v.7.1
     Shape of augmentation charge: PSQ
     Using radial grid of 1205 points,  6 beta functions with: 
                l(1) =   0
                l(2) =   0
                l(3) =   1
                l(4) =   1
                l(5) =   2
                l(6) =   2
     Q(r) pseudized with 0 coefficients 


     PseudoPot. # 2 for N  read from file:
     //group///packages/espresso/pseudo/psl_1.0.0/pslibrary.1.0.0/pbe/PSEUDOPOTENTIALS/N.pbe-n-kjpaw_psl.1.0.0.UPF
     MD5 check sum: f77f775694dac7e2c3fe1c82443d1a16
     Pseudo is Projector augmented-wave + core cor, Zval =  5.0
     Generated using 'atomic' code by A. Dal Corso  v.7.1
     Shape of augmentation charge: PSQ
     Using radial grid of 1085 points,  4 beta functions with: 
                l(1) =   0
                l(2) =   0
                l(3) =   1
                l(4) =   1
     Q(r) pseudized with 0 coefficients 


     atomic species   valence    mass     pseudopotential
        Ga            13.00    69.72300     Ga( 1.00)
        N              5.00    14.00700     N ( 1.00)

      6 Sym. Ops. (no inversion) found ( 4 have fractional translation)


                                    s                        frac. trans.

      isym =  1     identity                                     

 cryst.   s( 1) = (     1          0          0      )
                  (     0          1          0      )
                  (     0          0          1      )

 cart.    s( 1) = (  1.0000000  0.0000000  0.0000000 )
                  (  0.0000000  1.0000000  0.0000000 )
                  (  0.0000000  0.0000000  1.0000000 )


      isym =  2     120 deg rotation - cryst. axis [0,0,1]       

 cryst.   s( 2) = (     0          1          0      )    f =( -0.3333334 )
                  (    -1         -1          0      )       (  0.0000003 )
                  (     0          0          1      )       (  0.0000000 )

 cart.    s( 2) = ( -0.5000000 -0.8660254  0.0000000 )    f =( -0.3333335 )
                  (  0.8660254 -0.5000000  0.0000000 )       (  0.0000002 )
                  (  0.0000000  0.0000000  1.0000000 )       (  0.0000000 )


      isym =  3     120 deg rotation - cryst. axis [0,0,-1]      

 cryst.   s( 3) = (    -1         -1          0      )    f =( -0.3333336 )
                  (     1          0          0      )       ( -0.3333334 )
                  (     0          0          1      )       (  0.0000000 )

 cart.    s( 3) = ( -0.5000000  0.8660254  0.0000000 )    f =( -0.1666669 )
                  ( -0.8660254 -0.5000000  0.0000000 )       ( -0.2886752 )
                  (  0.0000000  0.0000000  1.0000000 )       (  0.0000000 )


      isym =  4     inv. 180 deg rotation - cart. axis [1,0,0]   

 cryst.   s( 4) = (    -1          0          0      )    f =( -0.3333336 )
                  (     1          1          0      )       (  0.0000000 )
                  (     0          0          1      )       (  0.0000000 )

 cart.    s( 4) = ( -1.0000000  0.0000000  0.0000000 )    f =( -0.3333336 )
                  (  0.0000000  1.0000000  0.0000000 )       (  0.0000000 )
                  (  0.0000000  0.0000000  1.0000000 )       (  0.0000000 )


      isym =  5     inv. 180 deg rotation - cryst. axis [0,1,0]  

 cryst.   s( 5) = (     1          1          0      )
                  (     0         -1          0      )
                  (     0          0          1      )

 cart.    s( 5) = (  0.5000000  0.8660254  0.0000000 )
                  (  0.8660254 -0.5000000  0.0000000 )
                  (  0.0000000  0.0000000  1.0000000 )


      isym =  6     inv. 180 deg rotation - cryst. axis [1,1,0]  

 cryst.   s( 6) = (     0         -1          0      )    f =( -0.3333334 )
                  (    -1          0          0      )       ( -0.3333334 )
                  (     0          0          1      )       (  0.0000000 )

 cart.    s( 6) = (  0.5000000 -0.8660254  0.0000000 )    f =( -0.1666667 )
                  ( -0.8660254 -0.5000000  0.0000000 )       ( -0.2886752 )
                  (  0.0000000  0.0000000  1.0000000 )       (  0.0000000 )


     point group C_3v (3m)  
     there are  3 classes
     the character table:

       E     2C3   3s_v 
A_1    1.00  1.00  1.00
A_2    1.00  1.00 -1.00
E      2.00 -1.00  0.00

     the symmetry operations in each class and the name of the first element:

     E        1
          identity                                               
     2C3      2    3
          120 deg rotation - cryst. axis [0,0,1]                 
     3s_v     4    5    6
          inv. 180 deg rotation - cart. axis [1,0,0]             

   Cartesian axes

     site n.     atom                  positions (alat units)
         1           Ga  tau(   1) = (   0.1666668   0.0962250   0.2711914  )
         2           Ga  tau(   2) = (   0.1666668   0.0962250   0.8144844  )
         3           Ga  tau(   3) = (   0.0000001   0.3849001   0.2711914  )
         4           Ga  tau(   4) = (   0.0000001   0.3849001   0.8144844  )
         5           Ga  tau(   5) = (  -0.1666665   0.6735752   0.2711914  )
         6           Ga  tau(   6) = (  -0.1666665   0.6735752   0.8144844  )
         7           Ga  tau(   7) = (   0.5000001   0.0962250   0.2711914  )
         8           Ga  tau(   8) = (   0.5000001   0.0962250   0.8144844  )
         9           Ga  tau(   9) = (   0.3333335   0.3849001   0.2711914  )
        10           Ga  tau(  10) = (   0.3333335   0.3849001   0.8144844  )
        11           Ga  tau(  11) = (   0.1666668   0.6735752   0.2711914  )
        12           Ga  tau(  12) = (   0.1666668   0.6735752   0.8144844  )
        13           Ga  tau(  13) = (   0.8333335   0.0962250   0.2711914  )
        14           Ga  tau(  14) = (   0.8333335   0.0962250   0.8144844  )
        15           Ga  tau(  15) = (   0.6666668   0.3849001   0.2711914  )
        16           Ga  tau(  16) = (   0.6666668   0.3849001   0.8144844  )
        17           Ga  tau(  17) = (   0.5000001   0.6735752   0.2711914  )
        18           Ga  tau(  18) = (   0.5000001   0.6735752   0.8144844  )
        19           Ga  tau(  19) = (  -0.0000002   0.1924502   0.5428379  )
        20           Ga  tau(  20) = (  -0.0000002   0.1924502   1.0861309  )
        21           Ga  tau(  21) = (  -0.1666669   0.4811254   0.5428379  )
        22           Ga  tau(  22) = (  -0.1666669   0.4811254   1.0861309  )
        23           Ga  tau(  23) = (  -0.3333335   0.7698005   0.5428379  )
        24           Ga  tau(  24) = (  -0.3333335   0.7698005   1.0861309  )
        25           Ga  tau(  25) = (   0.3333331   0.1924502   0.5428379  )
        26           Ga  tau(  26) = (   0.3333331   0.1924502   1.0861309  )
        27           Ga  tau(  27) = (   0.1666665   0.4811254   0.5428379  )
        28           Ga  tau(  28) = (   0.1666665   0.4811254   1.0861309  )
        29           Ga  tau(  29) = (  -0.0000002   0.7698005   0.5428379  )
        30           Ga  tau(  30) = (  -0.0000002   0.7698005   1.0861309  )
        31           Ga  tau(  31) = (   0.6666665   0.1924502   0.5428379  )
        32           Ga  tau(  32) = (   0.6666665   0.1924502   1.0861309  )
        33           Ga  tau(  33) = (   0.4999998   0.4811254   0.5428379  )
        34           Ga  tau(  34) = (   0.4999998   0.4811254   1.0861309  )
        35           Ga  tau(  35) = (   0.3333331   0.7698005   0.5428379  )
        36           Ga  tau(  36) = (   0.3333331   0.7698005   1.0861309  )
        37           N   tau(  37) = (   0.1666668   0.0962250   1.0191295  )
        38           N   tau(  38) = (   0.0000001   0.3849001   0.4758365  )
        39           N   tau(  39) = (   0.0000001   0.3849001   1.0191295  )
        40           N   tau(  40) = (  -0.1666665   0.6735752   0.4758365  )
        41           N   tau(  41) = (  -0.1666665   0.6735752   1.0191295  )
        42           N   tau(  42) = (   0.5000001   0.0962250   0.4758365  )
        43           N   tau(  43) = (   0.5000001   0.0962250   1.0191295  )
        44           N   tau(  44) = (   0.3333335   0.3849001   0.4758365  )
        45           N   tau(  45) = (   0.3333335   0.3849001   1.0191295  )
        46           N   tau(  46) = (   0.1666668   0.6735752   0.4758365  )
        47           N   tau(  47) = (   0.1666668   0.6735752   1.0191295  )
        48           N   tau(  48) = (   0.8333335   0.0962250   0.4758365  )
        49           N   tau(  49) = (   0.8333335   0.0962250   1.0191295  )
        50           N   tau(  50) = (   0.6666668   0.3849001   0.4758365  )
        51           N   tau(  51) = (   0.6666668   0.3849001   1.0191295  )
        52           N   tau(  52) = (   0.5000001   0.6735752   0.4758365  )
        53           N   tau(  53) = (   0.5000001   0.6735752   1.0191295  )
        54           N   tau(  54) = (  -0.0000002   0.1924502   0.2041900  )
        55           N   tau(  55) = (  -0.0000002   0.1924502   0.7474830  )
        56           N   tau(  56) = (  -0.1666669   0.4811254   0.2041900  )
        57           N   tau(  57) = (  -0.1666669   0.4811254   0.7474830  )
        58           N   tau(  58) = (  -0.3333335   0.7698005   0.2041900  )
        59           N   tau(  59) = (  -0.3333335   0.7698005   0.7474830  )
        60           N   tau(  60) = (   0.3333331   0.1924502   0.2041900  )
        61           N   tau(  61) = (   0.3333331   0.1924502   0.7474830  )
        62           N   tau(  62) = (   0.1666665   0.4811254   0.2041900  )
        63           N   tau(  63) = (   0.1666665   0.4811254   0.7474830  )
        64           N   tau(  64) = (  -0.0000002   0.7698005   0.2041900  )
        65           N   tau(  65) = (  -0.0000002   0.7698005   0.7474830  )
        66           N   tau(  66) = (   0.6666665   0.1924502   0.2041900  )
        67           N   tau(  67) = (   0.6666665   0.1924502   0.7474830  )
        68           N   tau(  68) = (   0.4999998   0.4811254   0.2041900  )
        69           N   tau(  69) = (   0.4999998   0.4811254   0.7474830  )
        70           N   tau(  70) = (   0.3333331   0.7698005   0.2041900  )
        71           N   tau(  71) = (   0.3333331   0.7698005   0.7474830  )
        72           Ga  tau(  72) = (   0.1666668   0.0962250   0.4758365  )

   Crystallographic axes

     site n.     atom                  positions (cryst. coord.)
         1           Ga  tau(   1) = (  0.2222223  0.1111110  0.2495811  )
         2           Ga  tau(   2) = (  0.2222223  0.1111110  0.7495811  )
         3           Ga  tau(   3) = (  0.2222223  0.4444444  0.2495811  )
         4           Ga  tau(   4) = (  0.2222223  0.4444444  0.7495811  )
         5           Ga  tau(   5) = (  0.2222223  0.7777777  0.2495811  )
         6           Ga  tau(   6) = (  0.2222223  0.7777777  0.7495811  )
         7           Ga  tau(   7) = (  0.5555557  0.1111110  0.2495811  )
         8           Ga  tau(   8) = (  0.5555557  0.1111110  0.7495811  )
         9           Ga  tau(   9) = (  0.5555557  0.4444444  0.2495811  )
        10           Ga  tau(  10) = (  0.5555557  0.4444444  0.7495811  )
        11           Ga  tau(  11) = (  0.5555557  0.7777777  0.2495811  )
        12           Ga  tau(  12) = (  0.5555557  0.7777777  0.7495811  )
        13           Ga  tau(  13) = (  0.8888890  0.1111110  0.2495811  )
        14           Ga  tau(  14) = (  0.8888890  0.1111110  0.7495811  )
        15           Ga  tau(  15) = (  0.8888890  0.4444444  0.2495811  )
        16           Ga  tau(  16) = (  0.8888890  0.4444444  0.7495811  )
        17           Ga  tau(  17) = (  0.8888890  0.7777777  0.2495811  )
        18           Ga  tau(  18) = (  0.8888890  0.7777777  0.7495811  )
        19           Ga  tau(  19) = (  0.1111110  0.2222224  0.4995811  )
        20           Ga  tau(  20) = (  0.1111110  0.2222224  0.9995811  )
        21           Ga  tau(  21) = (  0.1111110  0.5555557  0.4995811  )
        22           Ga  tau(  22) = (  0.1111110  0.5555557  0.9995811  )
        23           Ga  tau(  23) = (  0.1111110  0.8888891  0.4995811  )
        24           Ga  tau(  24) = (  0.1111110  0.8888891  0.9995811  )
        25           Ga  tau(  25) = (  0.4444443  0.2222224  0.4995811  )
        26           Ga  tau(  26) = (  0.4444443  0.2222224  0.9995811  )
        27           Ga  tau(  27) = (  0.4444443  0.5555557  0.4995811  )
        28           Ga  tau(  28) = (  0.4444443  0.5555557  0.9995811  )
        29           Ga  tau(  29) = (  0.4444443  0.8888891  0.4995811  )
        30           Ga  tau(  30) = (  0.4444443  0.8888891  0.9995811  )
        31           Ga  tau(  31) = (  0.7777777  0.2222224  0.4995811  )
        32           Ga  tau(  32) = (  0.7777777  0.2222224  0.9995811  )
        33           Ga  tau(  33) = (  0.7777777  0.5555557  0.4995811  )
        34           Ga  tau(  34) = (  0.7777777  0.5555557  0.9995811  )
        35           Ga  tau(  35) = (  0.7777777  0.8888891  0.4995811  )
        36           Ga  tau(  36) = (  0.7777777  0.8888891  0.9995811  )
        37           N   tau(  37) = (  0.2222223  0.1111110  0.9379189  )
        38           N   tau(  38) = (  0.2222223  0.4444444  0.4379189  )
        39           N   tau(  39) = (  0.2222223  0.4444444  0.9379189  )
        40           N   tau(  40) = (  0.2222223  0.7777777  0.4379189  )
        41           N   tau(  41) = (  0.2222223  0.7777777  0.9379189  )
        42           N   tau(  42) = (  0.5555557  0.1111110  0.4379189  )
        43           N   tau(  43) = (  0.5555557  0.1111110  0.9379189  )
        44           N   tau(  44) = (  0.5555557  0.4444444  0.4379189  )
        45           N   tau(  45) = (  0.5555557  0.4444444  0.9379189  )
        46           N   tau(  46) = (  0.5555557  0.7777777  0.4379189  )
        47           N   tau(  47) = (  0.5555557  0.7777777  0.9379189  )
        48           N   tau(  48) = (  0.8888890  0.1111110  0.4379189  )
        49           N   tau(  49) = (  0.8888890  0.1111110  0.9379189  )
        50           N   tau(  50) = (  0.8888890  0.4444444  0.4379189  )
        51           N   tau(  51) = (  0.8888890  0.4444444  0.9379189  )
        52           N   tau(  52) = (  0.8888890  0.7777777  0.4379189  )
        53           N   tau(  53) = (  0.8888890  0.7777777  0.9379189  )
        54           N   tau(  54) = (  0.1111110  0.2222224  0.1879189  )
        55           N   tau(  55) = (  0.1111110  0.2222224  0.6879189  )
        56           N   tau(  56) = (  0.1111110  0.5555557  0.1879189  )
        57           N   tau(  57) = (  0.1111110  0.5555557  0.6879189  )
        58           N   tau(  58) = (  0.1111110  0.8888891  0.1879189  )
        59           N   tau(  59) = (  0.1111110  0.8888891  0.6879189  )
        60           N   tau(  60) = (  0.4444443  0.2222224  0.1879189  )
        61           N   tau(  61) = (  0.4444443  0.2222224  0.6879189  )
        62           N   tau(  62) = (  0.4444443  0.5555557  0.1879189  )
        63           N   tau(  63) = (  0.4444443  0.5555557  0.6879189  )
        64           N   tau(  64) = (  0.4444443  0.8888891  0.1879189  )
        65           N   tau(  65) = (  0.4444443  0.8888891  0.6879189  )
        66           N   tau(  66) = (  0.7777777  0.2222224  0.1879189  )
        67           N   tau(  67) = (  0.7777777  0.2222224  0.6879189  )
        68           N   tau(  68) = (  0.7777777  0.5555557  0.1879189  )
        69           N   tau(  69) = (  0.7777777  0.5555557  0.6879189  )
        70           N   tau(  70) = (  0.7777777  0.8888891  0.1879189  )
        71           N   tau(  71) = (  0.7777777  0.8888891  0.6879189  )
        72           Ga  tau(  72) = (  0.2222223  0.1111110  0.4379189  )

     number of k points=     4  Gaussian smearing, width (Ry)=  0.0100
                       cart. coord. in units 2pi/alat
        k(    1) = (   0.0000000   0.0000000   0.0000000), wk =   0.2500000
        k(    2) = (   0.0000000   0.0000000  -0.4601568), wk =   0.2500000
        k(    3) = (   0.0000000  -0.5773503   0.0000000), wk =   0.7500000
        k(    4) = (   0.0000000  -0.5773503  -0.4601568), wk =   0.7500000

                       cryst. coord.
        k(    1) = (   0.0000000   0.0000000   0.0000000), wk =   0.2500000
        k(    2) = (   0.0000000   0.0000000  -0.5000000), wk =   0.2500000
        k(    3) = (   0.0000000  -0.5000000   0.0000000), wk =   0.7500000
        k(    4) = (   0.0000000  -0.5000000  -0.5000000), wk =   0.7500000

     Dense  grid:   647327 G-vectors     FFT dimensions: ( 120, 120, 120)

     Smooth grid:   463355 G-vectors     FFT dimensions: ( 108, 108, 108)

     Dynamical RAM for                 wfc:      10.88 MB

     Dynamical RAM for     wfc (w. buffer):      10.88 MB

     Dynamical RAM for           str. fact:       0.62 MB

     Dynamical RAM for           local pot:       0.00 MB

     Dynamical RAM for          nlocal pot:      26.11 MB

     Dynamical RAM for                qrad:       3.00 MB

     Dynamical RAM for          rho,v,vnew:       2.24 MB

     Dynamical RAM for               rhoin:       0.75 MB

     Dynamical RAM for            rho*nmix:       4.94 MB

     Dynamical RAM for           G-vectors:       1.27 MB

     Dynamical RAM for          h,s,v(r/c):     113.70 MB

     Dynamical RAM for          <psi|beta>:       5.69 MB

     Dynamical RAM for                 psi:      43.50 MB

     Dynamical RAM for                hpsi:      43.50 MB

     Dynamical RAM for                spsi:      43.50 MB

     Dynamical RAM for      wfcinit/wfcrot:      25.31 MB

     Dynamical RAM for           addusdens:      17.44 MB

     Dynamical RAM for          addusforce:      23.07 MB

     Dynamical RAM for         addusstress:      15.63 MB

     Estimated static dynamical RAM per process >      47.99 MB

     Estimated max dynamical RAM per process >     302.83 MB

     Estimated total dynamical RAM >      37.39 GB

     Atomic positions and unit cell read from directory:
     ./GaN.save/
     Atomic positions from file used, from input discarded
 

     Check: negative core charge=   -0.000003

     The initial density is read from file :
     ./GaN.save/charge-density



     %%%%%%%%%%%%%%%%%%%%%%%%%%%%%%%%%%%%%%%%%%%%%%%%%%%%%%%%%%%%%%%%%%%%%%%%
     %                                                                      %
     % You are using vdW-DF, which was implemented by the Thonhauser group. %
     % Please cite the following two papers that made this development      %
     % possible and the two reviews that describe the various versions:     %
     %                                                                      %
     %   T. Thonhauser et al., PRL 115, 136402 (2015).                      %
     %   T. Thonhauser et al., PRB 76, 125112 (2007).                       %
     %   K. Berland et al., Rep. Prog. Phys. 78, 066501 (2015).             %
     %   D.C. Langreth et al., J. Phys.: Condens. Matter 21, 084203 (2009). %
     %                                                                      %
     % If you are calculating stress with vdW-DF, please also cite:         %
     %                                                                      %
     %   R. Sabatini et al., J. Phys.: Condens. Matter 24, 424209 (2012).   %
     %                                                                      %
     %%%%%%%%%%%%%%%%%%%%%%%%%%%%%%%%%%%%%%%%%%%%%%%%%%%%%%%%%%%%%%%%%%%%%%%%

     %%%%%%%%%%%%%%%%%%%%%%%%%%%%%%%%%%%%%%%%%%%%%%%%%%%%%%%%%%%%%%%%%%%%%%%%
     %                                                                      %
     %  vdW-DF NEWS:                                                        %
     %                                                                      %
     %  * vdW-DF3 is now available. DOI: 10.1021/acs.jctc.0c00471           %
     %    use with input_dft = 'vdW-DF3-opt1' or 'vdW-DF3-opt2'             %
     %                                                                      %
     %  * Unscreened and range-separated vdW-DF hybrid functionals          %
     %    DOI: 10.1063/1.4986522 and 10.1088/1361-648X/ac2ad2               %
     %    use with input_dft = 'vdW-DF-cx0' (etc) and 'vdW-DF-ahcx'         %
     %                                                                      %
     %%%%%%%%%%%%%%%%%%%%%%%%%%%%%%%%%%%%%%%%%%%%%%%%%%%%%%%%%%%%%%%%%%%%%%%%


     Carrying out vdW-DF run using the following parameters:
     Nqs    =  20  Npoints =  1024  r_max =  100.000
     q_mesh =  0.00001000  0.04494208  0.09755937  0.15916263
               0.23128650  0.31572767  0.41458969  0.53033537
               0.66584808  0.82450364  1.01025438  1.22772762
               1.48234092  1.78043706  2.12944203  2.53805004
               3.01644009  3.57652955  4.23227104  5.00000000


     -----------------------------------------------
     Non-local corr. energy    =      19.98903657 Ry
     -----------------------------------------------

     Wavefunctions not found or not readable, recomputing them from scratch
     Starting wfcs are  473 randomized atomic wfcs
     Checking if some PAW data can be deallocated... 
       PAW data deallocated on   55 nodes for type:  1
       PAW data deallocated on   73 nodes for type:  2

     total cpu time spent up to now is        5.8 secs

     Self-consistent Calculation

     iteration #  1     ecut=    70.00 Ry     beta= 0.70
     Davidson diagonalization with overlap

---- Real-time Memory Report at c_bands before calling an iterative solver
           256 MiB given to the printing process from OS
             0 MiB allocation reported by mallinfo(arena+hblkhd)
       1909816 MiB available memory on the node where the printing process lives
------------------
     c_bands:  2 eigenvalues not converged
     ethr =  1.00E-05,  avg # of iterations = 20.0

     Threshold (ethr) on eigenvalues was too large:
     Diagonalizing with lowered threshold

     Davidson diagonalization with overlap

---- Real-time Memory Report at c_bands before calling an iterative solver
           447 MiB given to the printing process from OS
             0 MiB allocation reported by mallinfo(arena+hblkhd)
       1906816 MiB available memory on the node where the printing process lives
------------------
     ethr =  3.20E-08,  avg # of iterations = 19.8


     -----------------------------------------------
     Non-local corr. energy    =      19.98892475 Ry
     -----------------------------------------------


     total cpu time spent up to now is       75.2 secs

     End of self-consistent calculation

          k = 0.0000 0.0000 0.0000 ( 57971 PWs)   bands (ev):

    -6.7745  -6.4282  -6.4077  -6.4017  -6.4017  -6.3626  -6.3625  -6.3297
    -6.3104  -6.2812  -6.2812  -6.2691  -6.2691  -6.2635  -6.2586  -6.2574
    -6.2574  -6.2442  -6.2292  -6.2277  -6.2277  -6.2236  -6.2236  -6.1958
    -6.1958  -6.1757  -6.1721  -6.1721  -6.1639  -6.1543  -6.1543  -6.1455
    -6.0745  -6.0745  -6.0694  -5.2474  -5.2473  -5.1733  -5.1672  -5.1672
    -5.1345  -5.1344  -5.1283  -5.1146  -5.1146  -5.1099  -5.0985  -5.0985
    -5.0968  -5.0968  -5.0826  -5.0748  -5.0738  -5.0738  -5.0688  -5.0688
    -5.0667  -5.0625  -5.0625  -5.0610  -5.0588  -5.0564  -5.0564  -5.0519
    -5.0519  -5.0470  -5.0379  -5.0379  -5.0343  -5.0295  -5.0295  -5.0240
    -5.0240  -5.0230  -5.0190  -5.0190  -5.0111  -5.0111  -5.0104  -5.0090
    -5.0011  -5.0011  -4.9996  -4.9965  -4.9965  -4.9901  -4.9901  -4.9876
    -4.9826  -4.9826  -4.9812  -4.9812  -4.9809  -4.9661  -4.9644  -4.9644
    -4.9620  -4.9583  -4.9578  -4.9578  -4.9522  -4.9522  -4.9448  -4.9448
    -4.9446  -4.9445  -4.9414  -4.9393  -4.9393  -4.9369  -4.9369  -4.9355
    -4.9278  -4.9278  -4.9264  -4.9236  -4.9235  -4.9235  -4.9230  -4.9188
    -4.9188  -4.9133  -4.9133  -4.9087  -4.9087  -4.9078  -4.9054  -4.9054
    -4.9029  -4.9029  -4.9027  -4.9004  -4.8963  -4.8954  -4.8954  -4.8874
    -4.8874  -4.8865  -4.8819  -4.8819  -4.8763  -4.8763  -4.8748  -4.8720
    -4.8720  -4.8670  -4.8670  -4.8654  -4.8602  -4.8602  -4.8529  -4.8518
    -4.8518  -4.8479  -4.8464  -4.8464  -4.8407  -4.8407  -4.8391  -4.8317
    -4.8317  -4.8292  -4.8265  -4.8247  -4.8247  -4.8188  -4.8174  -4.8174
    -4.8052  -4.8052  -4.7973  -4.7810  -4.7715  -4.7715  -4.7524  -4.7524
    -4.7296  -4.6385  -4.6135  -4.6135  -4.5946  -4.5245  -4.5245  -4.4133
    -4.4133  -4.2758  -4.2659  -4.2659  -4.2513  -4.2513  -4.1711  -4.1710
    -4.1491  -4.0504  -3.7363  -3.7363  -3.7221  -3.7081  -3.7081  -3.7067
    -3.6881  -3.6880  -3.6632  -3.6632  -3.5672  -3.3322  -3.2548  -2.9906
    -2.9425  -2.9425  -2.8781  -2.8691  -2.8338  -2.8338  -2.8074  -2.8074
    -2.8041  -2.7701  -2.7543  -2.7542   1.8460   2.2098   2.8927   2.9452
     2.9635   2.9635   3.0495   3.0495   3.1004   3.1537   3.1537   3.3179
     3.5111   3.5365   3.5365   3.5494   3.5494   3.5763   3.5951   3.5951
     3.6374   3.6378   3.6378   3.6429   3.7972   3.7972   3.8143   4.0607
     4.0607   4.0879   4.2990   4.2990   4.4486   4.4634   4.4634   4.6520
     5.0089   5.0089   5.0340   5.0340   5.0502   5.1063   5.1243   5.1243
     5.1872   5.3328   5.3329   6.0022   6.1293   6.1293   6.2111   6.3240
     6.4069   6.4069   6.5525   6.6367   6.6368   6.7104   6.7919   6.7920
     6.8700   6.8701   6.8935   6.8935   6.8998   6.8998   6.9107   6.9382
     7.0169   7.0169   7.1888   7.2314   7.2839   7.3315   7.3381   7.3381
     7.3608   7.3608   7.3919   7.3919   7.4142   7.4456   7.4720   7.5073
     7.5073   7.6707   7.6873   7.6874   7.7277   7.7277   7.7299   7.8080
     7.8080   8.0305   8.0306   8.1372   8.1969   8.1969   8.2690   8.3171
     8.3172   8.4356   8.4357   8.7373   8.8590   8.8591  10.1246  10.5907
    10.7221  10.7222  12.7847  12.8364  12.9158  13.2937  13.2938  13.4178
    13.5084  13.5085  13.5691  13.6234  13.6329  13.6330  13.7164  13.7164
    13.7430  13.7439  13.7440  13.8329  13.8329  13.9081  14.2090  14.3624
    14.3625  14.4262  14.4262  14.4367  14.5664  14.5665  14.8572  14.9688
    15.0578  15.0578  15.4289  15.5724  15.5724  15.6649  15.6649  15.8938
    15.9598  16.0872  16.0872  16.0995  16.1839  16.2984  16.3011  16.3012
    16.3731  16.3731  16.4077  16.4077  16.5065  16.5065  16.5134  16.6695
    16.6695  16.7225  16.7376  16.8401  16.8401  17.1576  17.1642  17.1642
    17.2642  17.3096

     occupation numbers 
     1.0000   1.0000   1.0000   1.0000   1.0000   1.0000   1.0000   1.0000
     1.0000   1.0000   1.0000   1.0000   1.0000   1.0000   1.0000   1.0000
     1.0000   1.0000   1.0000   1.0000   1.0000   1.0000   1.0000   1.0000
     1.0000   1.0000   1.0000   1.0000   1.0000   1.0000   1.0000   1.0000
     1.0000   1.0000   1.0000   1.0000   1.0000   1.0000   1.0000   1.0000
     1.0000   1.0000   1.0000   1.0000   1.0000   1.0000   1.0000   1.0000
     1.0000   1.0000   1.0000   1.0000   1.0000   1.0000   1.0000   1.0000
     1.0000   1.0000   1.0000   1.0000   1.0000   1.0000   1.0000   1.0000
     1.0000   1.0000   1.0000   1.0000   1.0000   1.0000   1.0000   1.0000
     1.0000   1.0000   1.0000   1.0000   1.0000   1.0000   1.0000   1.0000
     1.0000   1.0000   1.0000   1.0000   1.0000   1.0000   1.0000   1.0000
     1.0000   1.0000   1.0000   1.0000   1.0000   1.0000   1.0000   1.0000
     1.0000   1.0000   1.0000   1.0000   1.0000   1.0000   1.0000   1.0000
     1.0000   1.0000   1.0000   1.0000   1.0000   1.0000   1.0000   1.0000
     1.0000   1.0000   1.0000   1.0000   1.0000   1.0000   1.0000   1.0000
     1.0000   1.0000   1.0000   1.0000   1.0000   1.0000   1.0000   1.0000
     1.0000   1.0000   1.0000   1.0000   1.0000   1.0000   1.0000   1.0000
     1.0000   1.0000   1.0000   1.0000   1.0000   1.0000   1.0000   1.0000
     1.0000   1.0000   1.0000   1.0000   1.0000   1.0000   1.0000   1.0000
     1.0000   1.0000   1.0000   1.0000   1.0000   1.0000   1.0000   1.0000
     1.0000   1.0000   1.0000   1.0000   1.0000   1.0000   1.0000   1.0000
     1.0000   1.0000   1.0000   1.0000   1.0000   1.0000   1.0000   1.0000
     1.0000   1.0000   1.0000   1.0000   1.0000   1.0000   1.0000   1.0000
     1.0000   1.0000   1.0000   1.0000   1.0000   1.0000   1.0000   1.0000
     1.0000   1.0000   1.0000   1.0000   1.0000   1.0000   1.0000   1.0000
     1.0000   1.0000   1.0000   1.0000   1.0000   1.0000   1.0000   1.0000
     1.0000   1.0000   1.0000   1.0000   1.0000   1.0000   1.0000   1.0000
     1.0000   1.0000   1.0000   1.0000   1.0000   1.0000   1.0000   1.0000
     1.0000   1.0000   1.0000   1.0000   1.0000   1.0000   1.0000   1.0000
     1.0000   1.0000   1.0000   1.0000   1.0000   1.0000   1.0000   1.0000
     1.0000   1.0000   1.0000   1.0000   1.0000   1.0000   1.0000   1.0000
     1.0000   1.0000   1.0000   1.0000   1.0000   1.0000   1.0000   1.0000
     1.0000   1.0000   1.0000   1.0000   1.0000   1.0000   1.0000   1.0000
     1.0000   1.0000   1.0000   1.0000   1.0000   1.0000   1.0000   1.0000
     1.0000   1.0000   1.0000   1.0000   1.0000   1.0000   1.0000   1.0000
     1.0000   1.0000   1.0000   1.0000   1.0000   1.0000   1.0000   1.0000
     1.0000   1.0000   1.0000   1.0000   1.0000   1.0000   1.0000   1.0000
     1.0000   1.0000   1.0000   1.0000   1.0000   1.0000   1.0000   1.0000
     1.0000   1.0000   1.0000   1.0000   1.0000   1.0000   1.0000   1.0000
     1.0000   1.0000   1.0000   1.0000   1.0000   1.0000   1.0000   1.0000
     1.0000   1.0000   1.0000   1.0000   1.0000   1.0000   1.0000   0.1799
     0.0113   0.0113   0.0000   0.0000   0.0000   0.0000   0.0000   0.0000
     0.0000   0.0000   0.0000   0.0000   0.0000   0.0000   0.0000   0.0000
     0.0000   0.0000   0.0000   0.0000   0.0000   0.0000   0.0000   0.0000
     0.0000   0.0000   0.0000   0.0000   0.0000   0.0000   0.0000   0.0000
     0.0000   0.0000   0.0000   0.0000   0.0000   0.0000   0.0000   0.0000
     0.0000   0.0000   0.0000   0.0000   0.0000   0.0000   0.0000   0.0000
     0.0000   0.0000   0.0000   0.0000   0.0000   0.0000   0.0000   0.0000
     0.0000   0.0000   0.0000   0.0000   0.0000   0.0000   0.0000   0.0000
     0.0000   0.0000

          k = 0.0000 0.0000-0.4602 ( 58014 PWs)   bands (ev):

    -6.6832  -6.6018  -6.3813  -6.3813  -6.3494  -6.3374  -6.3374  -6.3060
    -6.3060  -6.3055  -6.2975  -6.2951  -6.2951  -6.2608  -6.2560  -6.2546
    -6.2531  -6.2531  -6.2362  -6.2291  -6.2291  -6.2220  -6.2220  -6.2037
    -6.2001  -6.1819  -6.1711  -6.1711  -6.1600  -6.1567  -6.1567  -6.1453
    -6.0750  -6.0750  -6.0691  -5.2471  -5.2470  -5.1751  -5.1673  -5.1672
    -5.1347  -5.1347  -5.1222  -5.1057  -5.1057  -5.0991  -5.0991  -5.0971
    -5.0971  -5.0814  -5.0797  -5.0746  -5.0745  -5.0686  -5.0686  -5.0681
    -5.0661  -5.0644  -5.0644  -5.0575  -5.0522  -5.0522  -5.0506  -5.0498
    -5.0498  -5.0475  -5.0475  -5.0438  -5.0348  -5.0348  -5.0212  -5.0207
    -5.0207  -5.0193  -5.0170  -5.0170  -5.0163  -5.0163  -5.0163  -5.0105
    -5.0105  -5.0066  -5.0044  -5.0044  -5.0038  -4.9988  -4.9914  -4.9848
    -4.9831  -4.9831  -4.9822  -4.9822  -4.9729  -4.9729  -4.9729  -4.9696
    -4.9696  -4.9684  -4.9581  -4.9579  -4.9579  -4.9571  -4.9554  -4.9554
    -4.9434  -4.9434  -4.9410  -4.9410  -4.9391  -4.9348  -4.9347  -4.9329
    -4.9329  -4.9293  -4.9293  -4.9289  -4.9232  -4.9232  -4.9184  -4.9159
    -4.9159  -4.9155  -4.9141  -4.9141  -4.9139  -4.9081  -4.9081  -4.9045
    -4.9035  -4.9035  -4.9008  -4.9008  -4.8892  -4.8867  -4.8867  -4.8848
    -4.8843  -4.8843  -4.8807  -4.8804  -4.8804  -4.8742  -4.8741  -4.8738
    -4.8738  -4.8678  -4.8645  -4.8645  -4.8643  -4.8624  -4.8624  -4.8549
    -4.8538  -4.8538  -4.8527  -4.8477  -4.8477  -4.8388  -4.8388  -4.8325
    -4.8325  -4.8311  -4.8285  -4.8285  -4.8285  -4.8238  -4.8209  -4.8177
    -4.8177  -4.8063  -4.8063  -4.7986  -4.7717  -4.7713  -4.7713  -4.7526
    -4.7526  -4.7301  -4.6110  -4.6109  -4.5231  -4.5231  -4.4146  -4.4146
    -4.2691  -4.2691  -4.1982  -4.1627  -4.1627  -4.1623  -4.1164  -4.1082
    -4.1082  -4.0719  -4.0708  -4.0708  -4.0273  -4.0272  -3.8838  -3.7684
    -3.6287  -3.2092  -3.2091  -3.1397  -3.1397  -3.1369  -3.1051  -3.1051
    -3.1010  -3.0196  -3.0195  -3.0108  -2.9905  -2.9366  -2.9366  -2.9250
    -2.8782  -2.8681  -2.7956  -2.7956   1.8018   3.0003   3.0175   3.0175
     3.0699   3.0699   3.0984   3.1397   3.1475   3.1509   3.1509   3.1516
     3.1765   3.2001   3.2001   3.2413   3.2692   3.2714   3.2714   3.4849
     3.4849   3.5259   3.6099   4.1431   4.1432   4.2509   4.2641   4.2641
     4.3192   4.3404   4.3405   4.3478   4.3478   4.3740   4.4177   4.4177
     4.5909   4.5909   5.3270   5.3270   5.3724   5.4068   5.4212   5.4212
     5.4449   5.4449   5.4480   5.5641   5.5641   5.8174   5.9679   5.9679
     6.0223   6.0223   6.0545   6.6013   6.7031   6.7760   6.7761   6.7941
     6.7941   6.8201   6.8455   6.8587   6.8587   6.8859   6.8920   6.8920
     6.9431   6.9431   6.9855   7.0086   7.0608   7.2494   7.2494   7.4059
     7.5820   7.7135   7.7135   7.7293   7.7293   7.7883   7.8090   7.8097
     7.8097   7.8201   7.8340   7.8387   7.8387   7.8859   7.8859   7.9207
     7.9756   7.9756   7.9768   7.9953   7.9954   8.0449   8.0450   8.0585
     8.1032   8.1033   8.5704   8.5705   8.8196   8.8197  10.0696  10.7161
    10.7163  11.7801  11.8780  12.8723  12.9041  12.9913  12.9913  13.0841
    13.1222  13.1222  13.1971  13.2409  13.2771  13.2772  13.3340  13.3340
    13.8622  14.3064  14.3065  14.4513  14.4514  14.4641  14.4829  14.5228
    14.5229  14.5641  14.6239  14.6239  14.9226  14.9227  15.1529  15.1529
    15.1876  15.4673  15.4883  15.5714  15.5714  15.6965  15.7661  15.7661
    15.8235  15.8235  15.8731  15.9143  15.9530  15.9959  15.9959  16.0543
    16.0543  16.3424  16.3424  16.4058  16.6135  16.6777  16.6777  16.7514
    16.7667  16.7667  16.8878  16.9647  16.9813  16.9813  17.0770  17.0770
    17.2581  17.2654

     occupation numbers 
     1.0000   1.0000   1.0000   1.0000   1.0000   1.0000   1.0000   1.0000
     1.0000   1.0000   1.0000   1.0000   1.0000   1.0000   1.0000   1.0000
     1.0000   1.0000   1.0000   1.0000   1.0000   1.0000   1.0000   1.0000
     1.0000   1.0000   1.0000   1.0000   1.0000   1.0000   1.0000   1.0000
     1.0000   1.0000   1.0000   1.0000   1.0000   1.0000   1.0000   1.0000
     1.0000   1.0000   1.0000   1.0000   1.0000   1.0000   1.0000   1.0000
     1.0000   1.0000   1.0000   1.0000   1.0000   1.0000   1.0000   1.0000
     1.0000   1.0000   1.0000   1.0000   1.0000   1.0000   1.0000   1.0000
     1.0000   1.0000   1.0000   1.0000   1.0000   1.0000   1.0000   1.0000
     1.0000   1.0000   1.0000   1.0000   1.0000   1.0000   1.0000   1.0000
     1.0000   1.0000   1.0000   1.0000   1.0000   1.0000   1.0000   1.0000
     1.0000   1.0000   1.0000   1.0000   1.0000   1.0000   1.0000   1.0000
     1.0000   1.0000   1.0000   1.0000   1.0000   1.0000   1.0000   1.0000
     1.0000   1.0000   1.0000   1.0000   1.0000   1.0000   1.0000   1.0000
     1.0000   1.0000   1.0000   1.0000   1.0000   1.0000   1.0000   1.0000
     1.0000   1.0000   1.0000   1.0000   1.0000   1.0000   1.0000   1.0000
     1.0000   1.0000   1.0000   1.0000   1.0000   1.0000   1.0000   1.0000
     1.0000   1.0000   1.0000   1.0000   1.0000   1.0000   1.0000   1.0000
     1.0000   1.0000   1.0000   1.0000   1.0000   1.0000   1.0000   1.0000
     1.0000   1.0000   1.0000   1.0000   1.0000   1.0000   1.0000   1.0000
     1.0000   1.0000   1.0000   1.0000   1.0000   1.0000   1.0000   1.0000
     1.0000   1.0000   1.0000   1.0000   1.0000   1.0000   1.0000   1.0000
     1.0000   1.0000   1.0000   1.0000   1.0000   1.0000   1.0000   1.0000
     1.0000   1.0000   1.0000   1.0000   1.0000   1.0000   1.0000   1.0000
     1.0000   1.0000   1.0000   1.0000   1.0000   1.0000   1.0000   1.0000
     1.0000   1.0000   1.0000   1.0000   1.0000   1.0000   1.0000   1.0000
     1.0000   1.0000   1.0000   1.0000   1.0000   1.0000   1.0000   1.0000
     1.0000   1.0000   1.0000   1.0000   1.0000   1.0000   1.0000   1.0000
     1.0000   1.0000   1.0000   1.0000   1.0000   1.0000   1.0000   1.0000
     1.0000   1.0000   1.0000   1.0000   1.0000   1.0000   1.0000   1.0000
     1.0000   1.0000   1.0000   1.0000   1.0000   1.0000   1.0000   1.0000
     1.0000   1.0000   1.0000   1.0000   1.0000   1.0000   1.0000   1.0000
     1.0000   1.0000   1.0000   1.0000   1.0000   1.0000   1.0000   1.0000
     1.0000   1.0000   1.0000   1.0000   1.0000   1.0000   1.0000   1.0000
     1.0000   1.0000   1.0000   1.0000   1.0000   1.0000   1.0000   1.0000
     1.0000   1.0000   1.0000   1.0000   1.0000   1.0000   1.0000   1.0000
     1.0000   1.0000   1.0000   1.0000   1.0000   1.0000   1.0000   1.0000
     1.0000   1.0000   1.0000   1.0000   1.0000   1.0000   1.0000   1.0000
     1.0000   1.0000   1.0000   1.0000   1.0000   1.0000   1.0000   1.0000
     1.0000   1.0000   1.0000   1.0000   1.0000   1.0000   1.0000   1.0000
     1.0000   1.0000   1.0000   1.0000   1.0000   1.0000   1.0000   0.0132
     0.0132   0.0000   0.0000   0.0000   0.0000   0.0000   0.0000   0.0000
     0.0000   0.0000   0.0000   0.0000   0.0000   0.0000   0.0000   0.0000
     0.0000   0.0000   0.0000   0.0000   0.0000   0.0000   0.0000   0.0000
     0.0000   0.0000   0.0000   0.0000   0.0000   0.0000   0.0000   0.0000
     0.0000   0.0000   0.0000   0.0000   0.0000   0.0000   0.0000   0.0000
     0.0000   0.0000   0.0000   0.0000   0.0000   0.0000   0.0000   0.0000
     0.0000   0.0000   0.0000   0.0000   0.0000   0.0000   0.0000   0.0000
     0.0000   0.0000   0.0000   0.0000   0.0000   0.0000   0.0000   0.0000
     0.0000   0.0000

          k = 0.0000-0.5774 0.0000 ( 57942 PWs)   bands (ev):

    -6.6150  -6.5898  -6.4312  -6.3924  -6.3589  -6.3419  -6.3368  -6.3209
    -6.3126  -6.2990  -6.2901  -6.2878  -6.2817  -6.2647  -6.2629  -6.2515
    -6.2474  -6.2405  -6.2353  -6.2297  -6.2233  -6.2194  -6.2132  -6.2121
    -6.2052  -6.1856  -6.1740  -6.1733  -6.1661  -6.1522  -6.1516  -6.1425
    -6.0768  -6.0752  -6.0701  -5.2553  -5.2480  -5.1780  -5.1590  -5.1433
    -5.1278  -5.1206  -5.1065  -5.1046  -5.1030  -5.1002  -5.0995  -5.0922
    -5.0921  -5.0879  -5.0870  -5.0826  -5.0826  -5.0774  -5.0735  -5.0722
    -5.0711  -5.0673  -5.0663  -5.0611  -5.0538  -5.0522  -5.0514  -5.0507
    -5.0504  -5.0471  -5.0470  -5.0408  -5.0396  -5.0318  -5.0312  -5.0274
    -5.0261  -5.0229  -5.0204  -5.0151  -5.0127  -5.0101  -5.0090  -5.0072
    -5.0045  -5.0029  -5.0017  -4.9991  -4.9977  -4.9920  -4.9919  -4.9895
    -4.9890  -4.9829  -4.9801  -4.9778  -4.9773  -4.9730  -4.9714  -4.9679
    -4.9665  -4.9660  -4.9640  -4.9624  -4.9597  -4.9570  -4.9547  -4.9539
    -4.9525  -4.9521  -4.9515  -4.9491  -4.9402  -4.9397  -4.9394  -4.9385
    -4.9356  -4.9353  -4.9321  -4.9298  -4.9294  -4.9264  -4.9245  -4.9215
    -4.9189  -4.9173  -4.9168  -4.9136  -4.9087  -4.9080  -4.9040  -4.9036
    -4.9024  -4.9020  -4.8997  -4.8982  -4.8926  -4.8921  -4.8921  -4.8912
    -4.8873  -4.8834  -4.8815  -4.8802  -4.8754  -4.8730  -4.8727  -4.8697
    -4.8672  -4.8668  -4.8649  -4.8647  -4.8629  -4.8627  -4.8596  -4.8564
    -4.8514  -4.8493  -4.8487  -4.8444  -4.8417  -4.8395  -4.8383  -4.8376
    -4.8294  -4.8248  -4.8217  -4.8209  -4.8207  -4.8167  -4.8160  -4.8144
    -4.8095  -4.8071  -4.8048  -4.7986  -4.7797  -4.7703  -4.7691  -4.7520
    -4.7519  -4.7292  -4.6304  -4.5997  -4.5419  -4.5204  -4.4916  -4.4740
    -4.4283  -4.3796  -4.3652  -4.3640  -4.3365  -4.2551  -4.2234  -4.1838
    -4.1026  -3.9132  -3.8797  -3.8428  -3.8171  -3.5943  -3.5729  -3.5607
    -3.4895  -3.3866  -3.2411  -3.2199  -3.2147  -3.2048  -3.2014  -3.1950
    -3.1723  -3.1677  -3.1550  -3.1299  -3.1099  -2.8741  -2.8665  -2.8396
    -2.7521  -2.7121  -2.6779  -2.6677   1.8875   2.4779   2.4921   2.5899
     2.6549   2.7152   2.8396   2.9216   2.9297   2.9343   2.9776   3.0192
     3.0340   3.0628   3.0736   3.1270   3.1455   3.2520   3.2898   3.3815
     3.8215   3.9186   3.9867   4.0734   4.0798   4.1721   4.2030   4.2183
     4.5027   4.8723   4.9076   4.9177   4.9268   4.9434   4.9467   4.9648
     5.0509   5.1637   5.2223   5.2792   5.3491   5.5020   5.5426   5.5596
     5.6158   5.8393   6.0039   6.0416   6.0509   6.0591   6.0733   6.1223
     6.1519   6.1951   6.3950   6.4163   6.5246   6.5987   6.7026   6.8248
     6.8752   6.9099   6.9268   6.9646   6.9815   6.9957   7.0218   7.0693
     7.0910   7.1138   7.1206   7.1401   7.1422   7.1871   7.2201   7.2234
     7.2255   7.2332   7.2665   7.2713   7.2763   7.2920   7.2986   7.3115
     7.3216   7.3379   7.3491   7.3898   7.4179   7.4344   7.4484   7.4563
     7.6681   7.7560   7.8679   7.9520   7.9789   7.9878   7.9995   8.0330
     8.0529   8.1390   8.4418   8.5729   8.6086   8.6864   9.9473  10.1834
    10.5534  12.1367  12.1516  13.1818  13.2411  13.4990  13.5393  13.6824
    13.7236  13.7686  13.8117  13.9616  13.9684  14.0402  14.0821  14.1410
    14.1797  14.2114  14.2274  14.2529  14.2700  14.3187  14.3321  14.4181
    14.4397  14.4806  14.7847  14.9028  14.9101  14.9217  14.9820  14.9856
    15.0524  15.0548  15.1166  15.3444  15.3720  15.4578  15.4925  15.7043
    15.8067  15.8625  16.0630  16.2375  16.2411  16.3265  16.3734  16.3768
    16.4306  16.4413  16.4567  16.5169  16.5399  16.6049  16.6281  16.6724
    16.6845  16.7261  16.7337  16.7498  16.7849  16.9001  16.9352  16.9411
    16.9662  17.0208

     occupation numbers 
     1.0000   1.0000   1.0000   1.0000   1.0000   1.0000   1.0000   1.0000
     1.0000   1.0000   1.0000   1.0000   1.0000   1.0000   1.0000   1.0000
     1.0000   1.0000   1.0000   1.0000   1.0000   1.0000   1.0000   1.0000
     1.0000   1.0000   1.0000   1.0000   1.0000   1.0000   1.0000   1.0000
     1.0000   1.0000   1.0000   1.0000   1.0000   1.0000   1.0000   1.0000
     1.0000   1.0000   1.0000   1.0000   1.0000   1.0000   1.0000   1.0000
     1.0000   1.0000   1.0000   1.0000   1.0000   1.0000   1.0000   1.0000
     1.0000   1.0000   1.0000   1.0000   1.0000   1.0000   1.0000   1.0000
     1.0000   1.0000   1.0000   1.0000   1.0000   1.0000   1.0000   1.0000
     1.0000   1.0000   1.0000   1.0000   1.0000   1.0000   1.0000   1.0000
     1.0000   1.0000   1.0000   1.0000   1.0000   1.0000   1.0000   1.0000
     1.0000   1.0000   1.0000   1.0000   1.0000   1.0000   1.0000   1.0000
     1.0000   1.0000   1.0000   1.0000   1.0000   1.0000   1.0000   1.0000
     1.0000   1.0000   1.0000   1.0000   1.0000   1.0000   1.0000   1.0000
     1.0000   1.0000   1.0000   1.0000   1.0000   1.0000   1.0000   1.0000
     1.0000   1.0000   1.0000   1.0000   1.0000   1.0000   1.0000   1.0000
     1.0000   1.0000   1.0000   1.0000   1.0000   1.0000   1.0000   1.0000
     1.0000   1.0000   1.0000   1.0000   1.0000   1.0000   1.0000   1.0000
     1.0000   1.0000   1.0000   1.0000   1.0000   1.0000   1.0000   1.0000
     1.0000   1.0000   1.0000   1.0000   1.0000   1.0000   1.0000   1.0000
     1.0000   1.0000   1.0000   1.0000   1.0000   1.0000   1.0000   1.0000
     1.0000   1.0000   1.0000   1.0000   1.0000   1.0000   1.0000   1.0000
     1.0000   1.0000   1.0000   1.0000   1.0000   1.0000   1.0000   1.0000
     1.0000   1.0000   1.0000   1.0000   1.0000   1.0000   1.0000   1.0000
     1.0000   1.0000   1.0000   1.0000   1.0000   1.0000   1.0000   1.0000
     1.0000   1.0000   1.0000   1.0000   1.0000   1.0000   1.0000   1.0000
     1.0000   1.0000   1.0000   1.0000   1.0000   1.0000   1.0000   1.0000
     1.0000   1.0000   1.0000   1.0000   1.0000   1.0000   1.0000   1.0000
     1.0000   1.0000   1.0000   1.0000   1.0000   1.0000   1.0000   1.0000
     1.0000   1.0000   1.0000   1.0000   1.0000   1.0000   1.0000   1.0000
     1.0000   1.0000   1.0000   1.0000   1.0000   1.0000   1.0000   1.0000
     1.0000   1.0000   1.0000   1.0000   1.0000   1.0000   1.0000   1.0000
     1.0000   1.0000   1.0000   1.0000   1.0000   1.0000   1.0000   1.0000
     1.0000   1.0000   1.0000   1.0000   1.0000   1.0000   1.0000   1.0000
     1.0000   1.0000   1.0000   1.0000   1.0000   1.0000   1.0000   1.0000
     1.0000   1.0000   1.0000   1.0000   1.0000   1.0000   1.0000   1.0000
     1.0000   1.0000   1.0000   1.0000   1.0000   1.0000   1.0000   1.0000
     1.0000   1.0000   1.0000   1.0000   1.0000   1.0000   1.0000   1.0000
     1.0000   1.0000   1.0000   1.0000   1.0000   1.0000   1.0000   1.0000
     1.0000   1.0000   1.0000   1.0000   1.0000   1.0000   1.0000   1.0000
     1.0000   1.0000   1.0000   1.0000   1.0000   1.0000   1.0000   0.9995
     0.2990   0.0000   0.0000   0.0000   0.0000   0.0000   0.0000   0.0000
     0.0000   0.0000   0.0000   0.0000   0.0000   0.0000   0.0000   0.0000
     0.0000   0.0000   0.0000   0.0000   0.0000   0.0000   0.0000   0.0000
     0.0000   0.0000   0.0000   0.0000   0.0000   0.0000   0.0000   0.0000
     0.0000   0.0000   0.0000   0.0000   0.0000   0.0000   0.0000   0.0000
     0.0000   0.0000   0.0000   0.0000   0.0000   0.0000   0.0000   0.0000
     0.0000   0.0000   0.0000   0.0000   0.0000   0.0000   0.0000   0.0000
     0.0000   0.0000   0.0000   0.0000   0.0000   0.0000   0.0000   0.0000
     0.0000   0.0000

          k = 0.0000-0.5774-0.4602 ( 57848 PWs)   bands (ev):

    -6.5472  -6.5302  -6.4719  -6.4498  -6.4010  -6.3576  -6.3329  -6.3089
    -6.3037  -6.2960  -6.2901  -6.2863  -6.2794  -6.2644  -6.2636  -6.2514
    -6.2436  -6.2425  -6.2405  -6.2328  -6.2255  -6.2177  -6.2164  -6.2086
    -6.2077  -6.1903  -6.1776  -6.1729  -6.1638  -6.1538  -6.1521  -6.1452
    -6.0770  -6.0756  -6.0698  -5.2551  -5.2476  -5.1778  -5.1596  -5.1433
    -5.1271  -5.1235  -5.1065  -5.1019  -5.0986  -5.0977  -5.0948  -5.0922
    -5.0893  -5.0869  -5.0855  -5.0806  -5.0797  -5.0725  -5.0722  -5.0711
    -5.0673  -5.0644  -5.0625  -5.0623  -5.0559  -5.0557  -5.0531  -5.0504
    -5.0492  -5.0455  -5.0444  -5.0423  -5.0414  -5.0354  -5.0344  -5.0328
    -5.0271  -5.0256  -5.0251  -5.0236  -5.0214  -5.0127  -5.0092  -5.0080
    -5.0048  -5.0037  -5.0002  -4.9989  -4.9963  -4.9951  -4.9899  -4.9898
    -4.9885  -4.9871  -4.9842  -4.9833  -4.9806  -4.9781  -4.9764  -4.9763
    -4.9749  -4.9701  -4.9683  -4.9649  -4.9604  -4.9602  -4.9531  -4.9517
    -4.9510  -4.9475  -4.9472  -4.9455  -4.9439  -4.9420  -4.9336  -4.9311
    -4.9309  -4.9283  -4.9279  -4.9262  -4.9254  -4.9219  -4.9206  -4.9176
    -4.9161  -4.9160  -4.9103  -4.9088  -4.9074  -4.9046  -4.9043  -4.9000
    -4.8982  -4.8946  -4.8944  -4.8924  -4.8889  -4.8880  -4.8861  -4.8846
    -4.8838  -4.8831  -4.8787  -4.8756  -4.8738  -4.8722  -4.8707  -4.8698
    -4.8672  -4.8638  -4.8632  -4.8612  -4.8590  -4.8587  -4.8556  -4.8547
    -4.8509  -4.8489  -4.8440  -4.8418  -4.8415  -4.8406  -4.8399  -4.8293
    -4.8253  -4.8240  -4.8239  -4.8210  -4.8208  -4.8187  -4.8181  -4.8164
    -4.8093  -4.8074  -4.7993  -4.7972  -4.7896  -4.7791  -4.7713  -4.7700
    -4.7522  -4.7506  -4.7297  -4.7080  -4.6168  -4.5772  -4.5233  -4.5124
    -4.4528  -4.3820  -4.3511  -4.3386  -4.2822  -4.2390  -4.2061  -4.1740
    -4.1036  -3.6854  -3.6243  -3.6073  -3.5328  -3.5316  -3.5248  -3.4890
    -3.4601  -3.4558  -3.4383  -3.4250  -3.4008  -3.3499  -3.3049  -3.2911
    -3.1873  -3.1303  -3.0956  -2.9591  -2.9202  -2.9113  -2.8972  -2.8942
    -2.8458  -2.8068  -2.7655  -2.7550   1.8715   2.4282   2.4938   2.7437
     2.8100   2.8332   2.8603   2.8732   2.9069   2.9653   3.0006   3.2067
     3.2495   3.2561   3.3032   3.3751   3.3892   3.4136   3.4497   3.4745
     3.5004   3.5123   3.5744   3.6149   3.6427   3.6781   3.7340   3.8516
     4.2474   4.9143   4.9684   5.0299   5.2825   5.2909   5.3148   5.3581
     5.3881   5.4115   5.4867   5.4875   5.5414   5.6615   5.6884   5.7094
     5.8002   5.8131   5.8786   6.0251   6.0358   6.0591   6.0792   6.1724
     6.1923   6.2150   6.2592   6.3289   6.3705   6.4915   6.4949   6.5283
     6.5696   6.5999   6.6032   6.6352   6.6393   6.6870   6.7098   6.7664
     6.8009   6.8227   6.8604   6.8925   6.9099   6.9258   7.0048   7.2760
     7.3442   7.3861   7.4115   7.4208   7.4681   7.4762   7.4958   7.5154
     7.5318   7.5629   7.5866   7.6159   7.6402   7.6802   7.6818   7.7295
     7.7347   7.7706   7.8183   7.9687   8.0179   8.0502   8.1358   8.1668
     8.1846   8.2116   8.2977   8.4380   8.5235   8.5651  10.0112  10.1728
    10.5553  12.6145  12.6661  12.6937  12.8082  13.1286  13.1497  13.4573
    13.5680  13.6829  13.7216  13.8393  13.8714  13.9406  14.0215  14.0387
    14.0645  14.0856  14.0993  14.1225  14.1898  14.2068  14.2404  14.3611
    14.8607  14.9632  15.1157  15.1899  15.2304  15.2909  15.3306  15.3436
    15.3684  15.4192  15.4435  15.4765  15.5949  15.7288  15.8618  15.8777
    15.9743  16.0169  16.0212  16.0464  16.0714  16.1252  16.1459  16.1874
    16.3348  16.3568  16.4183  16.4431  16.4977  16.5408  16.5471  16.6103
    16.6468  16.7046  16.7213  16.7671  16.7772  16.8196  16.8532  16.8804
    16.9217  17.0164

     occupation numbers 
     1.0000   1.0000   1.0000   1.0000   1.0000   1.0000   1.0000   1.0000
     1.0000   1.0000   1.0000   1.0000   1.0000   1.0000   1.0000   1.0000
     1.0000   1.0000   1.0000   1.0000   1.0000   1.0000   1.0000   1.0000
     1.0000   1.0000   1.0000   1.0000   1.0000   1.0000   1.0000   1.0000
     1.0000   1.0000   1.0000   1.0000   1.0000   1.0000   1.0000   1.0000
     1.0000   1.0000   1.0000   1.0000   1.0000   1.0000   1.0000   1.0000
     1.0000   1.0000   1.0000   1.0000   1.0000   1.0000   1.0000   1.0000
     1.0000   1.0000   1.0000   1.0000   1.0000   1.0000   1.0000   1.0000
     1.0000   1.0000   1.0000   1.0000   1.0000   1.0000   1.0000   1.0000
     1.0000   1.0000   1.0000   1.0000   1.0000   1.0000   1.0000   1.0000
     1.0000   1.0000   1.0000   1.0000   1.0000   1.0000   1.0000   1.0000
     1.0000   1.0000   1.0000   1.0000   1.0000   1.0000   1.0000   1.0000
     1.0000   1.0000   1.0000   1.0000   1.0000   1.0000   1.0000   1.0000
     1.0000   1.0000   1.0000   1.0000   1.0000   1.0000   1.0000   1.0000
     1.0000   1.0000   1.0000   1.0000   1.0000   1.0000   1.0000   1.0000
     1.0000   1.0000   1.0000   1.0000   1.0000   1.0000   1.0000   1.0000
     1.0000   1.0000   1.0000   1.0000   1.0000   1.0000   1.0000   1.0000
     1.0000   1.0000   1.0000   1.0000   1.0000   1.0000   1.0000   1.0000
     1.0000   1.0000   1.0000   1.0000   1.0000   1.0000   1.0000   1.0000
     1.0000   1.0000   1.0000   1.0000   1.0000   1.0000   1.0000   1.0000
     1.0000   1.0000   1.0000   1.0000   1.0000   1.0000   1.0000   1.0000
     1.0000   1.0000   1.0000   1.0000   1.0000   1.0000   1.0000   1.0000
     1.0000   1.0000   1.0000   1.0000   1.0000   1.0000   1.0000   1.0000
     1.0000   1.0000   1.0000   1.0000   1.0000   1.0000   1.0000   1.0000
     1.0000   1.0000   1.0000   1.0000   1.0000   1.0000   1.0000   1.0000
     1.0000   1.0000   1.0000   1.0000   1.0000   1.0000   1.0000   1.0000
     1.0000   1.0000   1.0000   1.0000   1.0000   1.0000   1.0000   1.0000
     1.0000   1.0000   1.0000   1.0000   1.0000   1.0000   1.0000   1.0000
     1.0000   1.0000   1.0000   1.0000   1.0000   1.0000   1.0000   1.0000
     1.0000   1.0000   1.0000   1.0000   1.0000   1.0000   1.0000   1.0000
     1.0000   1.0000   1.0000   1.0000   1.0000   1.0000   1.0000   1.0000
     1.0000   1.0000   1.0000   1.0000   1.0000   1.0000   1.0000   1.0000
     1.0000   1.0000   1.0000   1.0000   1.0000   1.0000   1.0000   1.0000
     1.0000   1.0000   1.0000   1.0000   1.0000   1.0000   1.0000   1.0000
     1.0000   1.0000   1.0000   1.0000   1.0000   1.0000   1.0000   1.0000
     1.0000   1.0000   1.0000   1.0000   1.0000   1.0000   1.0000   1.0000
     1.0000   1.0000   1.0000   1.0000   1.0000   1.0000   1.0000   1.0000
     1.0000   1.0000   1.0000   1.0000   1.0000   1.0000   1.0000   1.0000
     1.0000   1.0000   1.0000   1.0000   1.0000   1.0000   1.0000   1.0000
     1.0000   1.0000   1.0000   1.0000   1.0000   1.0000   1.0000   1.0000
     1.0000   1.0000   1.0000   1.0000   1.0000   1.0000   1.0000   0.9997
     0.2921   0.0000   0.0000   0.0000   0.0000   0.0000   0.0000   0.0000
     0.0000   0.0000   0.0000   0.0000   0.0000   0.0000   0.0000   0.0000
     0.0000   0.0000   0.0000   0.0000   0.0000   0.0000   0.0000   0.0000
     0.0000   0.0000   0.0000   0.0000   0.0000   0.0000   0.0000   0.0000
     0.0000   0.0000   0.0000   0.0000   0.0000   0.0000   0.0000   0.0000
     0.0000   0.0000   0.0000   0.0000   0.0000   0.0000   0.0000   0.0000
     0.0000   0.0000   0.0000   0.0000   0.0000   0.0000   0.0000   0.0000
     0.0000   0.0000   0.0000   0.0000   0.0000   0.0000   0.0000   0.0000
     0.0000   0.0000

     the Fermi energy is    10.5027 ev

!    total energy              =  -11496.40130879 Ry
     total all-electron energy =   -147917.951706 Ry
     estimated scf accuracy    <       0.00000005 Ry
     smearing contrib. (-TS)   =      -0.00436600 Ry
     internal energy E=F+TS    =  -11496.39694279 Ry

     The total energy is F=E-TS. E is the sum of the following terms:
     one-electron contribution =   -3450.68012753 Ry
     hartree contribution      =    2421.73455213 Ry
     xc contribution           =   -1672.32009582 Ry
     ewald contribution        =   -4214.87734306 Ry
     one-center paw contrib.   =   -4580.25392850 Ry
      -> PAW hartree energy AE =     146.24879670 Ry
      -> PAW hartree energy PS =    -144.69269117 Ry
      -> PAW xc energy AE      =    -157.05097728 Ry
      -> PAW xc energy PS      =      39.80936579 Ry
      -> total E_H with PAW    =    2423.29065766 Ry
      -> total E_XC with PAW   =   -1789.56170731 Ry

     convergence has been achieved in   1 iterations


     -----------------------------------------------
     Non-local corr. energy    =      19.98892475 Ry
     -----------------------------------------------


     Forces acting on atoms (cartesian axes, Ry/au):

     atom    1 type  1   force =     0.00000000    0.00000000   -0.00078402
     atom    2 type  1   force =     0.00000000    0.00000000    0.00085124
     atom    3 type  1   force =    -0.00003377    0.00015672    0.00014729
     atom    4 type  1   force =    -0.00010895   -0.00024006   -0.00024030
     atom    5 type  1   force =     0.00011884   -0.00010761    0.00014729
     atom    6 type  1   force =    -0.00026238    0.00002568   -0.00024030
     atom    7 type  1   force =     0.00015261   -0.00004912    0.00014729
     atom    8 type  1   force =    -0.00015343    0.00021439   -0.00024030
     atom    9 type  1   force =     0.00003377    0.00015672    0.00014729
     atom   10 type  1   force =     0.00010895   -0.00024006   -0.00024030
     atom   11 type  1   force =     0.00000000    0.00000000   -0.00040013
     atom   12 type  1   force =     0.00000000    0.00000000    0.00068293
     atom   13 type  1   force =    -0.00015261   -0.00004912    0.00014729
     atom   14 type  1   force =     0.00015343    0.00021439   -0.00024030
     atom   15 type  1   force =     0.00000000    0.00000000   -0.00025381
     atom   16 type  1   force =     0.00000000    0.00000000    0.00037844
     atom   17 type  1   force =    -0.00011884   -0.00010761    0.00014729
     atom   18 type  1   force =     0.00026238    0.00002568   -0.00024030
     atom   19 type  1   force =     0.00068450   -0.00039520   -0.00037757
     atom   20 type  1   force =    -0.00045443    0.00026237    0.00031780
     atom   21 type  1   force =     0.00024656    0.00014235    0.00025094
     atom   22 type  1   force =    -0.00040652   -0.00023470   -0.00011426
     atom   23 type  1   force =     0.00000000    0.00079039   -0.00037757
     atom   24 type  1   force =     0.00000000   -0.00052473    0.00031780
     atom   25 type  1   force =    -0.00068450   -0.00039520   -0.00037757
     atom   26 type  1   force =     0.00045443    0.00026237    0.00031780
     atom   27 type  1   force =     0.00000000   -0.00013817    0.00024837
     atom   28 type  1   force =     0.00000000    0.00060390   -0.00016042
     atom   29 type  1   force =    -0.00011966    0.00006909    0.00024837
     atom   30 type  1   force =     0.00052300   -0.00030195   -0.00016042
     atom   31 type  1   force =     0.00000000   -0.00028470    0.00025094
     atom   32 type  1   force =     0.00000000    0.00046941   -0.00011426
     atom   33 type  1   force =    -0.00024656    0.00014235    0.00025094
     atom   34 type  1   force =     0.00040652   -0.00023470   -0.00011426
     atom   35 type  1   force =     0.00011966    0.00006909    0.00024837
     atom   36 type  1   force =    -0.00052300   -0.00030195   -0.00016042
     atom   37 type  2   force =     0.00000000    0.00000000    0.00013922
     atom   38 type  2   force =    -0.00000582    0.00006868    0.00026418
     atom   39 type  2   force =    -0.00010201    0.00035728    0.00005784
     atom   40 type  2   force =     0.00005657   -0.00003938    0.00026418
     atom   41 type  2   force =     0.00025841   -0.00026699    0.00005784
     atom   42 type  2   force =     0.00006239   -0.00002930    0.00026418
     atom   43 type  2   force =     0.00036042   -0.00009030    0.00005784
     atom   44 type  2   force =     0.00000582    0.00006868    0.00026418
     atom   45 type  2   force =     0.00010201    0.00035728    0.00005784
     atom   46 type  2   force =     0.00000000    0.00000000   -0.00035806
     atom   47 type  2   force =     0.00000000    0.00000000   -0.00017098
     atom   48 type  2   force =    -0.00006239   -0.00002930    0.00026418
     atom   49 type  2   force =    -0.00036042   -0.00009030    0.00005784
     atom   50 type  2   force =     0.00000000    0.00000000   -0.00044340
     atom   51 type  2   force =     0.00000000    0.00000000    0.00003586
     atom   52 type  2   force =    -0.00005657   -0.00003938    0.00026418
     atom   53 type  2   force =    -0.00025841   -0.00026699    0.00005784
     atom   54 type  2   force =    -0.00001543    0.00000891   -0.00011973
     atom   55 type  2   force =    -0.00026218    0.00015137   -0.00046291
     atom   56 type  2   force =    -0.00036258   -0.00020934   -0.00015559
     atom   57 type  2   force =    -0.00028116   -0.00016233    0.00036045
     atom   58 type  2   force =     0.00000000   -0.00001781   -0.00011973
     atom   59 type  2   force =     0.00000000   -0.00030274   -0.00046291
     atom   60 type  2   force =     0.00001543    0.00000891   -0.00011973
     atom   61 type  2   force =     0.00026218    0.00015137   -0.00046291
     atom   62 type  2   force =     0.00000000    0.00039058   -0.00023873
     atom   63 type  2   force =     0.00000000    0.00052339    0.00037221
     atom   64 type  2   force =     0.00033825   -0.00019529   -0.00023873
     atom   65 type  2   force =     0.00045327   -0.00026169    0.00037221
     atom   66 type  2   force =     0.00000000    0.00041868   -0.00015559
     atom   67 type  2   force =     0.00000000    0.00032465    0.00036045
     atom   68 type  2   force =     0.00036258   -0.00020934   -0.00015559
     atom   69 type  2   force =     0.00028116   -0.00016233    0.00036045
     atom   70 type  2   force =    -0.00033825   -0.00019529   -0.00023873
     atom   71 type  2   force =    -0.00045327   -0.00026169    0.00037221
     atom   72 type  1   force =     0.00000000    0.00000000   -0.00081304
     The non-local contrib.  to forces
     atom    1 type  1   force =     0.00000000   -0.00000000   -0.68986639
     atom    2 type  1   force =     0.00000000   -0.00000000   -0.15223797
     atom    3 type  1   force =     0.02327345   -0.01073792    0.08440343
     atom    4 type  1   force =     0.02134383    0.02905038   -0.06552997
     atom    5 type  1   force =     0.00233741    0.02552436    0.08440343
     atom    6 type  1   force =     0.03583028    0.00395911   -0.06552997
     atom    7 type  1   force =    -0.02093604   -0.01478644    0.08440343
     atom    8 type  1   force =     0.01448645   -0.03300948   -0.06552997
     atom    9 type  1   force =    -0.02327345   -0.01073792    0.08440343
     atom   10 type  1   force =    -0.02134383    0.02905038   -0.06552997
     atom   11 type  1   force =     0.00000000    0.00000000   -0.01653359
     atom   12 type  1   force =     0.00000000    0.00000000    0.00979211
     atom   13 type  1   force =     0.02093604   -0.01478644    0.08440343
     atom   14 type  1   force =    -0.01448645   -0.03300948   -0.06552997
     atom   15 type  1   force =     0.00000000    0.00000000    0.02530645
     atom   16 type  1   force =     0.00000000    0.00000000   -0.01095476
     atom   17 type  1   force =    -0.00233741    0.02552436    0.08440343
     atom   18 type  1   force =    -0.03583028    0.00395911   -0.06552997
     atom   19 type  1   force =    -0.27364070    0.15798653    0.08137792
     atom   20 type  1   force =     0.05045928   -0.02913268   -0.16494402
     atom   21 type  1   force =    -0.06100020   -0.03521848    0.05388172
     atom   22 type  1   force =    -0.02343886   -0.01353243   -0.01166289
     atom   23 type  1   force =     0.00000000   -0.31597306    0.08137792
     atom   24 type  1   force =     0.00000000    0.05826535   -0.16494402
     atom   25 type  1   force =     0.27364070    0.15798653    0.08137792
     atom   26 type  1   force =    -0.05045928   -0.02913268   -0.16494402
     atom   27 type  1   force =     0.00000000   -0.04942972   -0.02563835
     atom   28 type  1   force =     0.00000000   -0.00988972    0.01502861
     atom   29 type  1   force =    -0.04280739    0.02471486   -0.02563835
     atom   30 type  1   force =    -0.00856475    0.00494486    0.01502861
     atom   31 type  1   force =     0.00000000    0.07043696    0.05388172
     atom   32 type  1   force =     0.00000000    0.02706486   -0.01166289
     atom   33 type  1   force =     0.06100020   -0.03521848    0.05388172
     atom   34 type  1   force =     0.02343886   -0.01353243   -0.01166289
     atom   35 type  1   force =     0.04280739    0.02471486   -0.02563835
     atom   36 type  1   force =     0.00856475    0.00494486    0.01502861
     atom   37 type  2   force =     0.00000000   -0.00000000    0.00103441
     atom   38 type  2   force =    -0.06503524   -0.00210825    0.09112503
     atom   39 type  2   force =    -0.00462607   -0.01260791   -0.03468019
     atom   40 type  2   force =    -0.03434342   -0.05526804    0.09112503
     atom   41 type  2   force =    -0.01323181    0.00229766   -0.03468019
     atom   42 type  2   force =     0.03069182    0.05737630    0.09112503
     atom   43 type  2   force =    -0.00860574    0.01031025   -0.03468019
     atom   44 type  2   force =     0.06503524   -0.00210825    0.09112503
     atom   45 type  2   force =     0.00462607   -0.01260791   -0.03468019
     atom   46 type  2   force =     0.00000000   -0.00000000   -0.00298083
     atom   47 type  2   force =     0.00000000   -0.00000000    0.02271123
     atom   48 type  2   force =    -0.03069182    0.05737630    0.09112503
     atom   49 type  2   force =     0.00860574    0.01031025   -0.03468019
     atom   50 type  2   force =     0.00000000    0.00000000    0.04330184
     atom   51 type  2   force =     0.00000000   -0.00000000    0.00480551
     atom   52 type  2   force =     0.03434342   -0.05526804    0.09112503
     atom   53 type  2   force =     0.01323181    0.00229766   -0.03468019
     atom   54 type  2   force =    -0.01053787    0.00608404   -0.02280455
     atom   55 type  2   force =    -0.03771926    0.02177723   -0.09125714
     atom   56 type  2   force =    -0.01923817   -0.01110717   -0.02472152
     atom   57 type  2   force =     0.02138760    0.01234814    0.02459049
     atom   58 type  2   force =     0.00000000   -0.01216808   -0.02280455
     atom   59 type  2   force =     0.00000000   -0.04355445   -0.09125714
     atom   60 type  2   force =     0.01053787    0.00608404   -0.02280455
     atom   61 type  2   force =     0.03771926    0.02177723   -0.09125714
     atom   62 type  2   force =     0.00000000   -0.00758590   -0.01558104
     atom   63 type  2   force =     0.00000000    0.00586861    0.03486439
     atom   64 type  2   force =    -0.00656958    0.00379295   -0.01558104
     atom   65 type  2   force =     0.00508237   -0.00293431    0.03486439
     atom   66 type  2   force =     0.00000000    0.02221433   -0.02472152
     atom   67 type  2   force =     0.00000000   -0.02469627    0.02459049
     atom   68 type  2   force =     0.01923817   -0.01110717   -0.02472152
     atom   69 type  2   force =    -0.02138760    0.01234814    0.02459049
     atom   70 type  2   force =     0.00656958    0.00379295   -0.01558104
     atom   71 type  2   force =    -0.00508237   -0.00293431    0.03486439
     atom   72 type  1   force =     0.00000000   -0.00000000    0.23572446
     The ionic contribution  to forces
     atom    1 type  1   force =    -0.00004329    0.00002568   -2.14465805
     atom    2 type  1   force =    -0.00004145    0.00002450   -0.93023390
     atom    3 type  1   force =     0.45593172    0.35186458    0.98584319
     atom    4 type  1   force =     0.69239823    0.60841784   -0.04714257
     atom    5 type  1   force =     0.53266182    0.21896645    0.98583485
     atom    6 type  1   force =     0.87306964    0.29548082   -0.04713682
     atom    7 type  1   force =     0.07670268   -0.57078000    0.98583475
     atom    8 type  1   force =     0.18064318   -0.90383920   -0.04713725
     atom    9 type  1   force =    -0.45600128    0.35187305    0.98584127
     atom   10 type  1   force =    -0.69246387    0.60842318   -0.04713755
     atom   11 type  1   force =    -0.00003173    0.00002114    0.32540666
     atom   12 type  1   force =    -0.00003345    0.00002228   -0.07273931
     atom   13 type  1   force =    -0.07675576   -0.57077884    0.98584252
     atom   14 type  1   force =    -0.18070373   -0.90384149   -0.04714286
     atom   15 type  1   force =    -0.00003061    0.00002049    0.17650180
     atom   16 type  1   force =    -0.00003210    0.00002142    0.68144518
     atom   17 type  1   force =    -0.53272953    0.21897602    0.98584069
     atom   18 type  1   force =    -0.87313938    0.29548387   -0.04713742
     atom   19 type  1   force =    -0.95276547    0.55007599    0.17295064
     atom   20 type  1   force =     0.03257677   -0.01881220   -0.42200787
     atom   21 type  1   force =     0.60603514    0.34985001   -0.57568959
     atom   22 type  1   force =    -0.20626769   -0.11912883    0.63003472
     atom   23 type  1   force =     0.00002690   -1.10022513    0.17296956
     atom   24 type  1   force =     0.00003476    0.03755635   -0.42201836
     atom   25 type  1   force =     0.95283505    0.55008518    0.17296903
     atom   26 type  1   force =    -0.03250839   -0.01881276   -0.42201757
     atom   27 type  1   force =     0.00003192    0.16771151   -0.58138813
     atom   28 type  1   force =     0.00003375    0.31233937    0.88524064
     atom   29 type  1   force =     0.14530239   -0.08389138   -0.58138482
     atom   30 type  1   force =     0.27054465   -0.15620013    0.88523605
     atom   31 type  1   force =     0.00003755   -0.69977121   -0.57568939
     atom   32 type  1   force =     0.00003387    0.23819310    0.63003473
     atom   33 type  1   force =    -0.60596672    0.34985385   -0.57568908
     atom   34 type  1   force =     0.20633421   -0.11912814    0.63003799
     atom   35 type  1   force =    -0.14522776   -0.08388523   -0.58138807
     atom   36 type  1   force =    -0.27047773   -0.15620055    0.88524026
     atom   37 type  2   force =    -0.00003151    0.00001919   -0.03555438
     atom   38 type  2   force =     0.82699206    0.38511133   -1.20392710
     atom   39 type  2   force =     0.16315788    0.34544639    0.34942954
     atom   40 type  2   force =     0.74699080    0.52368278   -1.20392373
     atom   41 type  2   force =     0.38071228   -0.03137101    0.34942486
     atom   42 type  2   force =    -0.08002565   -0.90875202   -1.20392327
     atom   43 type  2   force =     0.21752595   -0.31401890    0.34942508
     atom   44 type  2   force =    -0.82705544    0.38511979   -1.20393235
     atom   45 type  2   force =    -0.16321832    0.34544849    0.34942895
     atom   46 type  2   force =    -0.00002978    0.00001932   -0.22730820
     atom   47 type  2   force =    -0.00002943    0.00001910   -0.13526043
     atom   48 type  2   force =     0.07998121   -0.90874940   -1.20392631
     atom   49 type  2   force =    -0.21758445   -0.31401977    0.34942965
     atom   50 type  2   force =    -0.00002938    0.00001927   -0.65933655
     atom   51 type  2   force =    -0.00002892    0.00001898   -0.07295078
     atom   52 type  2   force =    -0.74704975    0.52369381   -1.20393200
     atom   53 type  2   force =    -0.38077432   -0.03136977    0.34942883
     atom   54 type  2   force =    -0.52338138    0.30217190    0.41559869
     atom   55 type  2   force =     0.55705837   -0.32162068    0.75551725
     atom   56 type  2   force =     0.21753853    0.12555620    0.26553883
     atom   57 type  2   force =    -0.09946904   -0.05746226   -0.21275573
     atom   58 type  2   force =     0.00002706   -0.60439954    0.41560476
     atom   59 type  2   force =     0.00003318    0.64318258    0.75552439
     atom   60 type  2   force =     0.52343776    0.30217331    0.41560415
     atom   61 type  2   force =    -0.55699694   -0.32162342    0.75552378
     atom   62 type  2   force =     0.00002965    0.28640197    0.31280812
     atom   63 type  2   force =     0.00003004   -0.02508695   -0.52865844
     atom   64 type  2   force =     0.24808128   -0.14323105    0.31280827
     atom   65 type  2   force =    -0.02168183    0.01251674   -0.52865733
     atom   66 type  2   force =     0.00003297   -0.25117528    0.26553857
     atom   67 type  2   force =     0.00002808    0.11487044   -0.21275582
     atom   68 type  2   force =    -0.21747857    0.12555970    0.26553998
     atom   69 type  2   force =     0.09952857   -0.05746416   -0.21275803
     atom   70 type  2   force =    -0.24801793   -0.14322877    0.31280824
     atom   71 type  2   force =     0.02173988    0.01251550   -0.52865825
     atom   72 type  1   force =    -0.00005717    0.00003457   -0.76212915
     The local contribution  to forces
     atom    1 type  1   force =    -0.00014854    0.00019428    2.81317870
     atom    2 type  1   force =    -0.00015521    0.00019654    1.08062967
     atom    3 type  1   force =    -0.47903633   -0.34061015   -1.06862809
     atom    4 type  1   force =    -0.71386816   -0.63771008    0.11086383
     atom    5 type  1   force =    -0.53474946   -0.24410375   -1.06860896
     atom    6 type  1   force =    -0.90947378   -0.29891731    0.11087407
     atom    7 type  1   force =    -0.05586449    0.58532466   -1.06861538
     atom    8 type  1   force =    -0.19575448    0.93724668    0.11086661
     atom    9 type  1   force =     0.47871965   -0.34060250   -1.06861140
     atom   10 type  1   force =     0.71355406   -0.63771961    0.11087427
     atom   11 type  1   force =    -0.00015809    0.00020774   -0.31041481
     atom   12 type  1   force =    -0.00015945    0.00021389    0.06337240
     atom   13 type  1   force =     0.05556526    0.58532016   -1.06862425
     atom   14 type  1   force =     0.19545296    0.93725398    0.11087041
     atom   15 type  1   force =    -0.00015011    0.00020303   -0.20182437
     atom   16 type  1   force =    -0.00015209    0.00020788   -0.67115681
     atom   17 type  1   force =     0.53443500   -0.24410200   -1.06862764
     atom   18 type  1   force =     0.90915363   -0.29892069    0.11086551
     atom   19 type  1   force =     1.21799655   -0.70319457   -0.25038688
     atom   20 type  1   force =    -0.08164972    0.04717937    0.58577685
     atom   21 type  1   force =    -0.54455948   -0.31549871    0.52251530
     atom   22 type  1   force =     0.23017416    0.13177131   -0.61979133
     atom   23 type  1   force =     0.00103934    1.40466767   -0.25039156
     atom   24 type  1   force =     0.00100995   -0.09599437    0.58578458
     atom   25 type  1   force =    -1.21594302   -0.70315838   -0.25040017
     atom   26 type  1   force =     0.08368728    0.04718085    0.58578983
     atom   27 type  1   force =     0.00101074   -0.11982859    0.60685397
     atom   28 type  1   force =     0.00101256   -0.30254684   -0.90147188
     atom   29 type  1   force =    -0.10229019    0.05910961    0.60684472
     atom   30 type  1   force =    -0.26053138    0.15046694   -0.90146352
     atom   31 type  1   force =     0.00101984    0.62941976    0.52250792
     atom   32 type  1   force =     0.00102272   -0.26516174   -0.61979000
     atom   33 type  1   force =     0.54659493   -0.31554358    0.52250699
     atom   34 type  1   force =    -0.22814435    0.13176544   -0.61979440
     atom   35 type  1   force =     0.10431471    0.05910218    0.60685746
     atom   36 type  1   force =     0.26256204    0.15046760   -0.90147630
     atom   37 type  2   force =    -0.00001269    0.00001434    0.03464855
     atom   38 type  2   force =    -0.76305603   -0.38290458    1.11449584
     atom   39 type  2   force =    -0.15874374   -0.33262023   -0.31524136
     atom   40 type  2   force =    -0.71315509   -0.46932225    1.11449343
     atom   41 type  2   force =    -0.36745653    0.02887508   -0.31524320
     atom   42 type  2   force =     0.04988653    0.85228911    1.11450306
     atom   43 type  2   force =    -0.20872477    0.30379956   -0.31524229
     atom   44 type  2   force =     0.76302055   -0.38290027    1.11449477
     atom   45 type  2   force =     0.15872134   -0.33262569   -0.31524411
     atom   46 type  2   force =    -0.00001637    0.00002135    0.22987343
     atom   47 type  2   force =    -0.00001094    0.00001798    0.11269610
     atom   48 type  2   force =    -0.04990976    0.85228422    1.11450125
     atom   49 type  2   force =     0.20869720    0.30380280   -0.31524368
     atom   50 type  2   force =    -0.00001211    0.00001616    0.61627441
     atom   51 type  2   force =    -0.00001448    0.00001991    0.06823750
     atom   52 type  2   force =     0.71311720   -0.46932597    1.11449332
     atom   53 type  2   force =     0.36742893    0.02887236   -0.31524398
     atom   54 type  2   force =     0.53379747   -0.30819273   -0.39328529
     atom   55 type  2   force =    -0.52007319    0.30026670   -0.66611021
     atom   56 type  2   force =    -0.19885726   -0.11489030   -0.24140061
     atom   57 type  2   force =     0.07824703    0.04508892    0.18891757
     atom   58 type  2   force =     0.00008808    0.61623799   -0.39329131
     atom   59 type  2   force =     0.00008524   -0.60067338   -0.66610828
     atom   60 type  2   force =    -0.53363289   -0.30818753   -0.39328824
     atom   61 type  2   force =     0.52023899    0.30027266   -0.66610902
     atom   62 type  2   force =     0.00008373   -0.27859932   -0.29774609
     atom   63 type  2   force =     0.00008112    0.01977247    0.49472974
     atom   64 type  2   force =    -0.24115808    0.13924197   -0.29774313
     atom   65 type  2   force =     0.01724400   -0.00995237    0.49472689
     atom   66 type  2   force =     0.00008388    0.22966565   -0.24139860
     atom   67 type  2   force =     0.00008440   -0.09030343    0.18891578
     atom   68 type  2   force =     0.19902802   -0.11490716   -0.24140276
     atom   69 type  2   force =    -0.07808169    0.04508410    0.18892229
[...]
     atom   42 type  2   force =     0.00000000    0.00000000    0.00000000
     atom   43 type  2   force =     0.00000000    0.00000000    0.00000000
     atom   44 type  2   force =     0.00000000    0.00000000    0.00000000
     atom   45 type  2   force =     0.00000000    0.00000000    0.00000000
     atom   46 type  2   force =     0.00000000    0.00000000    0.00000000
     atom   47 type  2   force =     0.00000000    0.00000000    0.00000000
     atom   48 type  2   force =     0.00000000    0.00000000    0.00000000
     atom   49 type  2   force =     0.00000000    0.00000000    0.00000000
     atom   50 type  2   force =     0.00000000    0.00000000    0.00000000
     atom   51 type  2   force =     0.00000000    0.00000000    0.00000000
     atom   52 type  2   force =     0.00000000    0.00000000    0.00000000
     atom   53 type  2   force =     0.00000000    0.00000000    0.00000000
     atom   54 type  2   force =     0.00000000    0.00000000    0.00000000
     atom   55 type  2   force =     0.00000000    0.00000000    0.00000000
     atom   56 type  2   force =     0.00000000    0.00000000    0.00000000
     atom   57 type  2   force =     0.00000000    0.00000000    0.00000000
     atom   58 type  2   force =     0.00000000    0.00000000    0.00000000
     atom   59 type  2   force =     0.00000000    0.00000000    0.00000000
     atom   60 type  2   force =     0.00000000    0.00000000    0.00000000
     atom   61 type  2   force =     0.00000000    0.00000000    0.00000000
     atom   62 type  2   force =     0.00000000    0.00000000    0.00000000
     atom   63 type  2   force =     0.00000000    0.00000000    0.00000000
     atom   64 type  2   force =     0.00000000    0.00000000    0.00000000
     atom   65 type  2   force =     0.00000000    0.00000000    0.00000000
     atom   66 type  2   force =     0.00000000    0.00000000    0.00000000
     atom   67 type  2   force =     0.00000000    0.00000000    0.00000000
     atom   68 type  2   force =     0.00000000    0.00000000    0.00000000
     atom   69 type  2   force =     0.00000000    0.00000000    0.00000000
     atom   70 type  2   force =     0.00000000    0.00000000    0.00000000
     atom   71 type  2   force =     0.00000000    0.00000000    0.00000000
     atom   72 type  1   force =     0.00000000    0.00000000    0.00000000
     The SCF correction term to forces
     atom    1 type  1   force =    -0.00000000    0.00000000    0.00008585
     atom    2 type  1   force =    -0.00000000    0.00000000   -0.00006532
     atom    3 type  1   force =     0.00001744   -0.00002545    0.00005879
     atom    4 type  1   force =    -0.00000637   -0.00000634   -0.00004378
     atom    5 type  1   force =    -0.00001332    0.00002783    0.00005879
     atom    6 type  1   force =    -0.00000868   -0.00000235   -0.00004378
     atom    7 type  1   force =    -0.00003076   -0.00000238    0.00005879
     atom    8 type  1   force =    -0.00000231    0.00000869   -0.00004378
     atom    9 type  1   force =    -0.00001744   -0.00002545    0.00005879
     atom   10 type  1   force =     0.00000637   -0.00000634   -0.00004378
     atom   11 type  1   force =    -0.00000000    0.00000000    0.00004381
     atom   12 type  1   force =    -0.00000000    0.00000000   -0.00005357
     atom   13 type  1   force =     0.00003076   -0.00000238    0.00005879
     atom   14 type  1   force =     0.00000230    0.00000869   -0.00004378
     atom   15 type  1   force =    -0.00000000    0.00000000    0.00003868
     atom   16 type  1   force =    -0.00000000    0.00000000   -0.00003938
     atom   17 type  1   force =     0.00001332    0.00002783    0.00005879
     atom   18 type  1   force =     0.00000868   -0.00000235   -0.00004378
     atom   19 type  1   force =     0.00004835   -0.00002791   -0.00006114
     atom   20 type  1   force =     0.00000398   -0.00000230    0.00000757
     atom   21 type  1   force =    -0.00000275   -0.00000159   -0.00001151
     atom   22 type  1   force =    -0.00000676   -0.00000391    0.00001841
     atom   23 type  1   force =     0.00000000    0.00005582   -0.00006114
     atom   24 type  1   force =     0.00000000    0.00000459    0.00000757
     atom   25 type  1   force =    -0.00004834   -0.00002791   -0.00006114
     atom   26 type  1   force =    -0.00000397   -0.00000230    0.00000757
     atom   27 type  1   force =     0.00000000   -0.00002668   -0.00002166
     atom   28 type  1   force =     0.00000000   -0.00001420    0.00002910
     atom   29 type  1   force =    -0.00002310    0.00001334   -0.00002166
     atom   30 type  1   force =    -0.00001229    0.00000710    0.00002910
     atom   31 type  1   force =     0.00000000    0.00000317   -0.00001151
     atom   32 type  1   force =     0.00000000    0.00000780    0.00001841
     atom   33 type  1   force =     0.00000276   -0.00000159   -0.00001151
     atom   34 type  1   force =     0.00000677   -0.00000391    0.00001841
     atom   35 type  1   force =     0.00002311    0.00001334   -0.00002166
     atom   36 type  1   force =     0.00001230    0.00000710    0.00002910
     atom   37 type  2   force =     0.00000000   -0.00000000    0.00001064
     atom   38 type  2   force =     0.00000460   -0.00001233   -0.00000109
     atom   39 type  2   force =    -0.00000186   -0.00000404   -0.00000117
     atom   40 type  2   force =    -0.00000838    0.00001015   -0.00000109
     atom   41 type  2   force =    -0.00000443    0.00000041   -0.00000117
     atom   42 type  2   force =    -0.00001298    0.00000218   -0.00000109
     atom   43 type  2   force =    -0.00000257    0.00000363   -0.00000117
     atom   44 type  2   force =    -0.00000460   -0.00001233   -0.00000109
     atom   45 type  2   force =     0.00000186   -0.00000404   -0.00000117
     atom   46 type  2   force =     0.00000000   -0.00000000    0.00000011
     atom   47 type  2   force =     0.00000000   -0.00000000    0.00000886
     atom   48 type  2   force =     0.00001298    0.00000218   -0.00000109
     atom   49 type  2   force =     0.00000257    0.00000363   -0.00000117
     atom   50 type  2   force =     0.00000000   -0.00000000   -0.00000125
     atom   51 type  2   force =     0.00000000   -0.00000000    0.00000252
     atom   52 type  2   force =     0.00000838    0.00001015   -0.00000109
     atom   53 type  2   force =     0.00000443    0.00000041   -0.00000117
     atom   54 type  2   force =     0.00000648   -0.00000374    0.00002639
     atom   55 type  2   force =    -0.00000074    0.00000043   -0.00003381
     atom   56 type  2   force =    -0.00000491   -0.00000283    0.00001285
     atom   57 type  2   force =    -0.00000026   -0.00000015   -0.00002343
     atom   58 type  2   force =    -0.00000000    0.00000748    0.00002639
     atom   59 type  2   force =    -0.00000000   -0.00000086   -0.00003381
     atom   60 type  2   force =    -0.00000648   -0.00000374    0.00002639
     atom   61 type  2   force =     0.00000074    0.00000043   -0.00003381
     atom   62 type  2   force =    -0.00000000   -0.00000722    0.00001455
     atom   63 type  2   force =    -0.00000000   -0.00000565   -0.00002507
     atom   64 type  2   force =    -0.00000625    0.00000361    0.00001455
     atom   65 type  2   force =    -0.00000489    0.00000282   -0.00002507
     atom   66 type  2   force =    -0.00000000    0.00000567    0.00001285
     atom   67 type  2   force =    -0.00000000    0.00000030   -0.00002343
     atom   68 type  2   force =     0.00000491   -0.00000283    0.00001285
     atom   69 type  2   force =     0.00000026   -0.00000015   -0.00002343
     atom   70 type  2   force =     0.00000625    0.00000361    0.00001455
     atom   71 type  2   force =     0.00000489    0.00000282   -0.00002507
     atom   72 type  1   force =     0.00000000   -0.00000000   -0.00003204

     Total force =     0.003957     Total SCF correction =     0.000316


     Computing stress (Cartesian axis) and pressure



     -----------------------------------------------
     Non-local corr. energy    =      19.98892475 Ry
     -----------------------------------------------

          total   stress  (Ry/bohr**3)                   (kbar)     P=       39.67
   0.00022078   0.00000000   0.00000000           32.48        0.00        0.00
   0.00000000   0.00022078   0.00000000            0.00       32.48        0.00
   0.00000000   0.00000000   0.00036752            0.00        0.00       54.06

     kinetic stress (kbar)  18524.36     -0.00      0.00
                               -0.00  18524.36     -0.00
                                0.00     -0.00  18569.80

     local   stress (kbar)   6149.19     -0.07     -0.00
                               -0.07   6149.10      0.00
                               -0.00      0.00   3493.60

     nonloc. stress (kbar)    139.18      0.00      0.00
                                0.00    139.18     -0.00
                                0.00     -0.00    131.90

     hartree stress (kbar)  19899.65     -0.00     -0.00
                               -0.00  19899.65      0.00
                               -0.00      0.00  21033.29

     exc-cor stress (kbar)   5416.09      0.00      0.00
                                0.00   5416.09      0.00
                                0.00      0.00   5419.18

     corecor stress (kbar) -14468.45     -0.00      0.00
                               -0.00 -14468.45      0.00
                                0.00      0.00 -14468.92

     ewald   stress (kbar) -35793.29      0.10      0.00
                                0.10 -35793.17     -0.00
                                0.00     -0.00 -34288.85

     hubbard stress (kbar)      0.00      0.00      0.00
                                0.00      0.00      0.00
                                0.00      0.00      0.00

     DFT-D   stress (kbar)      0.00      0.00      0.00
                                0.00      0.00      0.00
                                0.00      0.00      0.00

     XDM     stress (kbar)      0.00      0.00      0.00
                                0.00      0.00      0.00
                                0.00      0.00      0.00

     dft-nl  stress (kbar)    165.73     -0.00     -0.00
                               -0.00    165.73     -0.00
                               -0.00     -0.00    164.06

     TS-vdW  stress (kbar)      0.00      0.00      0.00
                                0.00      0.00      0.00
                                0.00      0.00      0.00

     MDB     stress (kbar)      0.00      0.00      0.00
                                0.00      0.00      0.00
                                0.00      0.00      0.00

     3D-RISM stress (kbar)      0.00      0.00      0.00
                                0.00      0.00      0.00
                                0.00      0.00      0.00


     BFGS Geometry Optimization
     Energy error            =      0.0E+00 Ry
     Gradient error          =      8.5E-04 Ry/Bohr

     bfgs converged in   1 scf cycles and   0 bfgs steps
     (criteria: energy <  1.0E-04 Ry, force <  1.0E-03 Ry/Bohr)

     End of BFGS Geometry Optimization

     Final energy             =  -11496.4013087948 Ry
Begin final coordinates

ATOMIC_POSITIONS (angstrom)
Ga            1.6222756606        0.9366198184        2.2943129640
Ga            1.6222756606        0.9366198184        7.8785641695
Ga           -0.0026020714        3.7220888934        2.6186300065
Ga           -0.0009326376        3.7913852204        7.9658707781
Ga           -1.6446988507        6.5662839462        2.6186300065
Ga           -1.5838517542        6.5330815547        7.9658707781
Ga            4.8470015069        0.9510706749        2.6186300065
Ga            4.9061791696        0.9149767393        7.9658707781
Ga            3.2471533926        3.7220888934        2.6186300065
Ga            3.2454839588        3.7913852204        7.9658707781
Ga            1.6222756606        6.5563425246        2.6630080523
Ga            1.6222756606        6.5563425246        7.9326582730
Ga            8.1311950655        0.9510706749        2.6186300065
Ga            8.0720174028        0.9149767393        7.9658707781
Ga            6.4890982862        3.7464811715        2.6418383361
Ga            6.4890982862        3.7464811715        7.9451742053
Ga            4.8892501719        6.5662839462        2.6186300065
Ga            4.8284030754        6.5330815547        7.9658707781
Ga           -0.2035037735        1.9907342706        5.4479503168
Ga           -0.0282470254        1.8895497398       10.4711968356
Ga           -1.6276620899        4.6799942392        5.2866486157
Ga           -1.6239156891        4.6821572247       10.6001501243
Ga           -3.2445503819        7.2579815046        5.4479503168
Ga           -3.2445503819        7.4603505660       10.4711968356
Ga            3.4480482610        1.9907342706        5.4479503168
Ga            3.2727915129        1.8895497398       10.4711968356
Ga            1.6222722437        4.6806647844        5.2829897741
Ga            1.6222722437        4.6927310456       10.5999241829
Ga           -0.0021142139        7.4941846603        5.2829897741
Ga            0.0083354748        7.4881515297       10.5999241829
Ga            6.4890948693        1.8794615673        5.2866486157
Ga            6.4890948693        1.8751355963       10.6001501243
Ga            4.8722065774        4.6799942392        5.2866486157
Ga            4.8684601766        4.6821572247       10.6001501243
Ga            3.2466587014        7.4941846603        5.2829897741
Ga            3.2362090127        7.4881515297       10.5999241829
N             1.6222756606        0.9366198184        9.8784168617
N            -0.0195464181        3.7767341217        4.6247471387
N             0.0026446084        3.7839092126        9.9239077477
N            -1.6058468682        6.5242870973        4.6247471387
N            -1.5885375439        6.5399175445        9.9239077477
N             4.9027978362        0.9384222955        4.6247471387
N             4.8979161340        0.9156167573        9.9239077477
N             3.2640977393        3.7767341217        4.6247471387
N             3.2419067128        3.7839092126        9.9239077477
N             1.6222756606        6.5563425246        4.6453022665
N             1.6222756606        6.5563425246        9.9284075885
N             8.0753987362        0.9384222955        4.6247471387
N             8.0802804384        0.9156167573        9.9239077477
N             6.4890982862        3.7464811715        4.6375490829
N             6.4890982862        3.7464811715        9.9311280743
N             4.8503981894        6.5242870973        4.6247471387
N             4.8330888651        6.5399175445        9.9239077477
N            -0.0635758160        1.9099468266        1.8429451859
N            -0.0576559023        1.9065289628        7.3949833474
N            -1.6227846581        4.6828102258        2.0019717217
N            -1.6261784326        4.6808508291        7.2728772653
N            -3.2445503819        7.4195563925        1.8429451859
N            -3.2445503819        7.4263921200        7.3949833474
N             3.3081203035        1.9099468266        1.8429451859
N             3.3022003898        1.9065289628        7.3949833474
N             1.6222722437        4.6817432207        2.0097447328
N             1.6222722437        4.6855246445        7.2707898707
N            -0.0011802607        7.4936454421        2.0097447328
N             0.0020945484        7.4917547302        7.2707898707
N             6.4890948693        1.8738295941        2.0019717217
N             6.4890948693        1.8777483875        7.2728772653
N             4.8673291456        4.6828102258        2.0019717217
N             4.8707229201        4.6808508291        7.2728772653
N             3.2457247482        7.4936454421        2.0097447328
N             3.2424499391        7.4917547302        7.2707898707
Ga            1.6222756606        0.9366198184        4.5211360532
End final coordinates



     Writing all to output data dir ./GaN.save/
 
     init_run     :      3.92s CPU      4.18s WALL (       1 calls)
     electrons    :     67.51s CPU     69.94s WALL (       1 calls)
     forces       :      1.84s CPU      1.91s WALL (       1 calls)
     stress       :     18.30s CPU     18.51s WALL (       1 calls)

     Called by init_run:
     wfcinit      :      2.21s CPU      2.31s WALL (       1 calls)
     wfcinit:atom :      0.02s CPU      0.02s WALL (       1 calls)
     wfcinit:wfcr :      2.02s CPU      2.06s WALL (       1 calls)
     potinit      :      0.88s CPU      0.98s WALL (       1 calls)
     hinit0       :      0.58s CPU      0.60s WALL (       1 calls)

     Called by electrons:
     c_bands      :     65.10s CPU     67.30s WALL (       2 calls)
     sum_band     :      1.25s CPU      1.28s WALL (       2 calls)
     v_of_rho     :      0.97s CPU      1.04s WALL (       2 calls)
     v_h          :      0.01s CPU      0.01s WALL (       2 calls)
     v_xc         :      1.69s CPU      1.78s WALL (       4 calls)
     newd         :      0.08s CPU      0.09s WALL (       2 calls)
     PAW_pot      :      0.50s CPU      0.50s WALL (       2 calls)
     mix_rho      :      0.00s CPU      0.00s WALL (       2 calls)
     vdW_kernel   :      0.24s CPU      0.25s WALL (       1 calls)

     Called by c_bands:
     init_us_2    :      0.09s CPU      0.11s WALL (       5 calls)
     init_us_2:cp :      0.09s CPU      0.11s WALL (       5 calls)
     cegterg      :     64.21s CPU     65.25s WALL (       2 calls)

     Called by sum_band:
     sum_band:wei :      0.00s CPU      0.00s WALL (       2 calls)
     sum_band:loo :      1.10s CPU      1.12s WALL (       2 calls)
     sum_band:buf :      0.00s CPU      0.00s WALL (       2 calls)
     sum_band:ini :      0.06s CPU      0.06s WALL (       2 calls)
     sum_band:cal :      0.43s CPU      0.43s WALL (       2 calls)
     sum_band:bec :      0.01s CPU      0.01s WALL (       2 calls)
     addusdens    :      0.09s CPU      0.10s WALL (       2 calls)
     addusd:skk   :      0.01s CPU      0.01s WALL (       4 calls)
     addusd:dgemm :      0.06s CPU      0.06s WALL (       4 calls)
     addusd:qvan2 :      0.02s CPU      0.02s WALL (       4 calls)

     Called by *egterg:
     cdiaghg      :     32.90s CPU     33.29s WALL (      41 calls)
     cegterg:over :      6.28s CPU      6.42s WALL (      40 calls)
     cegterg:upda :      3.96s CPU      4.05s WALL (      40 calls)
     cegterg:last :      3.32s CPU      3.34s WALL (       5 calls)
     h_psi        :     15.09s CPU     15.35s WALL (      43 calls)
     s_psi        :      3.18s CPU      3.20s WALL (      43 calls)
     g_psi        :      0.05s CPU      0.05s WALL (      40 calls)

     Called by h_psi:
     h_psi:calbec :      3.44s CPU      3.48s WALL (      43 calls)
     vloc_psi     :      8.28s CPU      8.40s WALL (      43 calls)
     add_vuspsi   :      3.20s CPU      3.24s WALL (      43 calls)

     General routines
     calbec       :      4.96s CPU      5.01s WALL (      50 calls)
     fft          :      0.66s CPU      0.68s WALL (     294 calls)
     ffts         :      0.01s CPU      0.01s WALL (       4 calls)
     fftw         :      7.97s CPU      8.08s WALL (   12210 calls)
     interpolate  :      0.01s CPU      0.01s WALL (       2 calls)
 
     Parallel routines

     PAW routines
     PAW_pot      :      0.50s CPU      0.50s WALL (       2 calls)
     PAW_symme    :      0.00s CPU      0.00s WALL (       3 calls)
 
     PWSCF        :   1m32.35s CPU   1m37.80s WALL

 
   This run was terminated on:   7:40: 0  18Feb2024            

=------------------------------------------------------------------------------=
   JOB DONE.
=------------------------------------------------------------------------------=
