
     Program PWSCF v.7.1 starts on  8May2024 at  6:40:38 

     This program is part of the open-source Quantum ESPRESSO suite
     for quantum simulation of materials; please cite
         "P. Giannozzi et al., J. Phys.:Condens. Matter 21 395502 (2009);
         "P. Giannozzi et al., J. Phys.:Condens. Matter 29 465901 (2017);
         "P. Giannozzi et al., J. Chem. Phys. 152 154105 (2020);
          URL http://www.quantum-espresso.org", 
     in publications or presentations arising from this work. More details at
     http://www.quantum-espresso.org/quote

     Parallel version (MPI & OpenMP), running on     256 processor cores
     Number of MPI processes:               256
     Threads/MPI process:                     1

     MPI processes distributed on     2 nodes
     1975000 MiB available memory on the printing compute node when the environment starts
 
     Reading input from espresso.pwi
Warning: card &CELL ignored
Warning: card    CELL_DYNAMICS    = 'BFGS' ignored
Warning: card / ignored

     Current dimensions of program PWSCF are:
     Max number of different atomic species (ntypx) = 10
     Max number of k-points (npk) =  40000
     Max angular momentum in pseudopotentials (lmaxx) =  4
     file Ga.pbe-dn-kjpaw_psl.1.0.0.UPF: wavefunction(s)  4S renormalized
     file N.pbe-n-kjpaw_psl.1.0.0.UPF: wavefunction(s)  2S renormalized

     **************************************************************************
     Initializing libbeef V0.1.2 with the BEEF-vdW functional.
     Citation: Wellendorff et al., PRB 85, 235149 (2012).
     **************************************************************************


     IMPORTANT: XC functional enforced from input :
     Exchange-correlation= BEEF-VDW
                           (   1   4  43  14   2   0   0)
     Any further DFT definition will be discarded
     Please, verify this is what you really want

 
     K-points division:     npool     =       4
     R & G space division:  proc/nbgrp/npool/nimage =      64
     Subspace diagonalization in iterative solution of the eigenvalue problem:
     a serial algorithm will be used

 
     Parallelization info
     --------------------
     sticks:   dense  smooth     PW     G-vecs:    dense   smooth      PW
     Min         354     283     73                42160    30167    3987
     Max         356     285     74                42163    30170    3996
     Sum       22693   18145   4705              2698283  1930731  255309
 
     Using Slab Decomposition
 


     bravais-lattice index     =            4
     lattice parameter (alat)  =      30.6565  a.u.
     unit-cell volume          =   24400.9461 (a.u.)^3
     number of atoms/cell      =          300
     number of atomic types    =            2
     number of electrons       =      2710.00
     number of Kohn-Sham states=         1626
     kinetic-energy cutoff     =      70.0000  Ry
     charge density cutoff     =     350.0000  Ry
     scf convergence threshold =      1.0E-07
     mixing beta               =       0.7000
     number of iterations used =            8  plain     mixing
     energy convergence thresh.=      1.0E-04
     force convergence thresh. =      1.0E-03
     Exchange-correlation= BEEF-VDW
                           (   1   4  43  14   2   0   0)
     nstep                     =           50


     celldm(1)=  30.656540  celldm(2)=   0.000000  celldm(3)=   0.977927
     celldm(4)=   0.000000  celldm(5)=   0.000000  celldm(6)=   0.000000

     crystal axes: (cart. coord. in units of alat)
               a(1) = (   1.000000   0.000000   0.000000 )  
               a(2) = (  -0.500000   0.866025   0.000000 )  
               a(3) = (   0.000000   0.000000   0.977927 )  

     reciprocal axes: (cart. coord. in units 2 pi/alat)
               b(1) = (  1.000000  0.577350 -0.000000 )  
               b(2) = (  0.000000  1.154701  0.000000 )  
               b(3) = (  0.000000 -0.000000  1.022571 )  


     PseudoPot. # 1 for Ga read from file:
     //group///packages/espresso/pseudo/psl_1.0.0/pslibrary.1.0.0/pbe/PSEUDOPOTENTIALS/Ga.pbe-dn-kjpaw_psl.1.0.0.UPF
     MD5 check sum: cd2a01e492f15b435d17032472d8505c
     Pseudo is Projector augmented-wave + core cor, Zval = 13.0
     Generated using 'atomic' code by A. Dal Corso  v.7.1
     Shape of augmentation charge: PSQ
     Using radial grid of 1205 points,  6 beta functions with: 
                l(1) =   0
                l(2) =   0
                l(3) =   1
                l(4) =   1
                l(5) =   2
                l(6) =   2
     Q(r) pseudized with 0 coefficients 


     PseudoPot. # 2 for N  read from file:
     //group///packages/espresso/pseudo/psl_1.0.0/pslibrary.1.0.0/pbe/PSEUDOPOTENTIALS/N.pbe-n-kjpaw_psl.1.0.0.UPF
     MD5 check sum: f77f775694dac7e2c3fe1c82443d1a16
     Pseudo is Projector augmented-wave + core cor, Zval =  5.0
     Generated using 'atomic' code by A. Dal Corso  v.7.1
     Shape of augmentation charge: PSQ
     Using radial grid of 1085 points,  4 beta functions with: 
                l(1) =   0
                l(2) =   0
                l(3) =   1
                l(4) =   1
     Q(r) pseudized with 0 coefficients 


     atomic species   valence    mass     pseudopotential
        Ga            13.00    69.72300     Ga( 1.00)
        N              5.00    14.00700     N ( 1.00)

      2 Sym. Ops. (no inversion) found


                                    s                        frac. trans.

      isym =  1     identity                                     

 cryst.   s( 1) = (     1          0          0      )
                  (     0          1          0      )
                  (     0          0          1      )

 cart.    s( 1) = (  1.0000000  0.0000000  0.0000000 )
                  (  0.0000000  1.0000000  0.0000000 )
                  (  0.0000000  0.0000000  1.0000000 )


      isym =  2     inv. 180 deg rotation - cryst. axis [0,1,0]  

 cryst.   s( 2) = (     1          1          0      )
                  (     0         -1          0      )
                  (     0          0          1      )

 cart.    s( 2) = (  0.5000000  0.8660254  0.0000000 )
                  (  0.8660254 -0.5000000  0.0000000 )
                  (  0.0000000  0.0000000  1.0000000 )


     point group C_s (m)    
     there are  2 classes
     the character table:

       E     s    
A'     1.00  1.00
A''    1.00 -1.00

     the symmetry operations in each class and the name of the first element:

     E        1
          identity                                               
     s        2
          inv. 180 deg rotation - cryst. axis [0,1,0]            

   Cartesian axes

     site n.     atom                  positions (alat units)
         1           Ga  tau(   1) = (   0.1000001   0.0577350   0.1627148  )
         2           Ga  tau(   2) = (   0.1000001   0.0577350   0.4886906  )
         3           Ga  tau(   3) = (   0.1000001   0.0577350   0.8146665  )
         4           Ga  tau(   4) = (   0.0000001   0.2309401   0.1627148  )
         5           Ga  tau(   5) = (   0.0000001   0.2309401   0.4886906  )
         6           Ga  tau(   6) = (   0.0000001   0.2309401   0.8146665  )
         7           Ga  tau(   7) = (  -0.0999999   0.4041451   0.1627148  )
         8           Ga  tau(   8) = (  -0.0999999   0.4041451   0.4886906  )
         9           Ga  tau(   9) = (  -0.0999999   0.4041451   0.8146665  )
        10           Ga  tau(  10) = (  -0.1999999   0.5773502   0.1627148  )
        11           Ga  tau(  11) = (  -0.1999999   0.5773502   0.4886906  )
        12           Ga  tau(  12) = (  -0.1999999   0.5773502   0.8146665  )
        13           Ga  tau(  13) = (  -0.2999999   0.7505553   0.1627148  )
        14           Ga  tau(  14) = (  -0.2999999   0.7505553   0.4886906  )
        15           Ga  tau(  15) = (  -0.2999999   0.7505553   0.8146665  )
        16           Ga  tau(  16) = (   0.3000001   0.0577350   0.1627148  )
        17           Ga  tau(  17) = (   0.3000001   0.0577350   0.4886906  )
        18           Ga  tau(  18) = (   0.3000001   0.0577350   0.8146665  )
        19           Ga  tau(  19) = (   0.2000001   0.2309401   0.1627148  )
        20           Ga  tau(  20) = (   0.2000001   0.2309401   0.4886906  )
        21           Ga  tau(  21) = (   0.2000001   0.2309401   0.8146665  )
        22           Ga  tau(  22) = (   0.1000001   0.4041451   0.1627148  )
        23           Ga  tau(  23) = (   0.1000001   0.4041451   0.4886906  )
        24           Ga  tau(  24) = (   0.1000001   0.4041451   0.8146665  )
        25           Ga  tau(  25) = (   0.0000001   0.5773502   0.1627148  )
        26           Ga  tau(  26) = (   0.0000001   0.5773502   0.4886906  )
        27           Ga  tau(  27) = (   0.0000001   0.5773502   0.8146665  )
        28           Ga  tau(  28) = (  -0.0999999   0.7505553   0.1627148  )
        29           Ga  tau(  29) = (  -0.0999999   0.7505553   0.4886906  )
        30           Ga  tau(  30) = (  -0.0999999   0.7505553   0.8146665  )
        31           Ga  tau(  31) = (   0.5000001   0.0577350   0.1627148  )
        32           Ga  tau(  32) = (   0.5000001   0.0577350   0.4886906  )
        33           Ga  tau(  33) = (   0.5000001   0.0577350   0.8146665  )
        34           Ga  tau(  34) = (   0.4000001   0.2309401   0.1627148  )
        35           Ga  tau(  35) = (   0.4000001   0.2309401   0.4886906  )
        36           Ga  tau(  36) = (   0.4000001   0.2309401   0.8146665  )
        37           Ga  tau(  37) = (   0.3000001   0.4041451   0.1627148  )
        38           Ga  tau(  38) = (   0.3000001   0.4041451   0.4886906  )
        39           Ga  tau(  39) = (   0.3000001   0.4041451   0.8146665  )
        40           Ga  tau(  40) = (   0.2000001   0.5773502   0.1627148  )
        41           Ga  tau(  41) = (   0.2000001   0.5773502   0.4886906  )
        42           Ga  tau(  42) = (   0.2000001   0.5773502   0.8146665  )
        43           Ga  tau(  43) = (   0.1000001   0.7505553   0.1627148  )
        44           Ga  tau(  44) = (   0.1000001   0.7505553   0.4886906  )
        45           Ga  tau(  45) = (   0.1000001   0.7505553   0.8146665  )
        46           Ga  tau(  46) = (   0.7000001   0.0577350   0.1627148  )
        47           Ga  tau(  47) = (   0.7000001   0.0577350   0.4886906  )
        48           Ga  tau(  48) = (   0.7000001   0.0577350   0.8146665  )
        49           Ga  tau(  49) = (   0.6000001   0.2309401   0.1627148  )
        50           Ga  tau(  50) = (   0.6000001   0.2309401   0.4886906  )
        51           Ga  tau(  51) = (   0.6000001   0.2309401   0.8146665  )
        52           Ga  tau(  52) = (   0.5000001   0.4041451   0.1627148  )
        53           Ga  tau(  53) = (   0.5000001   0.4041451   0.4886906  )
        54           Ga  tau(  54) = (   0.5000001   0.4041451   0.8146665  )
        55           Ga  tau(  55) = (   0.4000001   0.5773502   0.1627148  )
        56           Ga  tau(  56) = (   0.4000001   0.5773502   0.4886906  )
        57           Ga  tau(  57) = (   0.4000001   0.5773502   0.8146665  )
        58           Ga  tau(  58) = (   0.3000001   0.7505553   0.1627148  )
        59           Ga  tau(  59) = (   0.3000001   0.7505553   0.4886906  )
        60           Ga  tau(  60) = (   0.3000001   0.7505553   0.8146665  )
        61           Ga  tau(  61) = (   0.9000001   0.0577350   0.1627148  )
        62           Ga  tau(  62) = (   0.9000001   0.0577350   0.4886906  )
        63           Ga  tau(  63) = (   0.9000001   0.0577350   0.8146665  )
        64           Ga  tau(  64) = (   0.8000001   0.2309401   0.1627148  )
        65           Ga  tau(  65) = (   0.8000001   0.2309401   0.4886906  )
        66           Ga  tau(  66) = (   0.8000001   0.2309401   0.8146665  )
        67           Ga  tau(  67) = (   0.7000001   0.4041451   0.1627148  )
        68           Ga  tau(  68) = (   0.7000001   0.4041451   0.4886906  )
        69           Ga  tau(  69) = (   0.7000001   0.4041451   0.8146665  )
        70           Ga  tau(  70) = (   0.6000001   0.5773502   0.1627148  )
        71           Ga  tau(  71) = (   0.6000001   0.5773502   0.4886906  )
        72           Ga  tau(  72) = (   0.6000001   0.5773502   0.8146665  )
        73           Ga  tau(  73) = (   0.5000001   0.7505553   0.1627148  )
        74           Ga  tau(  74) = (   0.5000001   0.7505553   0.4886906  )
        75           Ga  tau(  75) = (   0.5000001   0.7505553   0.8146665  )
        76           Ga  tau(  76) = (  -0.0000001   0.1154701   0.3257027  )
        77           Ga  tau(  77) = (  -0.0000001   0.1154701   0.6516786  )
        78           Ga  tau(  78) = (  -0.0000001   0.1154701   0.9776544  )
        79           Ga  tau(  79) = (  -0.1000001   0.2886752   0.3257027  )
        80           Ga  tau(  80) = (  -0.1000001   0.2886752   0.6516786  )
        81           Ga  tau(  81) = (  -0.1000001   0.2886752   0.9776544  )
        82           Ga  tau(  82) = (  -0.2000001   0.4618803   0.3257027  )
        83           Ga  tau(  83) = (  -0.2000001   0.4618803   0.6516786  )
        84           Ga  tau(  84) = (  -0.2000001   0.4618803   0.9776544  )
        85           Ga  tau(  85) = (  -0.3000001   0.6350854   0.3257027  )
        86           Ga  tau(  86) = (  -0.3000001   0.6350854   0.6516786  )
        87           Ga  tau(  87) = (  -0.3000001   0.6350854   0.9776544  )
        88           Ga  tau(  88) = (  -0.4000001   0.8082905   0.3257027  )
        89           Ga  tau(  89) = (  -0.4000001   0.8082905   0.6516786  )
        90           Ga  tau(  90) = (  -0.4000001   0.8082905   0.9776544  )
        91           Ga  tau(  91) = (   0.1999999   0.1154701   0.3257027  )
        92           Ga  tau(  92) = (   0.1999999   0.1154701   0.6516786  )
        93           Ga  tau(  93) = (   0.1999999   0.1154701   0.9776544  )
        94           Ga  tau(  94) = (   0.0999999   0.2886752   0.3257027  )
        95           Ga  tau(  95) = (   0.0999999   0.2886752   0.6516786  )
        96           Ga  tau(  96) = (   0.0999999   0.2886752   0.9776544  )
        97           Ga  tau(  97) = (  -0.0000001   0.4618803   0.3257027  )
        98           Ga  tau(  98) = (  -0.0000001   0.4618803   0.6516786  )
        99           Ga  tau(  99) = (  -0.0000001   0.4618803   0.9776544  )
       100           Ga  tau( 100) = (  -0.1000001   0.6350854   0.3257027  )
       101           Ga  tau( 101) = (  -0.1000001   0.6350854   0.6516786  )
       102           Ga  tau( 102) = (  -0.1000001   0.6350854   0.9776544  )
       103           Ga  tau( 103) = (  -0.2000001   0.8082905   0.3257027  )
       104           Ga  tau( 104) = (  -0.2000001   0.8082905   0.6516786  )
       105           Ga  tau( 105) = (  -0.2000001   0.8082905   0.9776544  )
       106           Ga  tau( 106) = (   0.3999999   0.1154701   0.3257027  )
       107           Ga  tau( 107) = (   0.3999999   0.1154701   0.6516786  )
       108           Ga  tau( 108) = (   0.3999999   0.1154701   0.9776544  )
       109           Ga  tau( 109) = (   0.2999999   0.2886752   0.3257027  )
       110           Ga  tau( 110) = (   0.2999999   0.2886752   0.6516786  )
       111           Ga  tau( 111) = (   0.2999999   0.2886752   0.9776544  )
       112           Ga  tau( 112) = (   0.1999999   0.4618803   0.3257027  )
       113           Ga  tau( 113) = (   0.1999999   0.4618803   0.6516786  )
       114           Ga  tau( 114) = (   0.1999999   0.4618803   0.9776544  )
       115           Ga  tau( 115) = (   0.0999999   0.6350854   0.3257027  )
       116           Ga  tau( 116) = (   0.0999999   0.6350854   0.6516786  )
       117           Ga  tau( 117) = (   0.0999999   0.6350854   0.9776544  )
       118           Ga  tau( 118) = (  -0.0000001   0.8082905   0.3257027  )
       119           Ga  tau( 119) = (  -0.0000001   0.8082905   0.6516786  )
       120           Ga  tau( 120) = (  -0.0000001   0.8082905   0.9776544  )
       121           Ga  tau( 121) = (   0.5999999   0.1154701   0.3257027  )
       122           Ga  tau( 122) = (   0.5999999   0.1154701   0.6516786  )
       123           Ga  tau( 123) = (   0.5999999   0.1154701   0.9776544  )
       124           Ga  tau( 124) = (   0.4999999   0.2886752   0.3257027  )
       125           Ga  tau( 125) = (   0.4999999   0.2886752   0.6516786  )
       126           Ga  tau( 126) = (   0.4999999   0.2886752   0.9776544  )
       127           Ga  tau( 127) = (   0.3999999   0.4618803   0.3257027  )
       128           Ga  tau( 128) = (   0.3999999   0.4618803   0.6516786  )
       129           Ga  tau( 129) = (   0.3999999   0.4618803   0.9776544  )
       130           Ga  tau( 130) = (   0.2999999   0.6350854   0.3257027  )
       131           Ga  tau( 131) = (   0.2999999   0.6350854   0.6516786  )
       132           Ga  tau( 132) = (   0.2999999   0.6350854   0.9776544  )
       133           Ga  tau( 133) = (   0.1999999   0.8082905   0.3257027  )
       134           Ga  tau( 134) = (   0.1999999   0.8082905   0.6516786  )
       135           Ga  tau( 135) = (   0.1999999   0.8082905   0.9776544  )
       136           Ga  tau( 136) = (   0.7999999   0.1154701   0.3257027  )
       137           Ga  tau( 137) = (   0.7999999   0.1154701   0.6516786  )
       138           Ga  tau( 138) = (   0.7999999   0.1154701   0.9776544  )
       139           Ga  tau( 139) = (   0.6999999   0.2886752   0.3257027  )
       140           Ga  tau( 140) = (   0.6999999   0.2886752   0.6516786  )
       141           Ga  tau( 141) = (   0.6999999   0.2886752   0.9776544  )
       142           Ga  tau( 142) = (   0.5999999   0.4618803   0.3257027  )
       143           Ga  tau( 143) = (   0.5999999   0.4618803   0.6516786  )
       144           Ga  tau( 144) = (   0.5999999   0.4618803   0.9776544  )
       145           Ga  tau( 145) = (   0.4999999   0.6350854   0.3257027  )
       146           Ga  tau( 146) = (   0.4999999   0.6350854   0.6516786  )
       147           Ga  tau( 147) = (   0.4999999   0.6350854   0.9776544  )
       148           Ga  tau( 148) = (   0.3999999   0.8082905   0.3257027  )
       149           Ga  tau( 149) = (   0.3999999   0.8082905   0.6516786  )
       150           Ga  tau( 150) = (   0.3999999   0.8082905   0.9776544  )
       151           N   tau( 151) = (   0.1000001   0.0577350   0.6114777  )
       152           N   tau( 152) = (   0.1000001   0.0577350   0.9374535  )
       153           N   tau( 153) = (   0.0000001   0.2309401   0.2855019  )
       154           N   tau( 154) = (   0.0000001   0.2309401   0.6114777  )
       155           N   tau( 155) = (   0.0000001   0.2309401   0.9374535  )
       156           N   tau( 156) = (  -0.0999999   0.4041451   0.2855019  )
       157           N   tau( 157) = (  -0.0999999   0.4041451   0.6114777  )
       158           N   tau( 158) = (  -0.0999999   0.4041451   0.9374535  )
       159           N   tau( 159) = (  -0.1999999   0.5773502   0.2855019  )
       160           N   tau( 160) = (  -0.1999999   0.5773502   0.6114777  )
       161           N   tau( 161) = (  -0.1999999   0.5773502   0.9374535  )
       162           N   tau( 162) = (  -0.2999999   0.7505553   0.2855019  )
       163           N   tau( 163) = (  -0.2999999   0.7505553   0.6114777  )
       164           N   tau( 164) = (  -0.2999999   0.7505553   0.9374535  )
       165           N   tau( 165) = (   0.3000001   0.0577350   0.2855019  )
       166           N   tau( 166) = (   0.3000001   0.0577350   0.6114777  )
       167           N   tau( 167) = (   0.3000001   0.0577350   0.9374535  )
       168           N   tau( 168) = (   0.2000001   0.2309401   0.2855019  )
       169           N   tau( 169) = (   0.2000001   0.2309401   0.6114777  )
       170           N   tau( 170) = (   0.2000001   0.2309401   0.9374535  )
       171           N   tau( 171) = (   0.1000001   0.4041451   0.2855019  )
       172           N   tau( 172) = (   0.1000001   0.4041451   0.6114777  )
       173           N   tau( 173) = (   0.1000001   0.4041451   0.9374535  )
       174           N   tau( 174) = (   0.0000001   0.5773502   0.2855019  )
       175           N   tau( 175) = (   0.0000001   0.5773502   0.6114777  )
       176           N   tau( 176) = (   0.0000001   0.5773502   0.9374535  )
       177           N   tau( 177) = (  -0.0999999   0.7505553   0.2855019  )
       178           N   tau( 178) = (  -0.0999999   0.7505553   0.6114777  )
       179           N   tau( 179) = (  -0.0999999   0.7505553   0.9374535  )
       180           N   tau( 180) = (   0.5000001   0.0577350   0.2855019  )
       181           N   tau( 181) = (   0.5000001   0.0577350   0.6114777  )
       182           N   tau( 182) = (   0.5000001   0.0577350   0.9374535  )
       183           N   tau( 183) = (   0.4000001   0.2309401   0.2855019  )
       184           N   tau( 184) = (   0.4000001   0.2309401   0.6114777  )
       185           N   tau( 185) = (   0.4000001   0.2309401   0.9374535  )
       186           N   tau( 186) = (   0.3000001   0.4041451   0.2855019  )
       187           N   tau( 187) = (   0.3000001   0.4041451   0.6114777  )
       188           N   tau( 188) = (   0.3000001   0.4041451   0.9374535  )
       189           N   tau( 189) = (   0.2000001   0.5773502   0.2855019  )
       190           N   tau( 190) = (   0.2000001   0.5773502   0.6114777  )
       191           N   tau( 191) = (   0.2000001   0.5773502   0.9374535  )
       192           N   tau( 192) = (   0.1000001   0.7505553   0.2855019  )
       193           N   tau( 193) = (   0.1000001   0.7505553   0.6114777  )
       194           N   tau( 194) = (   0.1000001   0.7505553   0.9374535  )
       195           N   tau( 195) = (   0.7000001   0.0577350   0.2855019  )
       196           N   tau( 196) = (   0.7000001   0.0577350   0.6114777  )
       197           N   tau( 197) = (   0.7000001   0.0577350   0.9374535  )
       198           N   tau( 198) = (   0.6000001   0.2309401   0.2855019  )
       199           N   tau( 199) = (   0.6000001   0.2309401   0.6114777  )
       200           N   tau( 200) = (   0.6000001   0.2309401   0.9374535  )
       201           N   tau( 201) = (   0.5000001   0.4041451   0.2855019  )
       202           N   tau( 202) = (   0.5000001   0.4041451   0.6114777  )
       203           N   tau( 203) = (   0.5000001   0.4041451   0.9374535  )
       204           N   tau( 204) = (   0.4000001   0.5773502   0.2855019  )
       205           N   tau( 205) = (   0.4000001   0.5773502   0.6114777  )
       206           N   tau( 206) = (   0.4000001   0.5773502   0.9374535  )
       207           N   tau( 207) = (   0.3000001   0.7505553   0.2855019  )
       208           N   tau( 208) = (   0.3000001   0.7505553   0.6114777  )
       209           N   tau( 209) = (   0.3000001   0.7505553   0.9374535  )
       210           N   tau( 210) = (   0.9000001   0.0577350   0.2855019  )
       211           N   tau( 211) = (   0.9000001   0.0577350   0.6114777  )
       212           N   tau( 212) = (   0.9000001   0.0577350   0.9374535  )
       213           N   tau( 213) = (   0.8000001   0.2309401   0.2855019  )
       214           N   tau( 214) = (   0.8000001   0.2309401   0.6114777  )
       215           N   tau( 215) = (   0.8000001   0.2309401   0.9374535  )
       216           N   tau( 216) = (   0.7000001   0.4041451   0.2855019  )
       217           N   tau( 217) = (   0.7000001   0.4041451   0.6114777  )
       218           N   tau( 218) = (   0.7000001   0.4041451   0.9374535  )
       219           N   tau( 219) = (   0.6000001   0.5773502   0.2855019  )
       220           N   tau( 220) = (   0.6000001   0.5773502   0.6114777  )
       221           N   tau( 221) = (   0.6000001   0.5773502   0.9374535  )
       222           N   tau( 222) = (   0.5000001   0.7505553   0.2855019  )
       223           N   tau( 223) = (   0.5000001   0.7505553   0.6114777  )
       224           N   tau( 224) = (   0.5000001   0.7505553   0.9374535  )
       225           N   tau( 225) = (  -0.0000001   0.1154701   0.1225140  )
       226           N   tau( 226) = (  -0.0000001   0.1154701   0.4484898  )
       227           N   tau( 227) = (  -0.0000001   0.1154701   0.7744656  )
       228           N   tau( 228) = (  -0.1000001   0.2886752   0.1225140  )
       229           N   tau( 229) = (  -0.1000001   0.2886752   0.4484898  )
       230           N   tau( 230) = (  -0.1000001   0.2886752   0.7744656  )
       231           N   tau( 231) = (  -0.2000001   0.4618803   0.1225140  )
       232           N   tau( 232) = (  -0.2000001   0.4618803   0.4484898  )
       233           N   tau( 233) = (  -0.2000001   0.4618803   0.7744656  )
       234           N   tau( 234) = (  -0.3000001   0.6350854   0.1225140  )
       235           N   tau( 235) = (  -0.3000001   0.6350854   0.4484898  )
       236           N   tau( 236) = (  -0.3000001   0.6350854   0.7744656  )
       237           N   tau( 237) = (  -0.4000001   0.8082905   0.1225140  )
       238           N   tau( 238) = (  -0.4000001   0.8082905   0.4484898  )
       239           N   tau( 239) = (  -0.4000001   0.8082905   0.7744656  )
       240           N   tau( 240) = (   0.1999999   0.1154701   0.1225140  )
       241           N   tau( 241) = (   0.1999999   0.1154701   0.4484898  )
       242           N   tau( 242) = (   0.1999999   0.1154701   0.7744656  )
       243           N   tau( 243) = (   0.0999999   0.2886752   0.1225140  )
       244           N   tau( 244) = (   0.0999999   0.2886752   0.4484898  )
       245           N   tau( 245) = (   0.0999999   0.2886752   0.7744656  )
       246           N   tau( 246) = (  -0.0000001   0.4618803   0.1225140  )
       247           N   tau( 247) = (  -0.0000001   0.4618803   0.4484898  )
       248           N   tau( 248) = (  -0.0000001   0.4618803   0.7744656  )
       249           N   tau( 249) = (  -0.1000001   0.6350854   0.1225140  )
       250           N   tau( 250) = (  -0.1000001   0.6350854   0.4484898  )
       251           N   tau( 251) = (  -0.1000001   0.6350854   0.7744656  )
       252           N   tau( 252) = (  -0.2000001   0.8082905   0.1225140  )
       253           N   tau( 253) = (  -0.2000001   0.8082905   0.4484898  )
       254           N   tau( 254) = (  -0.2000001   0.8082905   0.7744656  )
       255           N   tau( 255) = (   0.3999999   0.1154701   0.1225140  )
       256           N   tau( 256) = (   0.3999999   0.1154701   0.4484898  )
       257           N   tau( 257) = (   0.3999999   0.1154701   0.7744656  )
       258           N   tau( 258) = (   0.2999999   0.2886752   0.1225140  )
       259           N   tau( 259) = (   0.2999999   0.2886752   0.4484898  )
       260           N   tau( 260) = (   0.2999999   0.2886752   0.7744656  )
       261           N   tau( 261) = (   0.1999999   0.4618803   0.1225140  )
       262           N   tau( 262) = (   0.1999999   0.4618803   0.4484898  )
       263           N   tau( 263) = (   0.1999999   0.4618803   0.7744656  )
       264           N   tau( 264) = (   0.0999999   0.6350854   0.1225140  )
       265           N   tau( 265) = (   0.0999999   0.6350854   0.4484898  )
       266           N   tau( 266) = (   0.0999999   0.6350854   0.7744656  )
       267           N   tau( 267) = (  -0.0000001   0.8082905   0.1225140  )
       268           N   tau( 268) = (  -0.0000001   0.8082905   0.4484898  )
       269           N   tau( 269) = (  -0.0000001   0.8082905   0.7744656  )
       270           N   tau( 270) = (   0.5999999   0.1154701   0.1225140  )
       271           N   tau( 271) = (   0.5999999   0.1154701   0.4484898  )
       272           N   tau( 272) = (   0.5999999   0.1154701   0.7744656  )
       273           N   tau( 273) = (   0.4999999   0.2886752   0.1225140  )
       274           N   tau( 274) = (   0.4999999   0.2886752   0.4484898  )
       275           N   tau( 275) = (   0.4999999   0.2886752   0.7744656  )
       276           N   tau( 276) = (   0.3999999   0.4618803   0.1225140  )
       277           N   tau( 277) = (   0.3999999   0.4618803   0.4484898  )
       278           N   tau( 278) = (   0.3999999   0.4618803   0.7744656  )
       279           N   tau( 279) = (   0.2999999   0.6350854   0.1225140  )
       280           N   tau( 280) = (   0.2999999   0.6350854   0.4484898  )
       281           N   tau( 281) = (   0.2999999   0.6350854   0.7744656  )
       282           N   tau( 282) = (   0.1999999   0.8082905   0.1225140  )
       283           N   tau( 283) = (   0.1999999   0.8082905   0.4484898  )
       284           N   tau( 284) = (   0.1999999   0.8082905   0.7744656  )
       285           N   tau( 285) = (   0.7999999   0.1154701   0.1225140  )
       286           N   tau( 286) = (   0.7999999   0.1154701   0.4484898  )
       287           N   tau( 287) = (   0.7999999   0.1154701   0.7744656  )
       288           N   tau( 288) = (   0.6999999   0.2886752   0.1225140  )
       289           N   tau( 289) = (   0.6999999   0.2886752   0.4484898  )
       290           N   tau( 290) = (   0.6999999   0.2886752   0.7744656  )
       291           N   tau( 291) = (   0.5999999   0.4618803   0.1225140  )
       292           N   tau( 292) = (   0.5999999   0.4618803   0.4484898  )
       293           N   tau( 293) = (   0.5999999   0.4618803   0.7744656  )
       294           N   tau( 294) = (   0.4999999   0.6350854   0.1225140  )
       295           N   tau( 295) = (   0.4999999   0.6350854   0.4484898  )
       296           N   tau( 296) = (   0.4999999   0.6350854   0.7744656  )
       297           N   tau( 297) = (   0.3999999   0.8082905   0.1225140  )
       298           N   tau( 298) = (   0.3999999   0.8082905   0.4484898  )
       299           N   tau( 299) = (   0.3999999   0.8082905   0.7744656  )
       300           Ga  tau( 300) = (   0.1000001   0.0577350   0.2855019  )

   Crystallographic axes

     site n.     atom                  positions (cryst. coord.)
         1           Ga  tau(   1) = (  0.1333334  0.0666666  0.1663874  )
         2           Ga  tau(   2) = (  0.1333334  0.0666666  0.4997208  )
         3           Ga  tau(   3) = (  0.1333334  0.0666666  0.8330541  )
         4           Ga  tau(   4) = (  0.1333334  0.2666666  0.1663874  )
         5           Ga  tau(   5) = (  0.1333334  0.2666666  0.4997208  )
         6           Ga  tau(   6) = (  0.1333334  0.2666666  0.8330541  )
         7           Ga  tau(   7) = (  0.1333334  0.4666666  0.1663874  )
         8           Ga  tau(   8) = (  0.1333334  0.4666666  0.4997208  )
         9           Ga  tau(   9) = (  0.1333334  0.4666666  0.8330541  )
        10           Ga  tau(  10) = (  0.1333334  0.6666666  0.1663874  )
        11           Ga  tau(  11) = (  0.1333334  0.6666666  0.4997208  )
        12           Ga  tau(  12) = (  0.1333334  0.6666666  0.8330541  )
        13           Ga  tau(  13) = (  0.1333334  0.8666666  0.1663874  )
        14           Ga  tau(  14) = (  0.1333334  0.8666666  0.4997208  )
        15           Ga  tau(  15) = (  0.1333334  0.8666666  0.8330541  )
        16           Ga  tau(  16) = (  0.3333334  0.0666666  0.1663874  )
        17           Ga  tau(  17) = (  0.3333334  0.0666666  0.4997208  )
        18           Ga  tau(  18) = (  0.3333334  0.0666666  0.8330541  )
        19           Ga  tau(  19) = (  0.3333334  0.2666666  0.1663874  )
        20           Ga  tau(  20) = (  0.3333334  0.2666666  0.4997208  )
        21           Ga  tau(  21) = (  0.3333334  0.2666666  0.8330541  )
        22           Ga  tau(  22) = (  0.3333334  0.4666666  0.1663874  )
        23           Ga  tau(  23) = (  0.3333334  0.4666666  0.4997208  )
        24           Ga  tau(  24) = (  0.3333334  0.4666666  0.8330541  )
        25           Ga  tau(  25) = (  0.3333334  0.6666666  0.1663874  )
        26           Ga  tau(  26) = (  0.3333334  0.6666666  0.4997208  )
        27           Ga  tau(  27) = (  0.3333334  0.6666666  0.8330541  )
        28           Ga  tau(  28) = (  0.3333334  0.8666666  0.1663874  )
        29           Ga  tau(  29) = (  0.3333334  0.8666666  0.4997208  )
        30           Ga  tau(  30) = (  0.3333334  0.8666666  0.8330541  )
        31           Ga  tau(  31) = (  0.5333334  0.0666666  0.1663874  )
        32           Ga  tau(  32) = (  0.5333334  0.0666666  0.4997208  )
        33           Ga  tau(  33) = (  0.5333334  0.0666666  0.8330541  )
        34           Ga  tau(  34) = (  0.5333334  0.2666666  0.1663874  )
        35           Ga  tau(  35) = (  0.5333334  0.2666666  0.4997208  )
        36           Ga  tau(  36) = (  0.5333334  0.2666666  0.8330541  )
        37           Ga  tau(  37) = (  0.5333334  0.4666666  0.1663874  )
        38           Ga  tau(  38) = (  0.5333334  0.4666666  0.4997208  )
        39           Ga  tau(  39) = (  0.5333334  0.4666666  0.8330541  )
        40           Ga  tau(  40) = (  0.5333334  0.6666666  0.1663874  )
        41           Ga  tau(  41) = (  0.5333334  0.6666666  0.4997208  )
        42           Ga  tau(  42) = (  0.5333334  0.6666666  0.8330541  )
        43           Ga  tau(  43) = (  0.5333334  0.8666666  0.1663874  )
        44           Ga  tau(  44) = (  0.5333334  0.8666666  0.4997208  )
        45           Ga  tau(  45) = (  0.5333334  0.8666666  0.8330541  )
        46           Ga  tau(  46) = (  0.7333334  0.0666666  0.1663874  )
        47           Ga  tau(  47) = (  0.7333334  0.0666666  0.4997208  )
        48           Ga  tau(  48) = (  0.7333334  0.0666666  0.8330541  )
        49           Ga  tau(  49) = (  0.7333334  0.2666666  0.1663874  )
        50           Ga  tau(  50) = (  0.7333334  0.2666666  0.4997208  )
        51           Ga  tau(  51) = (  0.7333334  0.2666666  0.8330541  )
        52           Ga  tau(  52) = (  0.7333334  0.4666666  0.1663874  )
        53           Ga  tau(  53) = (  0.7333334  0.4666666  0.4997208  )
        54           Ga  tau(  54) = (  0.7333334  0.4666666  0.8330541  )
        55           Ga  tau(  55) = (  0.7333334  0.6666666  0.1663874  )
        56           Ga  tau(  56) = (  0.7333334  0.6666666  0.4997208  )
        57           Ga  tau(  57) = (  0.7333334  0.6666666  0.8330541  )
        58           Ga  tau(  58) = (  0.7333334  0.8666666  0.1663874  )
        59           Ga  tau(  59) = (  0.7333334  0.8666666  0.4997208  )
        60           Ga  tau(  60) = (  0.7333334  0.8666666  0.8330541  )
        61           Ga  tau(  61) = (  0.9333334  0.0666666  0.1663874  )
        62           Ga  tau(  62) = (  0.9333334  0.0666666  0.4997208  )
        63           Ga  tau(  63) = (  0.9333334  0.0666666  0.8330541  )
        64           Ga  tau(  64) = (  0.9333334  0.2666666  0.1663874  )
        65           Ga  tau(  65) = (  0.9333334  0.2666666  0.4997208  )
        66           Ga  tau(  66) = (  0.9333334  0.2666666  0.8330541  )
        67           Ga  tau(  67) = (  0.9333334  0.4666666  0.1663874  )
        68           Ga  tau(  68) = (  0.9333334  0.4666666  0.4997208  )
        69           Ga  tau(  69) = (  0.9333334  0.4666666  0.8330541  )
        70           Ga  tau(  70) = (  0.9333334  0.6666666  0.1663874  )
        71           Ga  tau(  71) = (  0.9333334  0.6666666  0.4997208  )
        72           Ga  tau(  72) = (  0.9333334  0.6666666  0.8330541  )
        73           Ga  tau(  73) = (  0.9333334  0.8666666  0.1663874  )
        74           Ga  tau(  74) = (  0.9333334  0.8666666  0.4997208  )
        75           Ga  tau(  75) = (  0.9333334  0.8666666  0.8330541  )
        76           Ga  tau(  76) = (  0.0666666  0.1333334  0.3330541  )
        77           Ga  tau(  77) = (  0.0666666  0.1333334  0.6663874  )
        78           Ga  tau(  78) = (  0.0666666  0.1333334  0.9997208  )
        79           Ga  tau(  79) = (  0.0666666  0.3333334  0.3330541  )
        80           Ga  tau(  80) = (  0.0666666  0.3333334  0.6663874  )
        81           Ga  tau(  81) = (  0.0666666  0.3333334  0.9997208  )
        82           Ga  tau(  82) = (  0.0666666  0.5333334  0.3330541  )
        83           Ga  tau(  83) = (  0.0666666  0.5333334  0.6663874  )
        84           Ga  tau(  84) = (  0.0666666  0.5333334  0.9997208  )
        85           Ga  tau(  85) = (  0.0666666  0.7333334  0.3330541  )
        86           Ga  tau(  86) = (  0.0666666  0.7333334  0.6663874  )
        87           Ga  tau(  87) = (  0.0666666  0.7333334  0.9997208  )
        88           Ga  tau(  88) = (  0.0666666  0.9333334  0.3330541  )
        89           Ga  tau(  89) = (  0.0666666  0.9333334  0.6663874  )
        90           Ga  tau(  90) = (  0.0666666  0.9333334  0.9997208  )
        91           Ga  tau(  91) = (  0.2666666  0.1333334  0.3330541  )
        92           Ga  tau(  92) = (  0.2666666  0.1333334  0.6663874  )
        93           Ga  tau(  93) = (  0.2666666  0.1333334  0.9997208  )
        94           Ga  tau(  94) = (  0.2666666  0.3333334  0.3330541  )
        95           Ga  tau(  95) = (  0.2666666  0.3333334  0.6663874  )
        96           Ga  tau(  96) = (  0.2666666  0.3333334  0.9997208  )
        97           Ga  tau(  97) = (  0.2666666  0.5333334  0.3330541  )
        98           Ga  tau(  98) = (  0.2666666  0.5333334  0.6663874  )
        99           Ga  tau(  99) = (  0.2666666  0.5333334  0.9997208  )
       100           Ga  tau( 100) = (  0.2666666  0.7333334  0.3330541  )
       101           Ga  tau( 101) = (  0.2666666  0.7333334  0.6663874  )
       102           Ga  tau( 102) = (  0.2666666  0.7333334  0.9997208  )
       103           Ga  tau( 103) = (  0.2666666  0.9333334  0.3330541  )
       104           Ga  tau( 104) = (  0.2666666  0.9333334  0.6663874  )
       105           Ga  tau( 105) = (  0.2666666  0.9333334  0.9997208  )
       106           Ga  tau( 106) = (  0.4666666  0.1333334  0.3330541  )
       107           Ga  tau( 107) = (  0.4666666  0.1333334  0.6663874  )
       108           Ga  tau( 108) = (  0.4666666  0.1333334  0.9997208  )
       109           Ga  tau( 109) = (  0.4666666  0.3333334  0.3330541  )
       110           Ga  tau( 110) = (  0.4666666  0.3333334  0.6663874  )
       111           Ga  tau( 111) = (  0.4666666  0.3333334  0.9997208  )
       112           Ga  tau( 112) = (  0.4666666  0.5333334  0.3330541  )
       113           Ga  tau( 113) = (  0.4666666  0.5333334  0.6663874  )
       114           Ga  tau( 114) = (  0.4666666  0.5333334  0.9997208  )
       115           Ga  tau( 115) = (  0.4666666  0.7333334  0.3330541  )
       116           Ga  tau( 116) = (  0.4666666  0.7333334  0.6663874  )
       117           Ga  tau( 117) = (  0.4666666  0.7333334  0.9997208  )
       118           Ga  tau( 118) = (  0.4666666  0.9333334  0.3330541  )
       119           Ga  tau( 119) = (  0.4666666  0.9333334  0.6663874  )
       120           Ga  tau( 120) = (  0.4666666  0.9333334  0.9997208  )
       121           Ga  tau( 121) = (  0.6666666  0.1333334  0.3330541  )
       122           Ga  tau( 122) = (  0.6666666  0.1333334  0.6663874  )
       123           Ga  tau( 123) = (  0.6666666  0.1333334  0.9997208  )
       124           Ga  tau( 124) = (  0.6666666  0.3333334  0.3330541  )
       125           Ga  tau( 125) = (  0.6666666  0.3333334  0.6663874  )
       126           Ga  tau( 126) = (  0.6666666  0.3333334  0.9997208  )
       127           Ga  tau( 127) = (  0.6666666  0.5333334  0.3330541  )
       128           Ga  tau( 128) = (  0.6666666  0.5333334  0.6663874  )
       129           Ga  tau( 129) = (  0.6666666  0.5333334  0.9997208  )
       130           Ga  tau( 130) = (  0.6666666  0.7333334  0.3330541  )
       131           Ga  tau( 131) = (  0.6666666  0.7333334  0.6663874  )
       132           Ga  tau( 132) = (  0.6666666  0.7333334  0.9997208  )
       133           Ga  tau( 133) = (  0.6666666  0.9333334  0.3330541  )
       134           Ga  tau( 134) = (  0.6666666  0.9333334  0.6663874  )
       135           Ga  tau( 135) = (  0.6666666  0.9333334  0.9997208  )
       136           Ga  tau( 136) = (  0.8666666  0.1333334  0.3330541  )
       137           Ga  tau( 137) = (  0.8666666  0.1333334  0.6663874  )
       138           Ga  tau( 138) = (  0.8666666  0.1333334  0.9997208  )
       139           Ga  tau( 139) = (  0.8666666  0.3333334  0.3330541  )
       140           Ga  tau( 140) = (  0.8666666  0.3333334  0.6663874  )
       141           Ga  tau( 141) = (  0.8666666  0.3333334  0.9997208  )
       142           Ga  tau( 142) = (  0.8666666  0.5333334  0.3330541  )
       143           Ga  tau( 143) = (  0.8666666  0.5333334  0.6663874  )
       144           Ga  tau( 144) = (  0.8666666  0.5333334  0.9997208  )
       145           Ga  tau( 145) = (  0.8666666  0.7333334  0.3330541  )
       146           Ga  tau( 146) = (  0.8666666  0.7333334  0.6663874  )
       147           Ga  tau( 147) = (  0.8666666  0.7333334  0.9997208  )
       148           Ga  tau( 148) = (  0.8666666  0.9333334  0.3330541  )
       149           Ga  tau( 149) = (  0.8666666  0.9333334  0.6663874  )
       150           Ga  tau( 150) = (  0.8666666  0.9333334  0.9997208  )
       151           N   tau( 151) = (  0.1333334  0.0666666  0.6252792  )
       152           N   tau( 152) = (  0.1333334  0.0666666  0.9586126  )
       153           N   tau( 153) = (  0.1333334  0.2666666  0.2919459  )
       154           N   tau( 154) = (  0.1333334  0.2666666  0.6252792  )
       155           N   tau( 155) = (  0.1333334  0.2666666  0.9586126  )
       156           N   tau( 156) = (  0.1333334  0.4666666  0.2919459  )
       157           N   tau( 157) = (  0.1333334  0.4666666  0.6252792  )
       158           N   tau( 158) = (  0.1333334  0.4666666  0.9586126  )
       159           N   tau( 159) = (  0.1333334  0.6666666  0.2919459  )
       160           N   tau( 160) = (  0.1333334  0.6666666  0.6252792  )
       161           N   tau( 161) = (  0.1333334  0.6666666  0.9586126  )
       162           N   tau( 162) = (  0.1333334  0.8666666  0.2919459  )
       163           N   tau( 163) = (  0.1333334  0.8666666  0.6252792  )
       164           N   tau( 164) = (  0.1333334  0.8666666  0.9586126  )
       165           N   tau( 165) = (  0.3333334  0.0666666  0.2919459  )
       166           N   tau( 166) = (  0.3333334  0.0666666  0.6252792  )
       167           N   tau( 167) = (  0.3333334  0.0666666  0.9586126  )
       168           N   tau( 168) = (  0.3333334  0.2666666  0.2919459  )
       169           N   tau( 169) = (  0.3333334  0.2666666  0.6252792  )
       170           N   tau( 170) = (  0.3333334  0.2666666  0.9586126  )
       171           N   tau( 171) = (  0.3333334  0.4666666  0.2919459  )
       172           N   tau( 172) = (  0.3333334  0.4666666  0.6252792  )
       173           N   tau( 173) = (  0.3333334  0.4666666  0.9586126  )
       174           N   tau( 174) = (  0.3333334  0.6666666  0.2919459  )
       175           N   tau( 175) = (  0.3333334  0.6666666  0.6252792  )
       176           N   tau( 176) = (  0.3333334  0.6666666  0.9586126  )
       177           N   tau( 177) = (  0.3333334  0.8666666  0.2919459  )
       178           N   tau( 178) = (  0.3333334  0.8666666  0.6252792  )
       179           N   tau( 179) = (  0.3333334  0.8666666  0.9586126  )
       180           N   tau( 180) = (  0.5333334  0.0666666  0.2919459  )
       181           N   tau( 181) = (  0.5333334  0.0666666  0.6252792  )
       182           N   tau( 182) = (  0.5333334  0.0666666  0.9586126  )
       183           N   tau( 183) = (  0.5333334  0.2666666  0.2919459  )
       184           N   tau( 184) = (  0.5333334  0.2666666  0.6252792  )
       185           N   tau( 185) = (  0.5333334  0.2666666  0.9586126  )
       186           N   tau( 186) = (  0.5333334  0.4666666  0.2919459  )
       187           N   tau( 187) = (  0.5333334  0.4666666  0.6252792  )
       188           N   tau( 188) = (  0.5333334  0.4666666  0.9586126  )
       189           N   tau( 189) = (  0.5333334  0.6666666  0.2919459  )
       190           N   tau( 190) = (  0.5333334  0.6666666  0.6252792  )
       191           N   tau( 191) = (  0.5333334  0.6666666  0.9586126  )
       192           N   tau( 192) = (  0.5333334  0.8666666  0.2919459  )
       193           N   tau( 193) = (  0.5333334  0.8666666  0.6252792  )
       194           N   tau( 194) = (  0.5333334  0.8666666  0.9586126  )
       195           N   tau( 195) = (  0.7333334  0.0666666  0.2919459  )
       196           N   tau( 196) = (  0.7333334  0.0666666  0.6252792  )
       197           N   tau( 197) = (  0.7333334  0.0666666  0.9586126  )
       198           N   tau( 198) = (  0.7333334  0.2666666  0.2919459  )
       199           N   tau( 199) = (  0.7333334  0.2666666  0.6252792  )
       200           N   tau( 200) = (  0.7333334  0.2666666  0.9586126  )
       201           N   tau( 201) = (  0.7333334  0.4666666  0.2919459  )
       202           N   tau( 202) = (  0.7333334  0.4666666  0.6252792  )
       203           N   tau( 203) = (  0.7333334  0.4666666  0.9586126  )
       204           N   tau( 204) = (  0.7333334  0.6666666  0.2919459  )
       205           N   tau( 205) = (  0.7333334  0.6666666  0.6252792  )
       206           N   tau( 206) = (  0.7333334  0.6666666  0.9586126  )
       207           N   tau( 207) = (  0.7333334  0.8666666  0.2919459  )
       208           N   tau( 208) = (  0.7333334  0.8666666  0.6252792  )
       209           N   tau( 209) = (  0.7333334  0.8666666  0.9586126  )
       210           N   tau( 210) = (  0.9333334  0.0666666  0.2919459  )
       211           N   tau( 211) = (  0.9333334  0.0666666  0.6252792  )
       212           N   tau( 212) = (  0.9333334  0.0666666  0.9586126  )
       213           N   tau( 213) = (  0.9333334  0.2666666  0.2919459  )
       214           N   tau( 214) = (  0.9333334  0.2666666  0.6252792  )
       215           N   tau( 215) = (  0.9333334  0.2666666  0.9586126  )
       216           N   tau( 216) = (  0.9333334  0.4666666  0.2919459  )
       217           N   tau( 217) = (  0.9333334  0.4666666  0.6252792  )
       218           N   tau( 218) = (  0.9333334  0.4666666  0.9586126  )
       219           N   tau( 219) = (  0.9333334  0.6666666  0.2919459  )
       220           N   tau( 220) = (  0.9333334  0.6666666  0.6252792  )
       221           N   tau( 221) = (  0.9333334  0.6666666  0.9586126  )
       222           N   tau( 222) = (  0.9333334  0.8666666  0.2919459  )
       223           N   tau( 223) = (  0.9333334  0.8666666  0.6252792  )
       224           N   tau( 224) = (  0.9333334  0.8666666  0.9586126  )
       225           N   tau( 225) = (  0.0666666  0.1333334  0.1252792  )
       226           N   tau( 226) = (  0.0666666  0.1333334  0.4586126  )
       227           N   tau( 227) = (  0.0666666  0.1333334  0.7919459  )
       228           N   tau( 228) = (  0.0666666  0.3333334  0.1252792  )
       229           N   tau( 229) = (  0.0666666  0.3333334  0.4586126  )
       230           N   tau( 230) = (  0.0666666  0.3333334  0.7919459  )
       231           N   tau( 231) = (  0.0666666  0.5333334  0.1252792  )
       232           N   tau( 232) = (  0.0666666  0.5333334  0.4586126  )
       233           N   tau( 233) = (  0.0666666  0.5333334  0.7919459  )
       234           N   tau( 234) = (  0.0666666  0.7333334  0.1252792  )
       235           N   tau( 235) = (  0.0666666  0.7333334  0.4586126  )
       236           N   tau( 236) = (  0.0666666  0.7333334  0.7919459  )
       237           N   tau( 237) = (  0.0666666  0.9333334  0.1252792  )
       238           N   tau( 238) = (  0.0666666  0.9333334  0.4586126  )
       239           N   tau( 239) = (  0.0666666  0.9333334  0.7919459  )
       240           N   tau( 240) = (  0.2666666  0.1333334  0.1252792  )
       241           N   tau( 241) = (  0.2666666  0.1333334  0.4586126  )
       242           N   tau( 242) = (  0.2666666  0.1333334  0.7919459  )
       243           N   tau( 243) = (  0.2666666  0.3333334  0.1252792  )
       244           N   tau( 244) = (  0.2666666  0.3333334  0.4586126  )
       245           N   tau( 245) = (  0.2666666  0.3333334  0.7919459  )
       246           N   tau( 246) = (  0.2666666  0.5333334  0.1252792  )
       247           N   tau( 247) = (  0.2666666  0.5333334  0.4586126  )
       248           N   tau( 248) = (  0.2666666  0.5333334  0.7919459  )
       249           N   tau( 249) = (  0.2666666  0.7333334  0.1252792  )
       250           N   tau( 250) = (  0.2666666  0.7333334  0.4586126  )
       251           N   tau( 251) = (  0.2666666  0.7333334  0.7919459  )
       252           N   tau( 252) = (  0.2666666  0.9333334  0.1252792  )
       253           N   tau( 253) = (  0.2666666  0.9333334  0.4586126  )
       254           N   tau( 254) = (  0.2666666  0.9333334  0.7919459  )
       255           N   tau( 255) = (  0.4666666  0.1333334  0.1252792  )
       256           N   tau( 256) = (  0.4666666  0.1333334  0.4586126  )
       257           N   tau( 257) = (  0.4666666  0.1333334  0.7919459  )
       258           N   tau( 258) = (  0.4666666  0.3333334  0.1252792  )
       259           N   tau( 259) = (  0.4666666  0.3333334  0.4586126  )
       260           N   tau( 260) = (  0.4666666  0.3333334  0.7919459  )
       261           N   tau( 261) = (  0.4666666  0.5333334  0.1252792  )
       262           N   tau( 262) = (  0.4666666  0.5333334  0.4586126  )
       263           N   tau( 263) = (  0.4666666  0.5333334  0.7919459  )
       264           N   tau( 264) = (  0.4666666  0.7333334  0.1252792  )
       265           N   tau( 265) = (  0.4666666  0.7333334  0.4586126  )
       266           N   tau( 266) = (  0.4666666  0.7333334  0.7919459  )
       267           N   tau( 267) = (  0.4666666  0.9333334  0.1252792  )
       268           N   tau( 268) = (  0.4666666  0.9333334  0.4586126  )
       269           N   tau( 269) = (  0.4666666  0.9333334  0.7919459  )
       270           N   tau( 270) = (  0.6666666  0.1333334  0.1252792  )
       271           N   tau( 271) = (  0.6666666  0.1333334  0.4586126  )
       272           N   tau( 272) = (  0.6666666  0.1333334  0.7919459  )
       273           N   tau( 273) = (  0.6666666  0.3333334  0.1252792  )
       274           N   tau( 274) = (  0.6666666  0.3333334  0.4586126  )
       275           N   tau( 275) = (  0.6666666  0.3333334  0.7919459  )
       276           N   tau( 276) = (  0.6666666  0.5333334  0.1252792  )
       277           N   tau( 277) = (  0.6666666  0.5333334  0.4586126  )
       278           N   tau( 278) = (  0.6666666  0.5333334  0.7919459  )
       279           N   tau( 279) = (  0.6666666  0.7333334  0.1252792  )
       280           N   tau( 280) = (  0.6666666  0.7333334  0.4586126  )
       281           N   tau( 281) = (  0.6666666  0.7333334  0.7919459  )
       282           N   tau( 282) = (  0.6666666  0.9333334  0.1252792  )
       283           N   tau( 283) = (  0.6666666  0.9333334  0.4586126  )
       284           N   tau( 284) = (  0.6666666  0.9333334  0.7919459  )
       285           N   tau( 285) = (  0.8666666  0.1333334  0.1252792  )
       286           N   tau( 286) = (  0.8666666  0.1333334  0.4586126  )
       287           N   tau( 287) = (  0.8666666  0.1333334  0.7919459  )
       288           N   tau( 288) = (  0.8666666  0.3333334  0.1252792  )
       289           N   tau( 289) = (  0.8666666  0.3333334  0.4586126  )
       290           N   tau( 290) = (  0.8666666  0.3333334  0.7919459  )
       291           N   tau( 291) = (  0.8666666  0.5333334  0.1252792  )
       292           N   tau( 292) = (  0.8666666  0.5333334  0.4586126  )
       293           N   tau( 293) = (  0.8666666  0.5333334  0.7919459  )
       294           N   tau( 294) = (  0.8666666  0.7333334  0.1252792  )
       295           N   tau( 295) = (  0.8666666  0.7333334  0.4586126  )
       296           N   tau( 296) = (  0.8666666  0.7333334  0.7919459  )
       297           N   tau( 297) = (  0.8666666  0.9333334  0.1252792  )
       298           N   tau( 298) = (  0.8666666  0.9333334  0.4586126  )
       299           N   tau( 299) = (  0.8666666  0.9333334  0.7919459  )
       300           Ga  tau( 300) = (  0.1333334  0.0666666  0.2919459  )

     number of k points=     6  Gaussian smearing, width (Ry)=  0.0100
                       cart. coord. in units 2pi/alat
        k(    1) = (   0.0000000   0.0000000   0.0000000), wk =   0.2500000
        k(    2) = (   0.0000000   0.0000000  -0.5112854), wk =   0.2500000
        k(    3) = (   0.0000000  -0.5773503   0.0000000), wk =   0.5000000
        k(    4) = (   0.0000000  -0.5773503  -0.5112854), wk =   0.5000000
        k(    5) = (  -0.5000000  -0.2886751   0.0000000), wk =   0.2500000
        k(    6) = (  -0.5000000  -0.2886751  -0.5112854), wk =   0.2500000

                       cryst. coord.
        k(    1) = (   0.0000000   0.0000000   0.0000000), wk =   0.2500000
        k(    2) = (   0.0000000   0.0000000  -0.5000000), wk =   0.2500000
        k(    3) = (   0.0000000  -0.5000000   0.0000000), wk =   0.5000000
        k(    4) = (   0.0000000  -0.5000000  -0.5000000), wk =   0.5000000
        k(    5) = (  -0.5000000  -0.0000000   0.0000000), wk =   0.2500000
        k(    6) = (  -0.5000000  -0.0000000  -0.5000000), wk =   0.2500000

     Dense  grid:  2698283 G-vectors     FFT dimensions: ( 192, 192, 180)

     Smooth grid:  1930731 G-vectors     FFT dimensions: ( 180, 180, 160)

     Dynamical RAM for                 wfc:      93.54 MB

     Dynamical RAM for     wfc (w. buffer):     280.61 MB

     Dynamical RAM for           str. fact:       1.29 MB

     Dynamical RAM for           local pot:       0.00 MB

     Dynamical RAM for          nlocal pot:     224.93 MB

     Dynamical RAM for                qrad:       3.00 MB

     Dynamical RAM for          rho,v,vnew:       4.46 MB

     Dynamical RAM for               rhoin:       1.49 MB

     Dynamical RAM for            rho*nmix:      10.29 MB

     Dynamical RAM for           G-vectors:       2.64 MB

     Dynamical RAM for          h,s,v(r/c):    1936.43 MB

     Dynamical RAM for          <psi|beta>:      97.01 MB

     Dynamical RAM for                 psi:     374.15 MB

     Dynamical RAM for                hpsi:     374.15 MB

     Dynamical RAM for                spsi:     374.15 MB

     Dynamical RAM for      wfcinit/wfcrot:     247.60 MB

     Dynamical RAM for           addusdens:      54.68 MB

     Dynamical RAM for          addusforce:     103.36 MB

     Dynamical RAM for         addusstress:      32.57 MB

     Estimated static dynamical RAM per process >     524.56 MB

     Estimated max dynamical RAM per process >       3.60 GB

     Estimated total dynamical RAM >     920.76 GB

     Atomic positions and unit cell read from directory:
     ./GaN.save/
     Atomic positions from file used, from input discarded
 

     Check: negative core charge=   -0.000003

     The initial density is read from file :
     ./GaN.save/charge-density


     starting charge    2709.0000, renormalised to    2710.0000


     %%%%%%%%%%%%%%%%%%%%%%%%%%%%%%%%%%%%%%%%%%%%%%%%%%%%%%%%%%%%%%%%%%%%%%%%
     %                                                                      %
     % You are using vdW-DF, which was implemented by the Thonhauser group. %
     % Please cite the following two papers that made this development      %
     % possible and the two reviews that describe the various versions:     %
     %                                                                      %
     %   T. Thonhauser et al., PRL 115, 136402 (2015).                      %
     %   T. Thonhauser et al., PRB 76, 125112 (2007).                       %
     %   K. Berland et al., Rep. Prog. Phys. 78, 066501 (2015).             %
     %   D.C. Langreth et al., J. Phys.: Condens. Matter 21, 084203 (2009). %
     %                                                                      %
     % If you are calculating stress with vdW-DF, please also cite:         %
     %                                                                      %
     %   R. Sabatini et al., J. Phys.: Condens. Matter 24, 424209 (2012).   %
     %                                                                      %
     %%%%%%%%%%%%%%%%%%%%%%%%%%%%%%%%%%%%%%%%%%%%%%%%%%%%%%%%%%%%%%%%%%%%%%%%

     %%%%%%%%%%%%%%%%%%%%%%%%%%%%%%%%%%%%%%%%%%%%%%%%%%%%%%%%%%%%%%%%%%%%%%%%
     %                                                                      %
     %  vdW-DF NEWS:                                                        %
     %                                                                      %
     %  * vdW-DF3 is now available. DOI: 10.1021/acs.jctc.0c00471           %
     %    use with input_dft = 'vdW-DF3-opt1' or 'vdW-DF3-opt2'             %
     %                                                                      %
     %  * Unscreened and range-separated vdW-DF hybrid functionals          %
     %    DOI: 10.1063/1.4986522 and 10.1088/1361-648X/ac2ad2               %
     %    use with input_dft = 'vdW-DF-cx0' (etc) and 'vdW-DF-ahcx'         %
     %                                                                      %
     %%%%%%%%%%%%%%%%%%%%%%%%%%%%%%%%%%%%%%%%%%%%%%%%%%%%%%%%%%%%%%%%%%%%%%%%


     Carrying out vdW-DF run using the following parameters:
     Nqs    =  20  Npoints =  1024  r_max =  100.000
     q_mesh =  0.00001000  0.04494208  0.09755937  0.15916263
               0.23128650  0.31572767  0.41458969  0.53033537
               0.66584808  0.82450364  1.01025438  1.22772762
               1.48234092  1.78043706  2.12944203  2.53805004
               3.01644009  3.57652955  4.23227104  5.00000000


     -----------------------------------------------
     Non-local corr. energy    =      82.14838457 Ry
     -----------------------------------------------

     Wavefunctions not found or not readable, recomputing them from scratch
     Starting wfcs are 1955 randomized atomic wfcs
     Checking if some PAW data can be deallocated... 
       PAW data deallocated on  149 nodes for type:  1
       PAW data deallocated on  107 nodes for type:  2

     total cpu time spent up to now is      121.3 secs

     Self-consistent Calculation

     iteration #  1     ecut=    70.00 Ry     beta= 0.70
     Davidson diagonalization with overlap

---- Real-time Memory Report at c_bands before calling an iterative solver
          1255 MiB given to the printing process from OS
             0 MiB allocation reported by mallinfo(arena+hblkhd)
       1891493 MiB available memory on the node where the printing process lives
------------------
     ethr =  1.00E-05,  avg # of iterations = 27.0


     -----------------------------------------------
     Non-local corr. energy    =      82.04043858 Ry
     -----------------------------------------------


     total cpu time spent up to now is     3730.6 secs

     total energy              =  -47095.87349452 Ry
     estimated scf accuracy    <       0.10566563 Ry

     iteration #  2     ecut=    70.00 Ry     beta= 0.70
     Davidson diagonalization with overlap

---- Real-time Memory Report at c_bands before calling an iterative solver
          3624 MiB given to the printing process from OS
             0 MiB allocation reported by mallinfo(arena+hblkhd)
       1891997 MiB available memory on the node where the printing process lives
------------------
     ethr =  3.90E-06,  avg # of iterations = 13.2


     -----------------------------------------------
     Non-local corr. energy    =      82.04617693 Ry
     -----------------------------------------------


     total cpu time spent up to now is     6832.0 secs

     total energy              =  -47095.50186161 Ry
     estimated scf accuracy    <       5.22680252 Ry

     iteration #  3     ecut=    70.00 Ry     beta= 0.70
     Davidson diagonalization with overlap

---- Real-time Memory Report at c_bands before calling an iterative solver
          3624 MiB given to the printing process from OS
             0 MiB allocation reported by mallinfo(arena+hblkhd)
       1871241 MiB available memory on the node where the printing process lives
------------------
     ethr =  3.90E-06,  avg # of iterations = 12.3


     -----------------------------------------------
     Non-local corr. energy    =      82.07735480 Ry
     -----------------------------------------------


     total cpu time spent up to now is     9562.3 secs

     total energy              =  -47095.94548411 Ry
     estimated scf accuracy    <       0.05738065 Ry

     iteration #  4     ecut=    70.00 Ry     beta= 0.70
     Davidson diagonalization with overlap

---- Real-time Memory Report at c_bands before calling an iterative solver
          3624 MiB given to the printing process from OS
             0 MiB allocation reported by mallinfo(arena+hblkhd)
       1871098 MiB available memory on the node where the printing process lives
------------------
     ethr =  2.12E-06,  avg # of iterations = 12.5


     -----------------------------------------------
     Non-local corr. energy    =      82.08869016 Ry
     -----------------------------------------------


     total cpu time spent up to now is    10975.2 secs

     total energy              =  -47095.94668056 Ry
     estimated scf accuracy    <       0.02494138 Ry

     iteration #  5     ecut=    70.00 Ry     beta= 0.70
     Davidson diagonalization with overlap

---- Real-time Memory Report at c_bands before calling an iterative solver
          3624 MiB given to the printing process from OS
             0 MiB allocation reported by mallinfo(arena+hblkhd)
       1870940 MiB available memory on the node where the printing process lives
------------------
     ethr =  9.20E-07,  avg # of iterations = 13.3


     -----------------------------------------------
     Non-local corr. energy    =      82.10125761 Ry
     -----------------------------------------------


     total cpu time spent up to now is    12579.3 secs

     total energy              =  -47095.94583182 Ry
     estimated scf accuracy    <       0.01780579 Ry

     iteration #  6     ecut=    70.00 Ry     beta= 0.70
     Davidson diagonalization with overlap

---- Real-time Memory Report at c_bands before calling an iterative solver
          3624 MiB given to the printing process from OS
             0 MiB allocation reported by mallinfo(arena+hblkhd)
       1870799 MiB available memory on the node where the printing process lives
------------------
     ethr =  6.57E-07,  avg # of iterations = 10.7


     -----------------------------------------------
     Non-local corr. energy    =      82.12024259 Ry
     -----------------------------------------------


     total cpu time spent up to now is    13624.8 secs

     total energy              =  -47095.94415771 Ry
     estimated scf accuracy    <       0.00997612 Ry

     iteration #  7     ecut=    70.00 Ry     beta= 0.70
     Davidson diagonalization with overlap

---- Real-time Memory Report at c_bands before calling an iterative solver
          3624 MiB given to the printing process from OS
             0 MiB allocation reported by mallinfo(arena+hblkhd)
       1870647 MiB available memory on the node where the printing process lives
------------------
     ethr =  3.68E-07,  avg # of iterations = 13.2


     -----------------------------------------------
     Non-local corr. energy    =      82.12260497 Ry
     -----------------------------------------------


     total cpu time spent up to now is    15243.5 secs

     total energy              =  -47095.94486268 Ry
     estimated scf accuracy    <       0.00050054 Ry

     iteration #  8     ecut=    70.00 Ry     beta= 0.70
     Davidson diagonalization with overlap

---- Real-time Memory Report at c_bands before calling an iterative solver
          3624 MiB given to the printing process from OS
             0 MiB allocation reported by mallinfo(arena+hblkhd)
       1870508 MiB available memory on the node where the printing process lives
------------------
     ethr =  1.85E-08,  avg # of iterations =  9.5


     -----------------------------------------------
     Non-local corr. energy    =      82.11439891 Ry
     -----------------------------------------------


     total cpu time spent up to now is    17986.5 secs

     total energy              =  -47095.94502494 Ry
     estimated scf accuracy    <       0.00036855 Ry

     iteration #  9     ecut=    70.00 Ry     beta= 0.70
     Davidson diagonalization with overlap

---- Real-time Memory Report at c_bands before calling an iterative solver
          3624 MiB given to the printing process from OS
             0 MiB allocation reported by mallinfo(arena+hblkhd)
       1870333 MiB available memory on the node where the printing process lives
------------------
     ethr =  1.36E-08,  avg # of iterations = 13.7


     -----------------------------------------------
     Non-local corr. energy    =      82.10320045 Ry
     -----------------------------------------------


     total cpu time spent up to now is    19538.2 secs

     total energy              =  -47095.94505410 Ry
     estimated scf accuracy    <       0.00013618 Ry

     iteration # 10     ecut=    70.00 Ry     beta= 0.70
     Davidson diagonalization with overlap

---- Real-time Memory Report at c_bands before calling an iterative solver
          3624 MiB given to the printing process from OS
             0 MiB allocation reported by mallinfo(arena+hblkhd)
       1870176 MiB available memory on the node where the printing process lives
------------------
     ethr =  5.03E-09,  avg # of iterations =  8.5


     -----------------------------------------------
     Non-local corr. energy    =      82.10801155 Ry
     -----------------------------------------------


     total cpu time spent up to now is    21533.2 secs

     total energy              =  -47095.94503224 Ry
     estimated scf accuracy    <       0.00046973 Ry

     iteration # 11     ecut=    70.00 Ry     beta= 0.70
     Davidson diagonalization with overlap

---- Real-time Memory Report at c_bands before calling an iterative solver
          3624 MiB given to the printing process from OS
             0 MiB allocation reported by mallinfo(arena+hblkhd)
       1870159 MiB available memory on the node where the printing process lives
------------------
     ethr =  5.03E-09,  avg # of iterations = 13.8


     -----------------------------------------------
     Non-local corr. energy    =      82.11095655 Ry
     -----------------------------------------------


     total cpu time spent up to now is    23369.5 secs

     total energy              =  -47095.94505090 Ry
     estimated scf accuracy    <       0.00003988 Ry

     iteration # 12     ecut=    70.00 Ry     beta= 0.70
     Davidson diagonalization with overlap

---- Real-time Memory Report at c_bands before calling an iterative solver
          3624 MiB given to the printing process from OS
             0 MiB allocation reported by mallinfo(arena+hblkhd)
       1870152 MiB available memory on the node where the printing process lives
------------------
     ethr =  1.47E-09,  avg # of iterations = 12.8


     -----------------------------------------------
     Non-local corr. energy    =      82.11166479 Ry
     -----------------------------------------------


     total cpu time spent up to now is    24872.2 secs

     total energy              =  -47095.94505446 Ry
     estimated scf accuracy    <       0.00000442 Ry

     iteration # 13     ecut=    70.00 Ry     beta= 0.70
     Davidson diagonalization with overlap

---- Real-time Memory Report at c_bands before calling an iterative solver
          3624 MiB given to the printing process from OS
             0 MiB allocation reported by mallinfo(arena+hblkhd)
       1870082 MiB available memory on the node where the printing process lives
------------------
     ethr =  1.63E-10,  avg # of iterations =  7.5


     -----------------------------------------------
     Non-local corr. energy    =      82.11133049 Ry
     -----------------------------------------------


     total cpu time spent up to now is    27383.7 secs

     total energy              =  -47095.94505841 Ry
     estimated scf accuracy    <       0.00000143 Ry

     iteration # 14     ecut=    70.00 Ry     beta= 0.70
     Davidson diagonalization with overlap

---- Real-time Memory Report at c_bands before calling an iterative solver
          3624 MiB given to the printing process from OS
             0 MiB allocation reported by mallinfo(arena+hblkhd)
       1870062 MiB available memory on the node where the printing process lives
------------------
     ethr =  5.29E-11,  avg # of iterations = 15.0


     -----------------------------------------------
     Non-local corr. energy    =      82.11114785 Ry
     -----------------------------------------------


     total cpu time spent up to now is    29290.8 secs

     total energy              =  -47095.94505843 Ry
     estimated scf accuracy    <       0.00000063 Ry

     iteration # 15     ecut=    70.00 Ry     beta= 0.70
     Davidson diagonalization with overlap

---- Real-time Memory Report at c_bands before calling an iterative solver
          3624 MiB given to the printing process from OS
             0 MiB allocation reported by mallinfo(arena+hblkhd)
       1870059 MiB available memory on the node where the printing process lives
------------------
     ethr =  2.34E-11,  avg # of iterations = 14.3


     -----------------------------------------------
     Non-local corr. energy    =      82.11101271 Ry
     -----------------------------------------------


     total cpu time spent up to now is    30857.8 secs

     total energy              =  -47095.94505842 Ry
     estimated scf accuracy    <       0.00000026 Ry

     iteration # 16     ecut=    70.00 Ry     beta= 0.70
     Davidson diagonalization with overlap

---- Real-time Memory Report at c_bands before calling an iterative solver
          3624 MiB given to the printing process from OS
             0 MiB allocation reported by mallinfo(arena+hblkhd)
       1870053 MiB available memory on the node where the printing process lives
------------------
     ethr =  9.71E-12,  avg # of iterations = 13.3


     -----------------------------------------------
     Non-local corr. energy    =      82.11088691 Ry
     -----------------------------------------------


     total cpu time spent up to now is    32223.7 secs

     total energy              =  -47095.94505840 Ry
     estimated scf accuracy    <       0.00000011 Ry

     iteration # 17     ecut=    70.00 Ry     beta= 0.70
     Davidson diagonalization with overlap

---- Real-time Memory Report at c_bands before calling an iterative solver
          3624 MiB given to the printing process from OS
             0 MiB allocation reported by mallinfo(arena+hblkhd)
       1870035 MiB available memory on the node where the printing process lives
------------------
     ethr =  4.07E-12,  avg # of iterations = 12.3


     -----------------------------------------------
     Non-local corr. energy    =      82.11075430 Ry
     -----------------------------------------------


     total cpu time spent up to now is    33976.8 secs

     End of self-consistent calculation

          k = 0.0000 0.0000 0.0000 (241213 PWs)   bands (ev):

    -6.8690  -6.6599  -6.6575  -6.6510  -6.6509  -6.6474  -6.6245  -6.6243
    -6.5824  -6.5206  -6.5101  -6.5095  -6.5093  -6.4985  -6.4984  -6.4789
    -6.4789  -6.4620  -6.4614  -6.4606  -6.4586  -6.4532  -6.4532  -6.4519
    -6.4516  -6.4508  -6.4508  -6.4396  -6.4340  -6.4333  -6.4297  -6.4256
    -6.4244  -6.4202  -6.4154  -6.4124  -6.4121  -6.4118  -6.4029  -6.4021
    -6.4007  -6.4002  -6.3953  -6.3944  -6.3915  -6.3915  -6.3910  -6.3905
    -6.3902  -6.3895  -6.3877  -6.3875  -6.3857  -6.3823  -6.3821  -6.3814
    -6.3800  -6.3785  -6.3776  -6.3774  -6.3759  -6.3756  -6.3748  -6.3742
    -6.3732  -6.3730  -6.3713  -6.3688  -6.3685  -6.3663  -6.3658  -6.3634
    -6.3632  -6.3595  -6.3590  -6.3571  -6.3558  -6.3534  -6.3532  -6.3503
    -6.3491  -6.3482  -6.3461  -6.3445  -6.3436  -6.3432  -6.3429  -6.3395
    -6.3391  -6.3374  -6.3374  -6.3356  -6.3324  -6.3316  -6.3280  -6.3273
    -6.3249  -6.3237  -6.3236  -6.3232  -6.3177  -6.3175  -6.3158  -6.3149
    -6.3144  -6.3072  -6.3067  -6.3014  -6.3008  -6.3000  -6.2997  -6.2988
    -6.2873  -6.2868  -6.2850  -6.2774  -6.2771  -6.2728  -6.2726  -6.2667
    -6.2665  -6.2587  -6.2586  -6.2506  -6.2503  -6.2442  -6.2427  -6.2381
    -6.2377  -6.2274  -6.2227  -6.2170  -6.2165  -6.2088  -6.1971  -6.1971
    -6.1784  -6.1505  -6.1111  -6.1103  -6.0918  -6.0360  -6.0357  -6.0310
    -5.9993  -5.9987  -5.9784  -5.9783  -5.9655  -5.3040  -5.3040  -5.2909
    -5.2865  -5.2851  -5.2851  -5.2849  -5.2835  -5.2835  -5.2808  -5.2806
    -5.2806  -5.2743  -5.2743  -5.2732  -5.2732  -5.2702  -5.2683  -5.2666
    -5.2658  -5.2658  -5.2642  -5.2642  -5.2639  -5.2588  -5.2588  -5.2576
    -5.2576  -5.2557  -5.2557  -5.2544  -5.2537  -5.2537  -5.2527  -5.2519
    -5.2519  -5.2493  -5.2468  -5.2468  -5.2465  -5.2439  -5.2439  -5.2430
    -5.2418  -5.2394  -5.2383  -5.2383  -5.2381  -5.2371  -5.2370  -5.2361
    -5.2361  -5.2351  -5.2345  -5.2318  -5.2318  -5.2313  -5.2288  -5.2288
    -5.2273  -5.2273  -5.2266  -5.2264  -5.2263  -5.2254  -5.2254  -5.2228
    -5.2228  -5.2223  -5.2203  -5.2202  -5.2202  -5.2189  -5.2188  -5.2167
    -5.2150  -5.2146  -5.2146  -5.2142  -5.2142  -5.2123  -5.2123  -5.2105
    -5.2105  -5.2099  -5.2096  -5.2095  -5.2092  -5.2086  -5.2085  -5.2067
    -5.2067  -5.2064  -5.2054  -5.2047  -5.2037  -5.2036  -5.2025  -5.2024
    -5.1991  -5.1991  -5.1990  -5.1989  -5.1980  -5.1980  -5.1957  -5.1957
    -5.1952  -5.1952  -5.1943  -5.1935  -5.1912  -5.1906  -5.1906  -5.1901
    -5.1901  -5.1900  -5.1891  -5.1885  -5.1885  -5.1867  -5.1861  -5.1861
    -5.1833  -5.1832  -5.1817  -5.1817  -5.1808  -5.1808  -5.1804  -5.1800
    -5.1789  -5.1786  -5.1786  -5.1784  -5.1759  -5.1758  -5.1757  -5.1746
    -5.1743  -5.1735  -5.1735  -5.1728  -5.1728  -5.1719  -5.1719  -5.1709
    -5.1701  -5.1701  -5.1686  -5.1682  -5.1682  -5.1672  -5.1651  -5.1650
    -5.1638  -5.1638  -5.1618  -5.1617  -5.1616  -5.1616  -5.1596  -5.1592
    -5.1592  -5.1582  -5.1582  -5.1582  -5.1568  -5.1567  -5.1563  -5.1562
    -5.1553  -5.1540  -5.1524  -5.1523  -5.1515  -5.1514  -5.1511  -5.1505
    -5.1483  -5.1482  -5.1482  -5.1471  -5.1457  -5.1453  -5.1452  -5.1446
    -5.1445  -5.1421  -5.1421  -5.1405  -5.1394  -5.1394  -5.1391  -5.1382
    -5.1372  -5.1372  -5.1362  -5.1362  -5.1349  -5.1349  -5.1349  -5.1333
    -5.1329  -5.1316  -5.1316  -5.1303  -5.1303  -5.1302  -5.1298  -5.1293
    -5.1292  -5.1268  -5.1268  -5.1267  -5.1266  -5.1246  -5.1246  -5.1240
    -5.1239  -5.1219  -5.1215  -5.1215  -5.1212  -5.1211  -5.1211  -5.1198
    -5.1195  -5.1195  -5.1185  -5.1182  -5.1173  -5.1162  -5.1162  -5.1147
    -5.1143  -5.1143  -5.1130  -5.1126  -5.1126  -5.1121  -5.1118  -5.1118
    -5.1101  -5.1101  -5.1100  -5.1094  -5.1089  -5.1089  -5.1085  -5.1084
    -5.1084  -5.1076  -5.1070  -5.1070  -5.1051  -5.1046  -5.1045  -5.1045
    -5.1041  -5.1041  -5.1028  -5.1027  -5.1014  -5.1007  -5.1007  -5.0988
    -5.0988  -5.0982  -5.0980  -5.0973  -5.0970  -5.0970  -5.0962  -5.0962
    -5.0960  -5.0959  -5.0942  -5.0941  -5.0928  -5.0925  -5.0925  -5.0915
    -5.0897  -5.0897  -5.0887  -5.0886  -5.0866  -5.0864  -5.0864  -5.0861
    -5.0860  -5.0850  -5.0839  -5.0839  -5.0839  -5.0834  -5.0828  -5.0828
    -5.0822  -5.0822  -5.0818  -5.0818  -5.0814  -5.0806  -5.0791  -5.0791
    -5.0781  -5.0779  -5.0778  -5.0774  -5.0772  -5.0772  -5.0765  -5.0764
    -5.0754  -5.0750  -5.0749  -5.0745  -5.0745  -5.0745  -5.0735  -5.0732
    -5.0720  -5.0720  -5.0711  -5.0705  -5.0705  -5.0701  -5.0690  -5.0689
    -5.0672  -5.0664  -5.0663  -5.0662  -5.0660  -5.0660  -5.0652  -5.0643
    -5.0642  -5.0639  -5.0630  -5.0625  -5.0619  -5.0619  -5.0606  -5.0606
    -5.0599  -5.0587  -5.0587  -5.0585  -5.0579  -5.0578  -5.0572  -5.0557
    -5.0556  -5.0551  -5.0550  -5.0537  -5.0535  -5.0529  -5.0529  -5.0515
    -5.0514  -5.0513  -5.0510  -5.0510  -5.0495  -5.0493  -5.0493  -5.0491
    -5.0483  -5.0482  -5.0474  -5.0469  -5.0468  -5.0449  -5.0449  -5.0446
    -5.0437  -5.0417  -5.0417  -5.0415  -5.0415  -5.0414  -5.0401  -5.0401
    -5.0389  -5.0387  -5.0381  -5.0380  -5.0378  -5.0356  -5.0355  -5.0354
    -5.0346  -5.0346  -5.0344  -5.0331  -5.0330  -5.0330  -5.0316  -5.0316
    -5.0313  -5.0295  -5.0292  -5.0292  -5.0277  -5.0277  -5.0274  -5.0274
    -5.0264  -5.0262  -5.0261  -5.0250  -5.0249  -5.0244  -5.0240  -5.0230
    -5.0230  -5.0206  -5.0206  -5.0202  -5.0200  -5.0200  -5.0198  -5.0188
    -5.0169  -5.0169  -5.0168  -5.0161  -5.0150  -5.0128  -5.0128  -5.0126
    -5.0117  -5.0117  -5.0111  -5.0111  -5.0102  -5.0101  -5.0096  -5.0085
    -5.0077  -5.0076  -5.0074  -5.0074  -5.0073  -5.0066  -5.0065  -5.0048
    -5.0048  -5.0036  -5.0019  -5.0016  -5.0011  -5.0010  -4.9993  -4.9993
    -4.9974  -4.9974  -4.9960  -4.9953  -4.9943  -4.9943  -4.9922  -4.9920
    -4.9909  -4.9908  -4.9887  -4.9886  -4.9885  -4.9870  -4.9869  -4.9864
    -4.9856  -4.9855  -4.9842  -4.9828  -4.9827  -4.9816  -4.9810  -4.9809
    -4.9800  -4.9786  -4.9773  -4.9772  -4.9766  -4.9761  -4.9760  -4.9752
    -4.9722  -4.9721  -4.9713  -4.9700  -4.9699  -4.9685  -4.9684  -4.9655
    -4.9639  -4.9639  -4.9638  -4.9609  -4.9608  -4.9590  -4.9590  -4.9589
    -4.9568  -4.9558  -4.9557  -4.9553  -4.9552  -4.9544  -4.9510  -4.9480
    -4.9480  -4.9480  -4.9446  -4.9446  -4.9443  -4.9424  -4.9423  -4.9412
    -4.9390  -4.9389  -4.9334  -4.9334  -4.9314  -4.9313  -4.9298  -4.9279
    -4.9279  -4.9268  -4.9243  -4.9223  -4.9223  -4.9177  -4.9176  -4.9162
    -4.9130  -4.9102  -4.9101  -4.9064  -4.9035  -4.9034  -4.8997  -4.8979
    -4.8954  -4.8954  -4.8926  -4.8909  -4.8907  -4.8889  -4.8781  -4.8774
    -4.8774  -4.8716  -4.8707  -4.8707  -4.8676  -4.8676  -4.8641  -4.8634
    -4.8634  -4.8578  -4.8578  -4.8569  -4.8568  -4.8536  -4.8522  -4.8512
    -4.8510  -4.8406  -4.8406  -4.8395  -4.8378  -4.8376  -4.8375  -4.8319
    -4.8319  -4.8251  -4.8250  -4.8250  -4.8197  -4.8197  -4.8190  -4.8092
    -4.8089  -4.8063  -4.7929  -4.7765  -4.7633  -4.7563  -4.7562  -4.7467
    -4.7467  -4.7318  -4.7318  -4.7278  -4.7277  -4.7220  -4.6386  -4.4790
    -4.4639  -4.4627  -4.4487  -4.4438  -4.4436  -4.4301  -4.4291  -4.4134
    -4.3983  -4.3981  -4.3522  -4.2995  -4.2993  -4.2887  -4.2748  -4.2747
    -4.2711  -4.2568  -4.2502  -4.2492  -4.2340  -4.2225  -4.2151  -4.2142
    -4.2089  -4.1794  -4.1792  -4.0585  -4.0582  -4.0570  -4.0504  -4.0503
    -4.0478  -4.0325  -4.0324  -4.0283  -4.0282  -4.0214  -4.0066  -3.9991
    -3.9805  -3.9805  -3.9663  -3.9611  -3.9595  -3.9595  -3.9451  -3.9450
    -3.9345  -3.9344  -3.9320  -3.8925  -3.8925  -3.8661  -3.8661  -3.8147
    -3.7925  -3.7902  -3.7883  -3.7881  -3.7677  -3.7633  -3.7631  -3.7280
    -3.7277  -3.7115  -3.6913  -3.6913  -3.5290  -3.4760  -3.3875  -3.3875
    -3.3710  -3.3709  -3.3686  -3.3653  -3.3650  -3.3649  -3.3616  -3.3616
    -3.3591  -3.3590  -3.3586  -3.3536  -3.3535  -3.3477  -3.3471  -3.3315
    -3.2838  -3.2837  -3.2667  -3.2615  -3.2614  -3.2611  -3.2549  -3.2549
    -3.2493  -3.2489  -3.2424  -3.2424  -3.2375  -3.2373  -3.2269  -3.2269
[...]
N             3.2430059521        9.3668927576        9.9199805499
N             3.2439037464        9.3666863723       15.2103100839
N             1.6218735147       12.1718582397        4.6320819165
N             1.6221002897       12.1743837193        9.9199805499
N             1.6223704519       12.1752644247       15.2103100839
N            11.3197402906        0.9309785019        4.6258277213
N            11.3494877709        0.9341668346        9.9257925721
N            11.3515890205        0.9346783909       15.2084392406
N             9.7346391480        3.7480513972        4.6313569376
N             9.7340390871        3.7463102109        9.9238139367
N             9.7340485425        3.7474390269       15.2078051638
N             8.1132285724        6.5564168940        4.6313569376
N             8.1114206304        6.5567678192        9.9238139367
N             8.1124029414        6.5562115998       15.2078051638
N             6.4661224522        9.3376911987        4.6258277213
N             6.4837573694        9.3618591061        9.9257925721
N             6.4852510150        9.3634230634       15.2084392406
N             4.8643418165       12.1746320965        4.6371762801
N             4.8561836821       12.1699219954        9.9181372676
N             4.8620890581       12.1733314659       15.2126259522
N            14.4773391843        0.9429374076        4.6298703745
N            14.5781957487        0.9265346348        9.9566709378
N            14.5749992586        0.9248639826       15.1647492864
N            12.9598194920        3.7566923550        4.6342066407
N            12.9743924511        3.7488164099        9.9252785392
N            12.9764311660        3.7478985301       15.2062425116
N            11.3552476904        6.5559538400        4.6311087952
N            11.3565067516        6.5566807594        9.9235070887
N            11.3556335213        6.5561765996       15.2076277047
N             9.7333020335        9.3451845250        4.6342066407
N             9.7337677445        9.3617430503        9.9252785392
N             9.7339921947        9.3639675691       15.2062425116
N             8.0552786151       12.0662726029        4.6298703745
N             8.0915016794       12.1618183362        9.9566709378
N             8.0884566071       12.1598854207       15.1647492864
N            -0.0721447631        1.9146214169        1.8464887484
N            -0.0741438783        1.9145457435        7.4043614841
N            -0.0063644892        1.8767441458       12.5477274282
N            -1.6276718252        4.6906809260        1.9798102267
N            -1.6362403361        4.7003829797        7.2865965976
N            -1.6343814860        4.6917095797       12.5647795612
N            -3.2458793200        7.4921978899        1.9828895498
N            -3.2475596659        7.4912277417        7.2790207419
N            -3.2450788974        7.4926600141       12.5674840283
N            -4.8629604324       10.2943651708        1.9798102267
N            -4.8588424628       10.2820935959        7.2865965976
N            -4.8654244225       10.2880401074       12.5647795612
N            -6.4893349585       13.0295208775        1.8464887484
N            -6.4904000512       13.0278274297        7.4043614841
N            -6.4892475005       13.1054269013       12.5477274282
N             3.3151584670        1.9140103122        1.8465484119
N             3.3163618616        1.9147050924        7.4040069530
N             3.2506512041        1.8767670266       12.5481184712
N             1.6227092708        4.6740820075        1.9826395799
N             1.6221169925        4.6832468328        7.2893330088
N             1.6224567707        4.6989845985       12.5621714642
N             0.0017907122        7.4930352769        1.9899168701
N            -0.0023486776        7.4954351462        7.2753596407
N             0.0001736951        7.4953691812       12.5663624708
N            -1.6213191054       10.3043439474        1.9899168701
N            -1.6213104526       10.2995591960        7.2753596407
N            -1.6201063936       10.3017766174       12.5663624708
N            -3.2521449695       13.1175772314        1.9826395799
N            -3.2445041372       13.1124818907        7.2893330088
N            -3.2307049431       13.1049072644       12.5621714642
N             6.4984056557        1.8749938909        1.9799285155
N             6.5110234750        1.8769644419        7.2867981761
N             6.5027414017        1.8798750790       12.5649622736
N             4.8729928494        4.6902914550        1.9799285155
N             4.8810083062        4.7002335315        7.2867981761
N             4.8793879553        4.6916057271       12.5649622736
N             3.2429940578        7.4929349387        1.9898598997
N             3.2469374201        7.4953118982        7.2750924998
N             3.2449833565        7.4953904215       12.5662274806
N             1.6225036460       10.3029601059        1.9878205842
N             1.6222583367       10.3028184765        7.2756701124
N             1.6226061421       10.3030192820       12.5651220447
N            -0.0008043281       13.1113585527        1.9898598997
N             0.0032258603       13.1135851249        7.2750924998
N             0.0023168317       13.1118535945       12.5662274806
N             9.7334720324        1.8754745866        1.9828850677
N             9.7329438371        1.8770426880        7.2792981057
N             9.7335782648        1.8744428697       12.5677825696
N             8.1145461360        4.6849380750        1.9861732230
N             8.1157409908        4.6856279247        7.2783987382
N             8.1146284467        4.6849855970       12.5656273866
N             6.4909423324        7.4917007723        1.9828850677
N             6.4920362503        7.4904592910        7.2792981057
N             6.4901019555        7.4923086307       12.5677825696
N             4.8661448755       10.3044185882        1.9897456715
N             4.8653941096       10.2989966677        7.2751551430
N             4.8649324760       10.3015302248       12.5663503600
N             3.2455873435       13.1113065703        1.9897456715
N             3.2405164397       13.1133673482        7.2751551430
N             3.2424797477       13.1117007833       12.5663503600
N            12.9684634493        1.8748894817        1.9799326676
N            12.9547854325        1.8764967206        7.2869391993
N            12.9646798232        1.8799229815       12.5652354815
N            11.3537684524        4.6848606090        1.9864243849
N            11.3519110807        4.6856854158        7.2783858611
N            11.3530625205        4.6851410410       12.5656744946
N             9.7340902068        7.4902256226        1.9864243849
N             9.7338758245        7.4882046881        7.2783858611
N             9.7339801020        7.4894740516       12.5656744946
N             8.1079313251       10.2935780728        1.9799326676
N             8.1024842265       10.2809289434        7.2869391993
N             8.1103986507       10.2877846067       12.5652354815
N             6.4970856838       13.1173013577        1.9827969461
N             6.4872132140       13.1116014846        7.2890744313
N             6.4752430239       13.1046904921       12.5623474548
Ga            1.6213155357        0.9360654900        4.5944573566



     Writing config-only to output data dir ./GaN.save/
     NEW-OLD atomic charge density approx. for the potential

     Check: negative core charge=   -0.000003


     -----------------------------------------------
     Non-local corr. energy    =      82.11291351 Ry
     -----------------------------------------------


     total cpu time spent up to now is   141011.2 secs

     Self-consistent Calculation

     iteration #  1     ecut=    70.00 Ry     beta= 0.70
     Davidson diagonalization with overlap

---- Real-time Memory Report at c_bands before calling an iterative solver
          3624 MiB given to the printing process from OS
             0 MiB allocation reported by mallinfo(arena+hblkhd)
       1878179 MiB available memory on the node where the printing process lives
------------------
     ethr =  1.00E-06,  avg # of iterations =  3.0

     Threshold (ethr) on eigenvalues was too large:
     Diagonalizing with lowered threshold

     Davidson diagonalization with overlap

---- Real-time Memory Report at c_bands before calling an iterative solver
          3624 MiB given to the printing process from OS
             0 MiB allocation reported by mallinfo(arena+hblkhd)
       1886945 MiB available memory on the node where the printing process lives
------------------
     ethr =  9.06E-08,  avg # of iterations =  2.0


     -----------------------------------------------
     Non-local corr. energy    =      82.11277111 Ry
     -----------------------------------------------


     total cpu time spent up to now is   141992.9 secs

     total energy              =  -47095.95454015 Ry
     estimated scf accuracy    <       0.00250018 Ry

     iteration #  2     ecut=    70.00 Ry     beta= 0.70
     Davidson diagonalization with overlap

---- Real-time Memory Report at c_bands before calling an iterative solver
          3624 MiB given to the printing process from OS
             0 MiB allocation reported by mallinfo(arena+hblkhd)
       1868006 MiB available memory on the node where the printing process lives
------------------
     ethr =  9.23E-08,  avg # of iterations = 13.2


     -----------------------------------------------
     Non-local corr. energy    =      82.11279549 Ry
     -----------------------------------------------


     total cpu time spent up to now is   143693.0 secs

     total energy              =  -47095.95519593 Ry
     estimated scf accuracy    <       0.00057852 Ry

     iteration #  3     ecut=    70.00 Ry     beta= 0.70
     Davidson diagonalization with overlap

---- Real-time Memory Report at c_bands before calling an iterative solver
          3624 MiB given to the printing process from OS
             0 MiB allocation reported by mallinfo(arena+hblkhd)
       1867998 MiB available memory on the node where the printing process lives
------------------
     ethr =  2.13E-08,  avg # of iterations = 15.0


     -----------------------------------------------
     Non-local corr. energy    =      82.11281069 Ry
     -----------------------------------------------


     total cpu time spent up to now is   145775.2 secs

     total energy              =  -47095.95523945 Ry
     estimated scf accuracy    <       0.00037596 Ry

     iteration #  4     ecut=    70.00 Ry     beta= 0.70
     Davidson diagonalization with overlap

---- Real-time Memory Report at c_bands before calling an iterative solver
          3624 MiB given to the printing process from OS
             0 MiB allocation reported by mallinfo(arena+hblkhd)
       1867979 MiB available memory on the node where the printing process lives
------------------
     ethr =  1.39E-08,  avg # of iterations = 14.8


     -----------------------------------------------
     Non-local corr. energy    =      82.11282387 Ry
     -----------------------------------------------


     total cpu time spent up to now is   147549.5 secs

     total energy              =  -47095.95528509 Ry
     estimated scf accuracy    <       0.00020512 Ry

     iteration #  5     ecut=    70.00 Ry     beta= 0.70
     Davidson diagonalization with overlap

---- Real-time Memory Report at c_bands before calling an iterative solver
          3624 MiB given to the printing process from OS
             0 MiB allocation reported by mallinfo(arena+hblkhd)
       1867952 MiB available memory on the node where the printing process lives
------------------
     ethr =  7.57E-09,  avg # of iterations =  1.0


     -----------------------------------------------
     Non-local corr. energy    =      82.11284443 Ry
     -----------------------------------------------


     total cpu time spent up to now is   147818.5 secs

     total energy              =  -47095.95530880 Ry
     estimated scf accuracy    <       0.00014209 Ry

     iteration #  6     ecut=    70.00 Ry     beta= 0.70
     Davidson diagonalization with overlap

---- Real-time Memory Report at c_bands before calling an iterative solver
          3624 MiB given to the printing process from OS
             0 MiB allocation reported by mallinfo(arena+hblkhd)
       1867903 MiB available memory on the node where the printing process lives
------------------
     ethr =  5.24E-09,  avg # of iterations =  1.0


     -----------------------------------------------
     Non-local corr. energy    =      82.11287544 Ry
     -----------------------------------------------


     total cpu time spent up to now is   148087.3 secs

     total energy              =  -47095.95532686 Ry
     estimated scf accuracy    <       0.00006680 Ry

     iteration #  7     ecut=    70.00 Ry     beta= 0.70
     Davidson diagonalization with overlap

---- Real-time Memory Report at c_bands before calling an iterative solver
          3624 MiB given to the printing process from OS
             0 MiB allocation reported by mallinfo(arena+hblkhd)
       1867822 MiB available memory on the node where the printing process lives
------------------
     ethr =  2.46E-09,  avg # of iterations = 14.7


     -----------------------------------------------
     Non-local corr. energy    =      82.11288697 Ry
     -----------------------------------------------


     total cpu time spent up to now is   149308.1 secs

     total energy              =  -47095.95533006 Ry
     estimated scf accuracy    <       0.00000756 Ry

     iteration #  8     ecut=    70.00 Ry     beta= 0.70
     Davidson diagonalization with overlap

---- Real-time Memory Report at c_bands before calling an iterative solver
          3624 MiB given to the printing process from OS
             0 MiB allocation reported by mallinfo(arena+hblkhd)
       1867709 MiB available memory on the node where the printing process lives
------------------
     ethr =  2.79E-10,  avg # of iterations = 13.2


     -----------------------------------------------
     Non-local corr. energy    =      82.11290028 Ry
     -----------------------------------------------


     total cpu time spent up to now is   151863.0 secs

     total energy              =  -47095.95533173 Ry
     estimated scf accuracy    <       0.00000078 Ry

     iteration #  9     ecut=    70.00 Ry     beta= 0.70
     Davidson diagonalization with overlap

---- Real-time Memory Report at c_bands before calling an iterative solver
          3624 MiB given to the printing process from OS
             0 MiB allocation reported by mallinfo(arena+hblkhd)
       1867580 MiB available memory on the node where the printing process lives
------------------
     c_bands:  1 eigenvalues not converged
     ethr =  2.86E-11,  avg # of iterations = 15.0


     -----------------------------------------------
     Non-local corr. energy    =      82.11290690 Ry
     -----------------------------------------------


     total cpu time spent up to now is   153826.1 secs

     total energy              =  -47095.95533179 Ry
     estimated scf accuracy    <       0.00000006 Ry

     iteration # 10     ecut=    70.00 Ry     beta= 0.70
     Davidson diagonalization with overlap

---- Real-time Memory Report at c_bands before calling an iterative solver
          3624 MiB given to the printing process from OS
             0 MiB allocation reported by mallinfo(arena+hblkhd)
       1867449 MiB available memory on the node where the printing process lives
------------------
     c_bands:  1 eigenvalues not converged

     Maximum CPU time exceeded

     max_seconds     =  154800.00
     elapsed seconds =  155748.01
     Calculation stopped in k-point loop, point #     1
     Calculation stopped in scf loop at iteration #     9

     Writing config to output data dir ./GaN.save/
 
     init_run     :    113.14s CPU    119.44s WALL (       1 calls)
     electrons    : 147222.07s CPU 148707.15s WALL (       6 calls)
     update_pot   :     12.81s CPU     13.11s WALL (       5 calls)
     forces       :    342.27s CPU    348.88s WALL (       5 calls)
     stress       :   6388.95s CPU   6469.17s WALL (       5 calls)

     Called by init_run:
     wfcinit      :    108.12s CPU    113.99s WALL (       1 calls)
     wfcinit:atom :      0.24s CPU      0.43s WALL (       2 calls)
     wfcinit:wfcr :    106.24s CPU    111.34s WALL (       2 calls)
     potinit      :      1.69s CPU      1.91s WALL (       1 calls)
     hinit0       :      1.41s CPU      1.50s WALL (       1 calls)

     Called by electrons:
     c_bands      : 145274.23s CPU 146734.63s WALL (      82 calls)
     sum_band     :   1763.68s CPU   1788.69s WALL (      81 calls)
     v_of_rho     :     79.12s CPU     82.51s WALL (      85 calls)
     v_h          :      1.14s CPU      1.16s WALL (      85 calls)
     v_xc         :     86.86s CPU     90.83s WALL (      95 calls)
     newd         :     17.04s CPU     17.40s WALL (      85 calls)
     PAW_pot      :     50.85s CPU     51.32s WALL (      90 calls)
     mix_rho      :      4.32s CPU      4.47s WALL (      81 calls)
     vdW_kernel   :      0.16s CPU      0.17s WALL (       1 calls)

     Called by c_bands:
     init_us_2    :     85.98s CPU     87.28s WALL (     357 calls)
     init_us_2:cp :     85.97s CPU     87.28s WALL (     357 calls)
     cegterg      : 125090.45s CPU 126374.63s WALL (     165 calls)

     Called by sum_band:
     sum_band:wei :      0.78s CPU      0.78s WALL (      81 calls)
     sum_band:loo :   1732.83s CPU   1750.03s WALL (      81 calls)
     sum_band:buf :     20.02s CPU     20.31s WALL (     162 calls)
     sum_band:ini :     43.05s CPU     43.57s WALL (     162 calls)
     sum_band:cal :   1257.68s CPU   1269.03s WALL (     172 calls)
     sum_band:bec :     10.46s CPU     10.60s WALL (     172 calls)
     addusdens    :     16.35s CPU     16.84s WALL (      81 calls)
     addusd:skk   :      3.51s CPU      3.60s WALL (     162 calls)
     addusd:dgemm :      7.86s CPU      8.19s WALL (     162 calls)
     addusd:qvan2 :      1.92s CPU      1.95s WALL (     162 calls)

     Called by *egterg:
     cdiaghg      : 102521.31s CPU 103198.01s WALL (    1982 calls)
     cegterg:over :   4515.66s CPU   4635.63s WALL (    1833 calls)
     cegterg:upda :   2865.01s CPU   2912.53s WALL (    1833 calls)
     cegterg:last :   1462.10s CPU   1473.90s WALL (     171 calls)
     h_psi        :   9242.22s CPU   9382.88s WALL (    2000 calls)
     s_psi        :   3300.66s CPU   3354.16s WALL (    2000 calls)
     g_psi        :      9.31s CPU      9.43s WALL (    1833 calls)

     Called by h_psi:
     h_psi:calbec :   3461.40s CPU   3487.45s WALL (    2000 calls)
     vloc_psi     :   2436.02s CPU   2462.83s WALL (    2000 calls)
     add_vuspsi   :   3305.62s CPU   3363.49s WALL (    2000 calls)

     General routines
     calbec       :   5259.84s CPU   5302.55s WALL (    2222 calls)
     fft          :     40.31s CPU     40.86s WALL (    6197 calls)
     ffts         :      1.28s CPU      1.30s WALL (     166 calls)
     fftw         :   2679.19s CPU   2709.94s WALL ( 1741046 calls)
     interpolate  :      1.09s CPU      1.10s WALL (      85 calls)
     davcio       :      0.00s CPU      0.07s WALL (      20 calls)
 
     Parallel routines

     PAW routines
     PAW_pot      :     50.85s CPU     51.32s WALL (      90 calls)
     PAW_symme    :      1.41s CPU      1.43s WALL (     170 calls)
 
     PWSCF        :   1d18h49m CPU   1d19h16m WALL

 
   This run was terminated on:   1:56:42  10May2024            

=------------------------------------------------------------------------------=
   JOB DONE.
=------------------------------------------------------------------------------=
