
     Program PWSCF v.7.1 starts on 28May2024 at 15:21:52 

     This program is part of the open-source Quantum ESPRESSO suite
     for quantum simulation of materials; please cite
         "P. Giannozzi et al., J. Phys.:Condens. Matter 21 395502 (2009);
         "P. Giannozzi et al., J. Phys.:Condens. Matter 29 465901 (2017);
         "P. Giannozzi et al., J. Chem. Phys. 152 154105 (2020);
          URL http://www.quantum-espresso.org", 
     in publications or presentations arising from this work. More details at
     http://www.quantum-espresso.org/quote

     Parallel version (MPI & OpenMP), running on     256 processor cores
     Number of MPI processes:               256
     Threads/MPI process:                     1

     MPI processes distributed on     2 nodes
     1872116 MiB available memory on the printing compute node when the environment starts
 
     Reading input from espresso.pwi
Warning: card &CELL ignored
Warning: card    CELL_DYNAMICS    = 'BFGS' ignored
Warning: card / ignored

     Current dimensions of program PWSCF are:
     Max number of different atomic species (ntypx) = 10
     Max number of k-points (npk) =  40000
     Max angular momentum in pseudopotentials (lmaxx) =  4
     file Ga.pbe-dn-kjpaw_psl.1.0.0.UPF: wavefunction(s)  4S renormalized
     file N.pbe-n-kjpaw_psl.1.0.0.UPF: wavefunction(s)  2S renormalized

     **************************************************************************
     Initializing libbeef V0.1.2 with the BEEF-vdW functional.
     Citation: Wellendorff et al., PRB 85, 235149 (2012).
     **************************************************************************


     IMPORTANT: XC functional enforced from input :
     Exchange-correlation= BEEF-VDW
                           (   1   4  43  14   2   0   0)
     Any further DFT definition will be discarded
     Please, verify this is what you really want

 
     K-points division:     npool     =       4
     R & G space division:  proc/nbgrp/npool/nimage =      64
     Subspace diagonalization in iterative solution of the eigenvalue problem:
     a serial algorithm will be used

 
     Parallelization info
     --------------------
     sticks:   dense  smooth     PW     G-vecs:    dense   smooth      PW
     Min         354     283     73                42160    30167    3987
     Max         356     285     74                42163    30170    3996
     Sum       22693   18145   4705              2698283  1930731  255309
 
     Using Slab Decomposition
 


     bravais-lattice index     =            4
     lattice parameter (alat)  =      30.6565  a.u.
     unit-cell volume          =   24400.9461 (a.u.)^3
     number of atoms/cell      =          300
     number of atomic types    =            2
     number of electrons       =      2710.00
     number of Kohn-Sham states=         1626
     kinetic-energy cutoff     =      70.0000  Ry
     charge density cutoff     =     350.0000  Ry
     scf convergence threshold =      1.0E-07
     mixing beta               =       0.7000
     number of iterations used =            8  plain     mixing
     Exchange-correlation= BEEF-VDW
                           (   1   4  43  14   2   0   0)

     celldm(1)=  30.656540  celldm(2)=   0.000000  celldm(3)=   0.977927
     celldm(4)=   0.000000  celldm(5)=   0.000000  celldm(6)=   0.000000

     crystal axes: (cart. coord. in units of alat)
               a(1) = (   1.000000   0.000000   0.000000 )  
               a(2) = (  -0.500000   0.866025   0.000000 )  
               a(3) = (   0.000000   0.000000   0.977927 )  

     reciprocal axes: (cart. coord. in units 2 pi/alat)
               b(1) = (  1.000000  0.577350 -0.000000 )  
               b(2) = (  0.000000  1.154701  0.000000 )  
               b(3) = (  0.000000 -0.000000  1.022571 )  


     PseudoPot. # 1 for Ga read from file:
     //group///packages/espresso/pseudo/psl_1.0.0/pslibrary.1.0.0/pbe/PSEUDOPOTENTIALS/Ga.pbe-dn-kjpaw_psl.1.0.0.UPF
     MD5 check sum: cd2a01e492f15b435d17032472d8505c
     Pseudo is Projector augmented-wave + core cor, Zval = 13.0
     Generated using 'atomic' code by A. Dal Corso  v.7.1
     Shape of augmentation charge: PSQ
     Using radial grid of 1205 points,  6 beta functions with: 
                l(1) =   0
                l(2) =   0
                l(3) =   1
                l(4) =   1
                l(5) =   2
                l(6) =   2
     Q(r) pseudized with 0 coefficients 


     PseudoPot. # 2 for N  read from file:
     //group///packages/espresso/pseudo/psl_1.0.0/pslibrary.1.0.0/pbe/PSEUDOPOTENTIALS/N.pbe-n-kjpaw_psl.1.0.0.UPF
     MD5 check sum: f77f775694dac7e2c3fe1c82443d1a16
     Pseudo is Projector augmented-wave + core cor, Zval =  5.0
     Generated using 'atomic' code by A. Dal Corso  v.7.1
     Shape of augmentation charge: PSQ
     Using radial grid of 1085 points,  4 beta functions with: 
                l(1) =   0
                l(2) =   0
                l(3) =   1
                l(4) =   1
     Q(r) pseudized with 0 coefficients 


     atomic species   valence    mass     pseudopotential
        Ga            13.00    69.72300     Ga( 1.00)
        N              5.00    14.00700     N ( 1.00)

      2 Sym. Ops. (no inversion) found


                                    s                        frac. trans.

      isym =  1     identity                                     

 cryst.   s( 1) = (     1          0          0      )
                  (     0          1          0      )
                  (     0          0          1      )

 cart.    s( 1) = (  1.0000000  0.0000000  0.0000000 )
                  (  0.0000000  1.0000000  0.0000000 )
                  (  0.0000000  0.0000000  1.0000000 )


      isym =  2     inv. 180 deg rotation - cryst. axis [0,1,0]  

 cryst.   s( 2) = (     1          1          0      )
                  (     0         -1          0      )
                  (     0          0          1      )

 cart.    s( 2) = (  0.5000000  0.8660254  0.0000000 )
                  (  0.8660254 -0.5000000  0.0000000 )
                  (  0.0000000  0.0000000  1.0000000 )


     point group C_s (m)    
     there are  2 classes
     the character table:

       E     s    
A'     1.00  1.00
A''    1.00 -1.00

     the symmetry operations in each class and the name of the first element:

     E        1
          identity                                               
     s        2
          inv. 180 deg rotation - cryst. axis [0,1,0]            

   Cartesian axes

     site n.     atom                  positions (alat units)
         1           Ga  tau(   1) = (   0.1000001   0.0577350   0.1627148  )
         2           Ga  tau(   2) = (   0.1000001   0.0577350   0.4886906  )
         3           Ga  tau(   3) = (   0.1000001   0.0577350   0.8146665  )
         4           Ga  tau(   4) = (   0.0000001   0.2309401   0.1627148  )
         5           Ga  tau(   5) = (   0.0000001   0.2309401   0.4886906  )
         6           Ga  tau(   6) = (   0.0000001   0.2309401   0.8146665  )
         7           Ga  tau(   7) = (  -0.0999999   0.4041451   0.1627148  )
         8           Ga  tau(   8) = (  -0.0999999   0.4041451   0.4886906  )
         9           Ga  tau(   9) = (  -0.0999999   0.4041451   0.8146665  )
        10           Ga  tau(  10) = (  -0.1999999   0.5773502   0.1627148  )
        11           Ga  tau(  11) = (  -0.1999999   0.5773502   0.4886906  )
        12           Ga  tau(  12) = (  -0.1999999   0.5773502   0.8146665  )
        13           Ga  tau(  13) = (  -0.2999999   0.7505553   0.1627148  )
        14           Ga  tau(  14) = (  -0.2999999   0.7505553   0.4886906  )
        15           Ga  tau(  15) = (  -0.2999999   0.7505553   0.8146665  )
        16           Ga  tau(  16) = (   0.3000001   0.0577350   0.1627148  )
        17           Ga  tau(  17) = (   0.3000001   0.0577350   0.4886906  )
        18           Ga  tau(  18) = (   0.3000001   0.0577350   0.8146665  )
        19           Ga  tau(  19) = (   0.2000001   0.2309401   0.1627148  )
        20           Ga  tau(  20) = (   0.2000001   0.2309401   0.4886906  )
        21           Ga  tau(  21) = (   0.2000001   0.2309401   0.8146665  )
        22           Ga  tau(  22) = (   0.1000001   0.4041451   0.1627148  )
        23           Ga  tau(  23) = (   0.1000001   0.4041451   0.4886906  )
        24           Ga  tau(  24) = (   0.1000001   0.4041451   0.8146665  )
        25           Ga  tau(  25) = (   0.0000001   0.5773502   0.1627148  )
        26           Ga  tau(  26) = (   0.0000001   0.5773502   0.4886906  )
        27           Ga  tau(  27) = (   0.0000001   0.5773502   0.8146665  )
        28           Ga  tau(  28) = (  -0.0999999   0.7505553   0.1627148  )
        29           Ga  tau(  29) = (  -0.0999999   0.7505553   0.4886906  )
        30           Ga  tau(  30) = (  -0.0999999   0.7505553   0.8146665  )
        31           Ga  tau(  31) = (   0.5000001   0.0577350   0.1627148  )
        32           Ga  tau(  32) = (   0.5000001   0.0577350   0.4886906  )
        33           Ga  tau(  33) = (   0.5000001   0.0577350   0.8146665  )
        34           Ga  tau(  34) = (   0.4000001   0.2309401   0.1627148  )
        35           Ga  tau(  35) = (   0.4000001   0.2309401   0.4886906  )
        36           Ga  tau(  36) = (   0.4000001   0.2309401   0.8146665  )
        37           Ga  tau(  37) = (   0.3000001   0.4041451   0.1627148  )
        38           Ga  tau(  38) = (   0.3000001   0.4041451   0.4886906  )
        39           Ga  tau(  39) = (   0.3000001   0.4041451   0.8146665  )
        40           Ga  tau(  40) = (   0.2000001   0.5773502   0.1627148  )
        41           Ga  tau(  41) = (   0.2000001   0.5773502   0.4886906  )
        42           Ga  tau(  42) = (   0.2000001   0.5773502   0.8146665  )
        43           Ga  tau(  43) = (   0.1000001   0.7505553   0.1627148  )
        44           Ga  tau(  44) = (   0.1000001   0.7505553   0.4886906  )
        45           Ga  tau(  45) = (   0.1000001   0.7505553   0.8146665  )
        46           Ga  tau(  46) = (   0.7000001   0.0577350   0.1627148  )
        47           Ga  tau(  47) = (   0.7000001   0.0577350   0.4886906  )
        48           Ga  tau(  48) = (   0.7000001   0.0577350   0.8146665  )
        49           Ga  tau(  49) = (   0.6000001   0.2309401   0.1627148  )
        50           Ga  tau(  50) = (   0.6000001   0.2309401   0.4886906  )
        51           Ga  tau(  51) = (   0.6000001   0.2309401   0.8146665  )
        52           Ga  tau(  52) = (   0.5000001   0.4041451   0.1627148  )
        53           Ga  tau(  53) = (   0.5000001   0.4041451   0.4886906  )
        54           Ga  tau(  54) = (   0.5000001   0.4041451   0.8146665  )
        55           Ga  tau(  55) = (   0.4000001   0.5773502   0.1627148  )
        56           Ga  tau(  56) = (   0.4000001   0.5773502   0.4886906  )
        57           Ga  tau(  57) = (   0.4000001   0.5773502   0.8146665  )
        58           Ga  tau(  58) = (   0.3000001   0.7505553   0.1627148  )
        59           Ga  tau(  59) = (   0.3000001   0.7505553   0.4886906  )
        60           Ga  tau(  60) = (   0.3000001   0.7505553   0.8146665  )
        61           Ga  tau(  61) = (   0.9000001   0.0577350   0.1627148  )
        62           Ga  tau(  62) = (   0.9000001   0.0577350   0.4886906  )
        63           Ga  tau(  63) = (   0.9000001   0.0577350   0.8146665  )
        64           Ga  tau(  64) = (   0.8000001   0.2309401   0.1627148  )
        65           Ga  tau(  65) = (   0.8000001   0.2309401   0.4886906  )
        66           Ga  tau(  66) = (   0.8000001   0.2309401   0.8146665  )
        67           Ga  tau(  67) = (   0.7000001   0.4041451   0.1627148  )
        68           Ga  tau(  68) = (   0.7000001   0.4041451   0.4886906  )
        69           Ga  tau(  69) = (   0.7000001   0.4041451   0.8146665  )
        70           Ga  tau(  70) = (   0.6000001   0.5773502   0.1627148  )
        71           Ga  tau(  71) = (   0.6000001   0.5773502   0.4886906  )
        72           Ga  tau(  72) = (   0.6000001   0.5773502   0.8146665  )
        73           Ga  tau(  73) = (   0.5000001   0.7505553   0.1627148  )
        74           Ga  tau(  74) = (   0.5000001   0.7505553   0.4886906  )
        75           Ga  tau(  75) = (   0.5000001   0.7505553   0.8146665  )
        76           Ga  tau(  76) = (  -0.0000001   0.1154701   0.3257027  )
        77           Ga  tau(  77) = (  -0.0000001   0.1154701   0.6516786  )
        78           Ga  tau(  78) = (  -0.0000001   0.1154701   0.9776544  )
        79           Ga  tau(  79) = (  -0.1000001   0.2886752   0.3257027  )
        80           Ga  tau(  80) = (  -0.1000001   0.2886752   0.6516786  )
        81           Ga  tau(  81) = (  -0.1000001   0.2886752   0.9776544  )
        82           Ga  tau(  82) = (  -0.2000001   0.4618803   0.3257027  )
        83           Ga  tau(  83) = (  -0.2000001   0.4618803   0.6516786  )
        84           Ga  tau(  84) = (  -0.2000001   0.4618803   0.9776544  )
        85           Ga  tau(  85) = (  -0.3000001   0.6350854   0.3257027  )
        86           Ga  tau(  86) = (  -0.3000001   0.6350854   0.6516786  )
        87           Ga  tau(  87) = (  -0.3000001   0.6350854   0.9776544  )
        88           Ga  tau(  88) = (  -0.4000001   0.8082905   0.3257027  )
        89           Ga  tau(  89) = (  -0.4000001   0.8082905   0.6516786  )
        90           Ga  tau(  90) = (  -0.4000001   0.8082905   0.9776544  )
        91           Ga  tau(  91) = (   0.1999999   0.1154701   0.3257027  )
        92           Ga  tau(  92) = (   0.1999999   0.1154701   0.6516786  )
        93           Ga  tau(  93) = (   0.1999999   0.1154701   0.9776544  )
        94           Ga  tau(  94) = (   0.0999999   0.2886752   0.3257027  )
        95           Ga  tau(  95) = (   0.0999999   0.2886752   0.6516786  )
        96           Ga  tau(  96) = (   0.0999999   0.2886752   0.9776544  )
        97           Ga  tau(  97) = (  -0.0000001   0.4618803   0.3257027  )
        98           Ga  tau(  98) = (  -0.0000001   0.4618803   0.6516786  )
        99           Ga  tau(  99) = (  -0.0000001   0.4618803   0.9776544  )
       100           Ga  tau( 100) = (  -0.1000001   0.6350854   0.3257027  )
       101           Ga  tau( 101) = (  -0.1000001   0.6350854   0.6516786  )
       102           Ga  tau( 102) = (  -0.1000001   0.6350854   0.9776544  )
       103           Ga  tau( 103) = (  -0.2000001   0.8082905   0.3257027  )
       104           Ga  tau( 104) = (  -0.2000001   0.8082905   0.6516786  )
       105           Ga  tau( 105) = (  -0.2000001   0.8082905   0.9776544  )
       106           Ga  tau( 106) = (   0.3999999   0.1154701   0.3257027  )
       107           Ga  tau( 107) = (   0.3999999   0.1154701   0.6516786  )
       108           Ga  tau( 108) = (   0.3999999   0.1154701   0.9776544  )
       109           Ga  tau( 109) = (   0.2999999   0.2886752   0.3257027  )
       110           Ga  tau( 110) = (   0.2999999   0.2886752   0.6516786  )
       111           Ga  tau( 111) = (   0.2999999   0.2886752   0.9776544  )
       112           Ga  tau( 112) = (   0.1999999   0.4618803   0.3257027  )
       113           Ga  tau( 113) = (   0.1999999   0.4618803   0.6516786  )
       114           Ga  tau( 114) = (   0.1999999   0.4618803   0.9776544  )
       115           Ga  tau( 115) = (   0.0999999   0.6350854   0.3257027  )
       116           Ga  tau( 116) = (   0.0999999   0.6350854   0.6516786  )
       117           Ga  tau( 117) = (   0.0999999   0.6350854   0.9776544  )
       118           Ga  tau( 118) = (  -0.0000001   0.8082905   0.3257027  )
       119           Ga  tau( 119) = (  -0.0000001   0.8082905   0.6516786  )
       120           Ga  tau( 120) = (  -0.0000001   0.8082905   0.9776544  )
       121           Ga  tau( 121) = (   0.5999999   0.1154701   0.3257027  )
       122           Ga  tau( 122) = (   0.5999999   0.1154701   0.6516786  )
       123           Ga  tau( 123) = (   0.5999999   0.1154701   0.9776544  )
       124           Ga  tau( 124) = (   0.4999999   0.2886752   0.3257027  )
       125           Ga  tau( 125) = (   0.4999999   0.2886752   0.6516786  )
       126           Ga  tau( 126) = (   0.4999999   0.2886752   0.9776544  )
       127           Ga  tau( 127) = (   0.3999999   0.4618803   0.3257027  )
       128           Ga  tau( 128) = (   0.3999999   0.4618803   0.6516786  )
       129           Ga  tau( 129) = (   0.3999999   0.4618803   0.9776544  )
       130           Ga  tau( 130) = (   0.2999999   0.6350854   0.3257027  )
       131           Ga  tau( 131) = (   0.2999999   0.6350854   0.6516786  )
       132           Ga  tau( 132) = (   0.2999999   0.6350854   0.9776544  )
       133           Ga  tau( 133) = (   0.1999999   0.8082905   0.3257027  )
       134           Ga  tau( 134) = (   0.1999999   0.8082905   0.6516786  )
       135           Ga  tau( 135) = (   0.1999999   0.8082905   0.9776544  )
       136           Ga  tau( 136) = (   0.7999999   0.1154701   0.3257027  )
       137           Ga  tau( 137) = (   0.7999999   0.1154701   0.6516786  )
       138           Ga  tau( 138) = (   0.7999999   0.1154701   0.9776544  )
       139           Ga  tau( 139) = (   0.6999999   0.2886752   0.3257027  )
       140           Ga  tau( 140) = (   0.6999999   0.2886752   0.6516786  )
       141           Ga  tau( 141) = (   0.6999999   0.2886752   0.9776544  )
       142           Ga  tau( 142) = (   0.5999999   0.4618803   0.3257027  )
       143           Ga  tau( 143) = (   0.5999999   0.4618803   0.6516786  )
       144           Ga  tau( 144) = (   0.5999999   0.4618803   0.9776544  )
       145           Ga  tau( 145) = (   0.4999999   0.6350854   0.3257027  )
       146           Ga  tau( 146) = (   0.4999999   0.6350854   0.6516786  )
       147           Ga  tau( 147) = (   0.4999999   0.6350854   0.9776544  )
       148           Ga  tau( 148) = (   0.3999999   0.8082905   0.3257027  )
       149           Ga  tau( 149) = (   0.3999999   0.8082905   0.6516786  )
       150           Ga  tau( 150) = (   0.3999999   0.8082905   0.9776544  )
       151           N   tau( 151) = (   0.1000001   0.0577350   0.6114777  )
       152           N   tau( 152) = (   0.1000001   0.0577350   0.9374535  )
       153           N   tau( 153) = (   0.0000001   0.2309401   0.2855019  )
       154           N   tau( 154) = (   0.0000001   0.2309401   0.6114777  )
       155           N   tau( 155) = (   0.0000001   0.2309401   0.9374535  )
       156           N   tau( 156) = (  -0.0999999   0.4041451   0.2855019  )
       157           N   tau( 157) = (  -0.0999999   0.4041451   0.6114777  )
       158           N   tau( 158) = (  -0.0999999   0.4041451   0.9374535  )
       159           N   tau( 159) = (  -0.1999999   0.5773502   0.2855019  )
       160           N   tau( 160) = (  -0.1999999   0.5773502   0.6114777  )
       161           N   tau( 161) = (  -0.1999999   0.5773502   0.9374535  )
       162           N   tau( 162) = (  -0.2999999   0.7505553   0.2855019  )
       163           N   tau( 163) = (  -0.2999999   0.7505553   0.6114777  )
       164           N   tau( 164) = (  -0.2999999   0.7505553   0.9374535  )
       165           N   tau( 165) = (   0.3000001   0.0577350   0.2855019  )
       166           N   tau( 166) = (   0.3000001   0.0577350   0.6114777  )
       167           N   tau( 167) = (   0.3000001   0.0577350   0.9374535  )
       168           N   tau( 168) = (   0.2000001   0.2309401   0.2855019  )
       169           N   tau( 169) = (   0.2000001   0.2309401   0.6114777  )
       170           N   tau( 170) = (   0.2000001   0.2309401   0.9374535  )
       171           N   tau( 171) = (   0.1000001   0.4041451   0.2855019  )
       172           N   tau( 172) = (   0.1000001   0.4041451   0.6114777  )
       173           N   tau( 173) = (   0.1000001   0.4041451   0.9374535  )
       174           N   tau( 174) = (   0.0000001   0.5773502   0.2855019  )
       175           N   tau( 175) = (   0.0000001   0.5773502   0.6114777  )
       176           N   tau( 176) = (   0.0000001   0.5773502   0.9374535  )
       177           N   tau( 177) = (  -0.0999999   0.7505553   0.2855019  )
       178           N   tau( 178) = (  -0.0999999   0.7505553   0.6114777  )
       179           N   tau( 179) = (  -0.0999999   0.7505553   0.9374535  )
       180           N   tau( 180) = (   0.5000001   0.0577350   0.2855019  )
       181           N   tau( 181) = (   0.5000001   0.0577350   0.6114777  )
       182           N   tau( 182) = (   0.5000001   0.0577350   0.9374535  )
       183           N   tau( 183) = (   0.4000001   0.2309401   0.2855019  )
       184           N   tau( 184) = (   0.4000001   0.2309401   0.6114777  )
       185           N   tau( 185) = (   0.4000001   0.2309401   0.9374535  )
       186           N   tau( 186) = (   0.3000001   0.4041451   0.2855019  )
       187           N   tau( 187) = (   0.3000001   0.4041451   0.6114777  )
       188           N   tau( 188) = (   0.3000001   0.4041451   0.9374535  )
       189           N   tau( 189) = (   0.2000001   0.5773502   0.2855019  )
       190           N   tau( 190) = (   0.2000001   0.5773502   0.6114777  )
       191           N   tau( 191) = (   0.2000001   0.5773502   0.9374535  )
       192           N   tau( 192) = (   0.1000001   0.7505553   0.2855019  )
       193           N   tau( 193) = (   0.1000001   0.7505553   0.6114777  )
       194           N   tau( 194) = (   0.1000001   0.7505553   0.9374535  )
       195           N   tau( 195) = (   0.7000001   0.0577350   0.2855019  )
       196           N   tau( 196) = (   0.7000001   0.0577350   0.6114777  )
       197           N   tau( 197) = (   0.7000001   0.0577350   0.9374535  )
       198           N   tau( 198) = (   0.6000001   0.2309401   0.2855019  )
       199           N   tau( 199) = (   0.6000001   0.2309401   0.6114777  )
       200           N   tau( 200) = (   0.6000001   0.2309401   0.9374535  )
       201           N   tau( 201) = (   0.5000001   0.4041451   0.2855019  )
       202           N   tau( 202) = (   0.5000001   0.4041451   0.6114777  )
       203           N   tau( 203) = (   0.5000001   0.4041451   0.9374535  )
       204           N   tau( 204) = (   0.4000001   0.5773502   0.2855019  )
       205           N   tau( 205) = (   0.4000001   0.5773502   0.6114777  )
       206           N   tau( 206) = (   0.4000001   0.5773502   0.9374535  )
       207           N   tau( 207) = (   0.3000001   0.7505553   0.2855019  )
       208           N   tau( 208) = (   0.3000001   0.7505553   0.6114777  )
       209           N   tau( 209) = (   0.3000001   0.7505553   0.9374535  )
       210           N   tau( 210) = (   0.9000001   0.0577350   0.2855019  )
       211           N   tau( 211) = (   0.9000001   0.0577350   0.6114777  )
       212           N   tau( 212) = (   0.9000001   0.0577350   0.9374535  )
       213           N   tau( 213) = (   0.8000001   0.2309401   0.2855019  )
       214           N   tau( 214) = (   0.8000001   0.2309401   0.6114777  )
       215           N   tau( 215) = (   0.8000001   0.2309401   0.9374535  )
       216           N   tau( 216) = (   0.7000001   0.4041451   0.2855019  )
       217           N   tau( 217) = (   0.7000001   0.4041451   0.6114777  )
       218           N   tau( 218) = (   0.7000001   0.4041451   0.9374535  )
       219           N   tau( 219) = (   0.6000001   0.5773502   0.2855019  )
       220           N   tau( 220) = (   0.6000001   0.5773502   0.6114777  )
       221           N   tau( 221) = (   0.6000001   0.5773502   0.9374535  )
       222           N   tau( 222) = (   0.5000001   0.7505553   0.2855019  )
       223           N   tau( 223) = (   0.5000001   0.7505553   0.6114777  )
       224           N   tau( 224) = (   0.5000001   0.7505553   0.9374535  )
       225           N   tau( 225) = (  -0.0000001   0.1154701   0.1225140  )
       226           N   tau( 226) = (  -0.0000001   0.1154701   0.4484898  )
       227           N   tau( 227) = (  -0.0000001   0.1154701   0.7744656  )
       228           N   tau( 228) = (  -0.1000001   0.2886752   0.1225140  )
       229           N   tau( 229) = (  -0.1000001   0.2886752   0.4484898  )
       230           N   tau( 230) = (  -0.1000001   0.2886752   0.7744656  )
       231           N   tau( 231) = (  -0.2000001   0.4618803   0.1225140  )
       232           N   tau( 232) = (  -0.2000001   0.4618803   0.4484898  )
       233           N   tau( 233) = (  -0.2000001   0.4618803   0.7744656  )
       234           N   tau( 234) = (  -0.3000001   0.6350854   0.1225140  )
       235           N   tau( 235) = (  -0.3000001   0.6350854   0.4484898  )
       236           N   tau( 236) = (  -0.3000001   0.6350854   0.7744656  )
       237           N   tau( 237) = (  -0.4000001   0.8082905   0.1225140  )
       238           N   tau( 238) = (  -0.4000001   0.8082905   0.4484898  )
       239           N   tau( 239) = (  -0.4000001   0.8082905   0.7744656  )
       240           N   tau( 240) = (   0.1999999   0.1154701   0.1225140  )
       241           N   tau( 241) = (   0.1999999   0.1154701   0.4484898  )
       242           N   tau( 242) = (   0.1999999   0.1154701   0.7744656  )
       243           N   tau( 243) = (   0.0999999   0.2886752   0.1225140  )
       244           N   tau( 244) = (   0.0999999   0.2886752   0.4484898  )
       245           N   tau( 245) = (   0.0999999   0.2886752   0.7744656  )
       246           N   tau( 246) = (  -0.0000001   0.4618803   0.1225140  )
       247           N   tau( 247) = (  -0.0000001   0.4618803   0.4484898  )
       248           N   tau( 248) = (  -0.0000001   0.4618803   0.7744656  )
       249           N   tau( 249) = (  -0.1000001   0.6350854   0.1225140  )
       250           N   tau( 250) = (  -0.1000001   0.6350854   0.4484898  )
       251           N   tau( 251) = (  -0.1000001   0.6350854   0.7744656  )
       252           N   tau( 252) = (  -0.2000001   0.8082905   0.1225140  )
       253           N   tau( 253) = (  -0.2000001   0.8082905   0.4484898  )
       254           N   tau( 254) = (  -0.2000001   0.8082905   0.7744656  )
       255           N   tau( 255) = (   0.3999999   0.1154701   0.1225140  )
       256           N   tau( 256) = (   0.3999999   0.1154701   0.4484898  )
       257           N   tau( 257) = (   0.3999999   0.1154701   0.7744656  )
       258           N   tau( 258) = (   0.2999999   0.2886752   0.1225140  )
       259           N   tau( 259) = (   0.2999999   0.2886752   0.4484898  )
       260           N   tau( 260) = (   0.2999999   0.2886752   0.7744656  )
       261           N   tau( 261) = (   0.1999999   0.4618803   0.1225140  )
       262           N   tau( 262) = (   0.1999999   0.4618803   0.4484898  )
       263           N   tau( 263) = (   0.1999999   0.4618803   0.7744656  )
       264           N   tau( 264) = (   0.0999999   0.6350854   0.1225140  )
       265           N   tau( 265) = (   0.0999999   0.6350854   0.4484898  )
       266           N   tau( 266) = (   0.0999999   0.6350854   0.7744656  )
       267           N   tau( 267) = (  -0.0000001   0.8082905   0.1225140  )
       268           N   tau( 268) = (  -0.0000001   0.8082905   0.4484898  )
       269           N   tau( 269) = (  -0.0000001   0.8082905   0.7744656  )
       270           N   tau( 270) = (   0.5999999   0.1154701   0.1225140  )
       271           N   tau( 271) = (   0.5999999   0.1154701   0.4484898  )
       272           N   tau( 272) = (   0.5999999   0.1154701   0.7744656  )
       273           N   tau( 273) = (   0.4999999   0.2886752   0.1225140  )
       274           N   tau( 274) = (   0.4999999   0.2886752   0.4484898  )
       275           N   tau( 275) = (   0.4999999   0.2886752   0.7744656  )
       276           N   tau( 276) = (   0.3999999   0.4618803   0.1225140  )
       277           N   tau( 277) = (   0.3999999   0.4618803   0.4484898  )
       278           N   tau( 278) = (   0.3999999   0.4618803   0.7744656  )
       279           N   tau( 279) = (   0.2999999   0.6350854   0.1225140  )
       280           N   tau( 280) = (   0.2999999   0.6350854   0.4484898  )
       281           N   tau( 281) = (   0.2999999   0.6350854   0.7744656  )
       282           N   tau( 282) = (   0.1999999   0.8082905   0.1225140  )
       283           N   tau( 283) = (   0.1999999   0.8082905   0.4484898  )
       284           N   tau( 284) = (   0.1999999   0.8082905   0.7744656  )
       285           N   tau( 285) = (   0.7999999   0.1154701   0.1225140  )
       286           N   tau( 286) = (   0.7999999   0.1154701   0.4484898  )
       287           N   tau( 287) = (   0.7999999   0.1154701   0.7744656  )
       288           N   tau( 288) = (   0.6999999   0.2886752   0.1225140  )
       289           N   tau( 289) = (   0.6999999   0.2886752   0.4484898  )
       290           N   tau( 290) = (   0.6999999   0.2886752   0.7744656  )
       291           N   tau( 291) = (   0.5999999   0.4618803   0.1225140  )
       292           N   tau( 292) = (   0.5999999   0.4618803   0.4484898  )
       293           N   tau( 293) = (   0.5999999   0.4618803   0.7744656  )
       294           N   tau( 294) = (   0.4999999   0.6350854   0.1225140  )
       295           N   tau( 295) = (   0.4999999   0.6350854   0.4484898  )
       296           N   tau( 296) = (   0.4999999   0.6350854   0.7744656  )
       297           N   tau( 297) = (   0.3999999   0.8082905   0.1225140  )
       298           N   tau( 298) = (   0.3999999   0.8082905   0.4484898  )
       299           N   tau( 299) = (   0.3999999   0.8082905   0.7744656  )
       300           Ga  tau( 300) = (   0.1000001   0.0577350   0.2855019  )

   Crystallographic axes

     site n.     atom                  positions (cryst. coord.)
         1           Ga  tau(   1) = (  0.1333334  0.0666666  0.1663874  )
         2           Ga  tau(   2) = (  0.1333334  0.0666666  0.4997208  )
         3           Ga  tau(   3) = (  0.1333334  0.0666666  0.8330541  )
         4           Ga  tau(   4) = (  0.1333334  0.2666666  0.1663874  )
         5           Ga  tau(   5) = (  0.1333334  0.2666666  0.4997208  )
         6           Ga  tau(   6) = (  0.1333334  0.2666666  0.8330541  )
         7           Ga  tau(   7) = (  0.1333334  0.4666666  0.1663874  )
         8           Ga  tau(   8) = (  0.1333334  0.4666666  0.4997208  )
         9           Ga  tau(   9) = (  0.1333334  0.4666666  0.8330541  )
        10           Ga  tau(  10) = (  0.1333334  0.6666666  0.1663874  )
        11           Ga  tau(  11) = (  0.1333334  0.6666666  0.4997208  )
        12           Ga  tau(  12) = (  0.1333334  0.6666666  0.8330541  )
        13           Ga  tau(  13) = (  0.1333334  0.8666666  0.1663874  )
        14           Ga  tau(  14) = (  0.1333334  0.8666666  0.4997208  )
        15           Ga  tau(  15) = (  0.1333334  0.8666666  0.8330541  )
        16           Ga  tau(  16) = (  0.3333334  0.0666666  0.1663874  )
        17           Ga  tau(  17) = (  0.3333334  0.0666666  0.4997208  )
        18           Ga  tau(  18) = (  0.3333334  0.0666666  0.8330541  )
        19           Ga  tau(  19) = (  0.3333334  0.2666666  0.1663874  )
        20           Ga  tau(  20) = (  0.3333334  0.2666666  0.4997208  )
        21           Ga  tau(  21) = (  0.3333334  0.2666666  0.8330541  )
        22           Ga  tau(  22) = (  0.3333334  0.4666666  0.1663874  )
        23           Ga  tau(  23) = (  0.3333334  0.4666666  0.4997208  )
        24           Ga  tau(  24) = (  0.3333334  0.4666666  0.8330541  )
        25           Ga  tau(  25) = (  0.3333334  0.6666666  0.1663874  )
        26           Ga  tau(  26) = (  0.3333334  0.6666666  0.4997208  )
        27           Ga  tau(  27) = (  0.3333334  0.6666666  0.8330541  )
        28           Ga  tau(  28) = (  0.3333334  0.8666666  0.1663874  )
        29           Ga  tau(  29) = (  0.3333334  0.8666666  0.4997208  )
        30           Ga  tau(  30) = (  0.3333334  0.8666666  0.8330541  )
        31           Ga  tau(  31) = (  0.5333334  0.0666666  0.1663874  )
        32           Ga  tau(  32) = (  0.5333334  0.0666666  0.4997208  )
        33           Ga  tau(  33) = (  0.5333334  0.0666666  0.8330541  )
        34           Ga  tau(  34) = (  0.5333334  0.2666666  0.1663874  )
        35           Ga  tau(  35) = (  0.5333334  0.2666666  0.4997208  )
        36           Ga  tau(  36) = (  0.5333334  0.2666666  0.8330541  )
        37           Ga  tau(  37) = (  0.5333334  0.4666666  0.1663874  )
        38           Ga  tau(  38) = (  0.5333334  0.4666666  0.4997208  )
        39           Ga  tau(  39) = (  0.5333334  0.4666666  0.8330541  )
        40           Ga  tau(  40) = (  0.5333334  0.6666666  0.1663874  )
        41           Ga  tau(  41) = (  0.5333334  0.6666666  0.4997208  )
        42           Ga  tau(  42) = (  0.5333334  0.6666666  0.8330541  )
        43           Ga  tau(  43) = (  0.5333334  0.8666666  0.1663874  )
        44           Ga  tau(  44) = (  0.5333334  0.8666666  0.4997208  )
        45           Ga  tau(  45) = (  0.5333334  0.8666666  0.8330541  )
        46           Ga  tau(  46) = (  0.7333334  0.0666666  0.1663874  )
        47           Ga  tau(  47) = (  0.7333334  0.0666666  0.4997208  )
        48           Ga  tau(  48) = (  0.7333334  0.0666666  0.8330541  )
        49           Ga  tau(  49) = (  0.7333334  0.2666666  0.1663874  )
        50           Ga  tau(  50) = (  0.7333334  0.2666666  0.4997208  )
        51           Ga  tau(  51) = (  0.7333334  0.2666666  0.8330541  )
        52           Ga  tau(  52) = (  0.7333334  0.4666666  0.1663874  )
        53           Ga  tau(  53) = (  0.7333334  0.4666666  0.4997208  )
        54           Ga  tau(  54) = (  0.7333334  0.4666666  0.8330541  )
        55           Ga  tau(  55) = (  0.7333334  0.6666666  0.1663874  )
        56           Ga  tau(  56) = (  0.7333334  0.6666666  0.4997208  )
        57           Ga  tau(  57) = (  0.7333334  0.6666666  0.8330541  )
        58           Ga  tau(  58) = (  0.7333334  0.8666666  0.1663874  )
        59           Ga  tau(  59) = (  0.7333334  0.8666666  0.4997208  )
        60           Ga  tau(  60) = (  0.7333334  0.8666666  0.8330541  )
        61           Ga  tau(  61) = (  0.9333334  0.0666666  0.1663874  )
        62           Ga  tau(  62) = (  0.9333334  0.0666666  0.4997208  )
        63           Ga  tau(  63) = (  0.9333334  0.0666666  0.8330541  )
        64           Ga  tau(  64) = (  0.9333334  0.2666666  0.1663874  )
        65           Ga  tau(  65) = (  0.9333334  0.2666666  0.4997208  )
        66           Ga  tau(  66) = (  0.9333334  0.2666666  0.8330541  )
        67           Ga  tau(  67) = (  0.9333334  0.4666666  0.1663874  )
        68           Ga  tau(  68) = (  0.9333334  0.4666666  0.4997208  )
        69           Ga  tau(  69) = (  0.9333334  0.4666666  0.8330541  )
        70           Ga  tau(  70) = (  0.9333334  0.6666666  0.1663874  )
        71           Ga  tau(  71) = (  0.9333334  0.6666666  0.4997208  )
        72           Ga  tau(  72) = (  0.9333334  0.6666666  0.8330541  )
        73           Ga  tau(  73) = (  0.9333334  0.8666666  0.1663874  )
        74           Ga  tau(  74) = (  0.9333334  0.8666666  0.4997208  )
        75           Ga  tau(  75) = (  0.9333334  0.8666666  0.8330541  )
        76           Ga  tau(  76) = (  0.0666666  0.1333334  0.3330541  )
        77           Ga  tau(  77) = (  0.0666666  0.1333334  0.6663874  )
        78           Ga  tau(  78) = (  0.0666666  0.1333334  0.9997208  )
        79           Ga  tau(  79) = (  0.0666666  0.3333334  0.3330541  )
        80           Ga  tau(  80) = (  0.0666666  0.3333334  0.6663874  )
        81           Ga  tau(  81) = (  0.0666666  0.3333334  0.9997208  )
        82           Ga  tau(  82) = (  0.0666666  0.5333334  0.3330541  )
        83           Ga  tau(  83) = (  0.0666666  0.5333334  0.6663874  )
        84           Ga  tau(  84) = (  0.0666666  0.5333334  0.9997208  )
        85           Ga  tau(  85) = (  0.0666666  0.7333334  0.3330541  )
        86           Ga  tau(  86) = (  0.0666666  0.7333334  0.6663874  )
        87           Ga  tau(  87) = (  0.0666666  0.7333334  0.9997208  )
        88           Ga  tau(  88) = (  0.0666666  0.9333334  0.3330541  )
        89           Ga  tau(  89) = (  0.0666666  0.9333334  0.6663874  )
        90           Ga  tau(  90) = (  0.0666666  0.9333334  0.9997208  )
        91           Ga  tau(  91) = (  0.2666666  0.1333334  0.3330541  )
        92           Ga  tau(  92) = (  0.2666666  0.1333334  0.6663874  )
        93           Ga  tau(  93) = (  0.2666666  0.1333334  0.9997208  )
        94           Ga  tau(  94) = (  0.2666666  0.3333334  0.3330541  )
        95           Ga  tau(  95) = (  0.2666666  0.3333334  0.6663874  )
        96           Ga  tau(  96) = (  0.2666666  0.3333334  0.9997208  )
        97           Ga  tau(  97) = (  0.2666666  0.5333334  0.3330541  )
        98           Ga  tau(  98) = (  0.2666666  0.5333334  0.6663874  )
        99           Ga  tau(  99) = (  0.2666666  0.5333334  0.9997208  )
       100           Ga  tau( 100) = (  0.2666666  0.7333334  0.3330541  )
       101           Ga  tau( 101) = (  0.2666666  0.7333334  0.6663874  )
       102           Ga  tau( 102) = (  0.2666666  0.7333334  0.9997208  )
       103           Ga  tau( 103) = (  0.2666666  0.9333334  0.3330541  )
       104           Ga  tau( 104) = (  0.2666666  0.9333334  0.6663874  )
       105           Ga  tau( 105) = (  0.2666666  0.9333334  0.9997208  )
       106           Ga  tau( 106) = (  0.4666666  0.1333334  0.3330541  )
       107           Ga  tau( 107) = (  0.4666666  0.1333334  0.6663874  )
       108           Ga  tau( 108) = (  0.4666666  0.1333334  0.9997208  )
       109           Ga  tau( 109) = (  0.4666666  0.3333334  0.3330541  )
       110           Ga  tau( 110) = (  0.4666666  0.3333334  0.6663874  )
       111           Ga  tau( 111) = (  0.4666666  0.3333334  0.9997208  )
       112           Ga  tau( 112) = (  0.4666666  0.5333334  0.3330541  )
       113           Ga  tau( 113) = (  0.4666666  0.5333334  0.6663874  )
       114           Ga  tau( 114) = (  0.4666666  0.5333334  0.9997208  )
       115           Ga  tau( 115) = (  0.4666666  0.7333334  0.3330541  )
       116           Ga  tau( 116) = (  0.4666666  0.7333334  0.6663874  )
       117           Ga  tau( 117) = (  0.4666666  0.7333334  0.9997208  )
       118           Ga  tau( 118) = (  0.4666666  0.9333334  0.3330541  )
       119           Ga  tau( 119) = (  0.4666666  0.9333334  0.6663874  )
       120           Ga  tau( 120) = (  0.4666666  0.9333334  0.9997208  )
       121           Ga  tau( 121) = (  0.6666666  0.1333334  0.3330541  )
       122           Ga  tau( 122) = (  0.6666666  0.1333334  0.6663874  )
       123           Ga  tau( 123) = (  0.6666666  0.1333334  0.9997208  )
       124           Ga  tau( 124) = (  0.6666666  0.3333334  0.3330541  )
       125           Ga  tau( 125) = (  0.6666666  0.3333334  0.6663874  )
       126           Ga  tau( 126) = (  0.6666666  0.3333334  0.9997208  )
       127           Ga  tau( 127) = (  0.6666666  0.5333334  0.3330541  )
       128           Ga  tau( 128) = (  0.6666666  0.5333334  0.6663874  )
       129           Ga  tau( 129) = (  0.6666666  0.5333334  0.9997208  )
       130           Ga  tau( 130) = (  0.6666666  0.7333334  0.3330541  )
       131           Ga  tau( 131) = (  0.6666666  0.7333334  0.6663874  )
       132           Ga  tau( 132) = (  0.6666666  0.7333334  0.9997208  )
       133           Ga  tau( 133) = (  0.6666666  0.9333334  0.3330541  )
       134           Ga  tau( 134) = (  0.6666666  0.9333334  0.6663874  )
       135           Ga  tau( 135) = (  0.6666666  0.9333334  0.9997208  )
       136           Ga  tau( 136) = (  0.8666666  0.1333334  0.3330541  )
       137           Ga  tau( 137) = (  0.8666666  0.1333334  0.6663874  )
       138           Ga  tau( 138) = (  0.8666666  0.1333334  0.9997208  )
       139           Ga  tau( 139) = (  0.8666666  0.3333334  0.3330541  )
       140           Ga  tau( 140) = (  0.8666666  0.3333334  0.6663874  )
       141           Ga  tau( 141) = (  0.8666666  0.3333334  0.9997208  )
       142           Ga  tau( 142) = (  0.8666666  0.5333334  0.3330541  )
       143           Ga  tau( 143) = (  0.8666666  0.5333334  0.6663874  )
       144           Ga  tau( 144) = (  0.8666666  0.5333334  0.9997208  )
       145           Ga  tau( 145) = (  0.8666666  0.7333334  0.3330541  )
       146           Ga  tau( 146) = (  0.8666666  0.7333334  0.6663874  )
       147           Ga  tau( 147) = (  0.8666666  0.7333334  0.9997208  )
       148           Ga  tau( 148) = (  0.8666666  0.9333334  0.3330541  )
       149           Ga  tau( 149) = (  0.8666666  0.9333334  0.6663874  )
       150           Ga  tau( 150) = (  0.8666666  0.9333334  0.9997208  )
       151           N   tau( 151) = (  0.1333334  0.0666666  0.6252792  )
       152           N   tau( 152) = (  0.1333334  0.0666666  0.9586126  )
       153           N   tau( 153) = (  0.1333334  0.2666666  0.2919459  )
       154           N   tau( 154) = (  0.1333334  0.2666666  0.6252792  )
       155           N   tau( 155) = (  0.1333334  0.2666666  0.9586126  )
       156           N   tau( 156) = (  0.1333334  0.4666666  0.2919459  )
       157           N   tau( 157) = (  0.1333334  0.4666666  0.6252792  )
       158           N   tau( 158) = (  0.1333334  0.4666666  0.9586126  )
       159           N   tau( 159) = (  0.1333334  0.6666666  0.2919459  )
       160           N   tau( 160) = (  0.1333334  0.6666666  0.6252792  )
       161           N   tau( 161) = (  0.1333334  0.6666666  0.9586126  )
       162           N   tau( 162) = (  0.1333334  0.8666666  0.2919459  )
       163           N   tau( 163) = (  0.1333334  0.8666666  0.6252792  )
       164           N   tau( 164) = (  0.1333334  0.8666666  0.9586126  )
       165           N   tau( 165) = (  0.3333334  0.0666666  0.2919459  )
       166           N   tau( 166) = (  0.3333334  0.0666666  0.6252792  )
       167           N   tau( 167) = (  0.3333334  0.0666666  0.9586126  )
       168           N   tau( 168) = (  0.3333334  0.2666666  0.2919459  )
       169           N   tau( 169) = (  0.3333334  0.2666666  0.6252792  )
       170           N   tau( 170) = (  0.3333334  0.2666666  0.9586126  )
       171           N   tau( 171) = (  0.3333334  0.4666666  0.2919459  )
       172           N   tau( 172) = (  0.3333334  0.4666666  0.6252792  )
       173           N   tau( 173) = (  0.3333334  0.4666666  0.9586126  )
       174           N   tau( 174) = (  0.3333334  0.6666666  0.2919459  )
       175           N   tau( 175) = (  0.3333334  0.6666666  0.6252792  )
       176           N   tau( 176) = (  0.3333334  0.6666666  0.9586126  )
       177           N   tau( 177) = (  0.3333334  0.8666666  0.2919459  )
       178           N   tau( 178) = (  0.3333334  0.8666666  0.6252792  )
       179           N   tau( 179) = (  0.3333334  0.8666666  0.9586126  )
       180           N   tau( 180) = (  0.5333334  0.0666666  0.2919459  )
       181           N   tau( 181) = (  0.5333334  0.0666666  0.6252792  )
       182           N   tau( 182) = (  0.5333334  0.0666666  0.9586126  )
       183           N   tau( 183) = (  0.5333334  0.2666666  0.2919459  )
       184           N   tau( 184) = (  0.5333334  0.2666666  0.6252792  )
       185           N   tau( 185) = (  0.5333334  0.2666666  0.9586126  )
       186           N   tau( 186) = (  0.5333334  0.4666666  0.2919459  )
       187           N   tau( 187) = (  0.5333334  0.4666666  0.6252792  )
       188           N   tau( 188) = (  0.5333334  0.4666666  0.9586126  )
       189           N   tau( 189) = (  0.5333334  0.6666666  0.2919459  )
       190           N   tau( 190) = (  0.5333334  0.6666666  0.6252792  )
       191           N   tau( 191) = (  0.5333334  0.6666666  0.9586126  )
       192           N   tau( 192) = (  0.5333334  0.8666666  0.2919459  )
       193           N   tau( 193) = (  0.5333334  0.8666666  0.6252792  )
       194           N   tau( 194) = (  0.5333334  0.8666666  0.9586126  )
       195           N   tau( 195) = (  0.7333334  0.0666666  0.2919459  )
       196           N   tau( 196) = (  0.7333334  0.0666666  0.6252792  )
       197           N   tau( 197) = (  0.7333334  0.0666666  0.9586126  )
       198           N   tau( 198) = (  0.7333334  0.2666666  0.2919459  )
       199           N   tau( 199) = (  0.7333334  0.2666666  0.6252792  )
       200           N   tau( 200) = (  0.7333334  0.2666666  0.9586126  )
       201           N   tau( 201) = (  0.7333334  0.4666666  0.2919459  )
       202           N   tau( 202) = (  0.7333334  0.4666666  0.6252792  )
       203           N   tau( 203) = (  0.7333334  0.4666666  0.9586126  )
       204           N   tau( 204) = (  0.7333334  0.6666666  0.2919459  )
       205           N   tau( 205) = (  0.7333334  0.6666666  0.6252792  )
       206           N   tau( 206) = (  0.7333334  0.6666666  0.9586126  )
       207           N   tau( 207) = (  0.7333334  0.8666666  0.2919459  )
       208           N   tau( 208) = (  0.7333334  0.8666666  0.6252792  )
       209           N   tau( 209) = (  0.7333334  0.8666666  0.9586126  )
       210           N   tau( 210) = (  0.9333334  0.0666666  0.2919459  )
       211           N   tau( 211) = (  0.9333334  0.0666666  0.6252792  )
       212           N   tau( 212) = (  0.9333334  0.0666666  0.9586126  )
       213           N   tau( 213) = (  0.9333334  0.2666666  0.2919459  )
       214           N   tau( 214) = (  0.9333334  0.2666666  0.6252792  )
       215           N   tau( 215) = (  0.9333334  0.2666666  0.9586126  )
       216           N   tau( 216) = (  0.9333334  0.4666666  0.2919459  )
       217           N   tau( 217) = (  0.9333334  0.4666666  0.6252792  )
       218           N   tau( 218) = (  0.9333334  0.4666666  0.9586126  )
       219           N   tau( 219) = (  0.9333334  0.6666666  0.2919459  )
       220           N   tau( 220) = (  0.9333334  0.6666666  0.6252792  )
       221           N   tau( 221) = (  0.9333334  0.6666666  0.9586126  )
       222           N   tau( 222) = (  0.9333334  0.8666666  0.2919459  )
       223           N   tau( 223) = (  0.9333334  0.8666666  0.6252792  )
       224           N   tau( 224) = (  0.9333334  0.8666666  0.9586126  )
       225           N   tau( 225) = (  0.0666666  0.1333334  0.1252792  )
       226           N   tau( 226) = (  0.0666666  0.1333334  0.4586126  )
       227           N   tau( 227) = (  0.0666666  0.1333334  0.7919459  )
       228           N   tau( 228) = (  0.0666666  0.3333334  0.1252792  )
       229           N   tau( 229) = (  0.0666666  0.3333334  0.4586126  )
       230           N   tau( 230) = (  0.0666666  0.3333334  0.7919459  )
       231           N   tau( 231) = (  0.0666666  0.5333334  0.1252792  )
       232           N   tau( 232) = (  0.0666666  0.5333334  0.4586126  )
       233           N   tau( 233) = (  0.0666666  0.5333334  0.7919459  )
       234           N   tau( 234) = (  0.0666666  0.7333334  0.1252792  )
       235           N   tau( 235) = (  0.0666666  0.7333334  0.4586126  )
       236           N   tau( 236) = (  0.0666666  0.7333334  0.7919459  )
       237           N   tau( 237) = (  0.0666666  0.9333334  0.1252792  )
       238           N   tau( 238) = (  0.0666666  0.9333334  0.4586126  )
       239           N   tau( 239) = (  0.0666666  0.9333334  0.7919459  )
       240           N   tau( 240) = (  0.2666666  0.1333334  0.1252792  )
       241           N   tau( 241) = (  0.2666666  0.1333334  0.4586126  )
       242           N   tau( 242) = (  0.2666666  0.1333334  0.7919459  )
       243           N   tau( 243) = (  0.2666666  0.3333334  0.1252792  )
       244           N   tau( 244) = (  0.2666666  0.3333334  0.4586126  )
       245           N   tau( 245) = (  0.2666666  0.3333334  0.7919459  )
       246           N   tau( 246) = (  0.2666666  0.5333334  0.1252792  )
       247           N   tau( 247) = (  0.2666666  0.5333334  0.4586126  )
       248           N   tau( 248) = (  0.2666666  0.5333334  0.7919459  )
       249           N   tau( 249) = (  0.2666666  0.7333334  0.1252792  )
       250           N   tau( 250) = (  0.2666666  0.7333334  0.4586126  )
       251           N   tau( 251) = (  0.2666666  0.7333334  0.7919459  )
       252           N   tau( 252) = (  0.2666666  0.9333334  0.1252792  )
       253           N   tau( 253) = (  0.2666666  0.9333334  0.4586126  )
       254           N   tau( 254) = (  0.2666666  0.9333334  0.7919459  )
       255           N   tau( 255) = (  0.4666666  0.1333334  0.1252792  )
       256           N   tau( 256) = (  0.4666666  0.1333334  0.4586126  )
       257           N   tau( 257) = (  0.4666666  0.1333334  0.7919459  )
       258           N   tau( 258) = (  0.4666666  0.3333334  0.1252792  )
       259           N   tau( 259) = (  0.4666666  0.3333334  0.4586126  )
       260           N   tau( 260) = (  0.4666666  0.3333334  0.7919459  )
       261           N   tau( 261) = (  0.4666666  0.5333334  0.1252792  )
       262           N   tau( 262) = (  0.4666666  0.5333334  0.4586126  )
       263           N   tau( 263) = (  0.4666666  0.5333334  0.7919459  )
       264           N   tau( 264) = (  0.4666666  0.7333334  0.1252792  )
       265           N   tau( 265) = (  0.4666666  0.7333334  0.4586126  )
       266           N   tau( 266) = (  0.4666666  0.7333334  0.7919459  )
       267           N   tau( 267) = (  0.4666666  0.9333334  0.1252792  )
       268           N   tau( 268) = (  0.4666666  0.9333334  0.4586126  )
       269           N   tau( 269) = (  0.4666666  0.9333334  0.7919459  )
       270           N   tau( 270) = (  0.6666666  0.1333334  0.1252792  )
       271           N   tau( 271) = (  0.6666666  0.1333334  0.4586126  )
       272           N   tau( 272) = (  0.6666666  0.1333334  0.7919459  )
       273           N   tau( 273) = (  0.6666666  0.3333334  0.1252792  )
       274           N   tau( 274) = (  0.6666666  0.3333334  0.4586126  )
       275           N   tau( 275) = (  0.6666666  0.3333334  0.7919459  )
       276           N   tau( 276) = (  0.6666666  0.5333334  0.1252792  )
       277           N   tau( 277) = (  0.6666666  0.5333334  0.4586126  )
       278           N   tau( 278) = (  0.6666666  0.5333334  0.7919459  )
       279           N   tau( 279) = (  0.6666666  0.7333334  0.1252792  )
       280           N   tau( 280) = (  0.6666666  0.7333334  0.4586126  )
       281           N   tau( 281) = (  0.6666666  0.7333334  0.7919459  )
       282           N   tau( 282) = (  0.6666666  0.9333334  0.1252792  )
       283           N   tau( 283) = (  0.6666666  0.9333334  0.4586126  )
       284           N   tau( 284) = (  0.6666666  0.9333334  0.7919459  )
       285           N   tau( 285) = (  0.8666666  0.1333334  0.1252792  )
       286           N   tau( 286) = (  0.8666666  0.1333334  0.4586126  )
       287           N   tau( 287) = (  0.8666666  0.1333334  0.7919459  )
       288           N   tau( 288) = (  0.8666666  0.3333334  0.1252792  )
       289           N   tau( 289) = (  0.8666666  0.3333334  0.4586126  )
       290           N   tau( 290) = (  0.8666666  0.3333334  0.7919459  )
       291           N   tau( 291) = (  0.8666666  0.5333334  0.1252792  )
       292           N   tau( 292) = (  0.8666666  0.5333334  0.4586126  )
       293           N   tau( 293) = (  0.8666666  0.5333334  0.7919459  )
       294           N   tau( 294) = (  0.8666666  0.7333334  0.1252792  )
       295           N   tau( 295) = (  0.8666666  0.7333334  0.4586126  )
       296           N   tau( 296) = (  0.8666666  0.7333334  0.7919459  )
       297           N   tau( 297) = (  0.8666666  0.9333334  0.1252792  )
       298           N   tau( 298) = (  0.8666666  0.9333334  0.4586126  )
       299           N   tau( 299) = (  0.8666666  0.9333334  0.7919459  )
       300           Ga  tau( 300) = (  0.1333334  0.0666666  0.2919459  )

     number of k points=     6  Gaussian smearing, width (Ry)=  0.0100
                       cart. coord. in units 2pi/alat
        k(    1) = (   0.0000000   0.0000000   0.0000000), wk =   0.2500000
        k(    2) = (   0.0000000   0.0000000  -0.5112854), wk =   0.2500000
        k(    3) = (   0.0000000  -0.5773503   0.0000000), wk =   0.5000000
        k(    4) = (   0.0000000  -0.5773503  -0.5112854), wk =   0.5000000
        k(    5) = (  -0.5000000  -0.2886751   0.0000000), wk =   0.2500000
        k(    6) = (  -0.5000000  -0.2886751  -0.5112854), wk =   0.2500000

                       cryst. coord.
        k(    1) = (   0.0000000   0.0000000   0.0000000), wk =   0.2500000
        k(    2) = (   0.0000000   0.0000000  -0.5000000), wk =   0.2500000
        k(    3) = (   0.0000000  -0.5000000   0.0000000), wk =   0.5000000
        k(    4) = (   0.0000000  -0.5000000  -0.5000000), wk =   0.5000000
        k(    5) = (  -0.5000000  -0.0000000   0.0000000), wk =   0.2500000
        k(    6) = (  -0.5000000  -0.0000000  -0.5000000), wk =   0.2500000

     Dense  grid:  2698283 G-vectors     FFT dimensions: ( 192, 192, 180)

     Smooth grid:  1930731 G-vectors     FFT dimensions: ( 180, 180, 160)

     Dynamical RAM for                 wfc:      93.54 MB

     Dynamical RAM for     wfc (w. buffer):     280.61 MB

     Dynamical RAM for           str. fact:       1.29 MB

     Dynamical RAM for           local pot:       0.00 MB

     Dynamical RAM for          nlocal pot:     224.93 MB

     Dynamical RAM for                qrad:       3.00 MB

     Dynamical RAM for          rho,v,vnew:       4.46 MB

     Dynamical RAM for               rhoin:       1.49 MB

     Dynamical RAM for            rho*nmix:      10.29 MB

     Dynamical RAM for           G-vectors:       2.64 MB

     Dynamical RAM for          h,s,v(r/c):    1936.43 MB

     Dynamical RAM for          <psi|beta>:      97.01 MB

     Dynamical RAM for                 psi:     374.15 MB

     Dynamical RAM for                hpsi:     374.15 MB

     Dynamical RAM for                spsi:     374.15 MB

     Dynamical RAM for      wfcinit/wfcrot:     247.60 MB

     Dynamical RAM for           addusdens:      54.68 MB

     Dynamical RAM for          addusforce:     103.36 MB

     Dynamical RAM for         addusstress:      32.57 MB

     Estimated static dynamical RAM per process >     524.56 MB

     Estimated max dynamical RAM per process >       3.60 GB

     Estimated total dynamical RAM >     920.76 GB

     Atomic positions and unit cell read from directory:
     ./GaN.save/
     Atomic positions from file used, from input discarded
 

     Check: negative core charge=   -0.000003

     The initial density is read from file :
     ./GaN.save/charge-density



     %%%%%%%%%%%%%%%%%%%%%%%%%%%%%%%%%%%%%%%%%%%%%%%%%%%%%%%%%%%%%%%%%%%%%%%%
     %                                                                      %
     % You are using vdW-DF, which was implemented by the Thonhauser group. %
     % Please cite the following two papers that made this development      %
     % possible and the two reviews that describe the various versions:     %
     %                                                                      %
     %   T. Thonhauser et al., PRL 115, 136402 (2015).                      %
     %   T. Thonhauser et al., PRB 76, 125112 (2007).                       %
     %   K. Berland et al., Rep. Prog. Phys. 78, 066501 (2015).             %
     %   D.C. Langreth et al., J. Phys.: Condens. Matter 21, 084203 (2009). %
     %                                                                      %
     % If you are calculating stress with vdW-DF, please also cite:         %
     %                                                                      %
     %   R. Sabatini et al., J. Phys.: Condens. Matter 24, 424209 (2012).   %
     %                                                                      %
     %%%%%%%%%%%%%%%%%%%%%%%%%%%%%%%%%%%%%%%%%%%%%%%%%%%%%%%%%%%%%%%%%%%%%%%%

     %%%%%%%%%%%%%%%%%%%%%%%%%%%%%%%%%%%%%%%%%%%%%%%%%%%%%%%%%%%%%%%%%%%%%%%%
     %                                                                      %
     %  vdW-DF NEWS:                                                        %
     %                                                                      %
     %  * vdW-DF3 is now available. DOI: 10.1021/acs.jctc.0c00471           %
     %    use with input_dft = 'vdW-DF3-opt1' or 'vdW-DF3-opt2'             %
     %                                                                      %
     %  * Unscreened and range-separated vdW-DF hybrid functionals          %
     %    DOI: 10.1063/1.4986522 and 10.1088/1361-648X/ac2ad2               %
     %    use with input_dft = 'vdW-DF-cx0' (etc) and 'vdW-DF-ahcx'         %
     %                                                                      %
     %%%%%%%%%%%%%%%%%%%%%%%%%%%%%%%%%%%%%%%%%%%%%%%%%%%%%%%%%%%%%%%%%%%%%%%%


     Carrying out vdW-DF run using the following parameters:
     Nqs    =  20  Npoints =  1024  r_max =  100.000
     q_mesh =  0.00001000  0.04494208  0.09755937  0.15916263
               0.23128650  0.31572767  0.41458969  0.53033537
               0.66584808  0.82450364  1.01025438  1.22772762
               1.48234092  1.78043706  2.12944203  2.53805004
               3.01644009  3.57652955  4.23227104  5.00000000


     -----------------------------------------------
     Non-local corr. energy    =      82.11284303 Ry
     -----------------------------------------------

     Starting wfcs from file
     Checking if some PAW data can be deallocated... 
       PAW data deallocated on  149 nodes for type:  1
       PAW data deallocated on  107 nodes for type:  2

     total cpu time spent up to now is       40.5 secs

     Self-consistent Calculation

     iteration #  1     ecut=    70.00 Ry     beta= 0.70
     Davidson diagonalization with overlap

---- Real-time Memory Report at c_bands before calling an iterative solver
           546 MiB given to the printing process from OS
             0 MiB allocation reported by mallinfo(arena+hblkhd)
       1800234 MiB available memory on the node where the printing process lives
------------------
     ethr =  1.00E-05,  avg # of iterations =  1.0

     Threshold (ethr) on eigenvalues was too large:
     Diagonalizing with lowered threshold

     Davidson diagonalization with overlap

---- Real-time Memory Report at c_bands before calling an iterative solver
          2337 MiB given to the printing process from OS
             0 MiB allocation reported by mallinfo(arena+hblkhd)
       1767379 MiB available memory on the node where the printing process lives
------------------
     ethr =  6.19E-14,  avg # of iterations = 17.2


     -----------------------------------------------
     Non-local corr. energy    =      82.11284191 Ry
     -----------------------------------------------


     total cpu time spent up to now is     3217.4 secs

     End of self-consistent calculation

          k = 0.0000 0.0000 0.0000 (241213 PWs)   bands (ev):

    -6.8554  -6.6504  -6.6422  -6.6402  -6.6370  -6.6369  -6.6086  -6.6086
    -6.5646  -6.5053  -6.5008  -6.5008  -6.5000  -6.4926  -6.4925  -6.4685
    -6.4684  -6.4535  -6.4532  -6.4438  -6.4415  -6.4395  -6.4387  -6.4384
    -6.4334  -6.4312  -6.4309  -6.4205  -6.4190  -6.4136  -6.4128  -6.4049
    -6.4038  -6.4034  -6.3978  -6.3931  -6.3930  -6.3920  -6.3856  -6.3838
    -6.3828  -6.3810  -6.3802  -6.3794  -6.3776  -6.3766  -6.3757  -6.3746
    -6.3740  -6.3738  -6.3710  -6.3708  -6.3706  -6.3687  -6.3684  -6.3677
    -6.3652  -6.3650  -6.3645  -6.3626  -6.3619  -6.3607  -6.3605  -6.3579
    -6.3575  -6.3552  -6.3536  -6.3534  -6.3532  -6.3528  -6.3525  -6.3521
    -6.3493  -6.3490  -6.3478  -6.3476  -6.3472  -6.3470  -6.3462  -6.3460
    -6.3449  -6.3441  -6.3429  -6.3408  -6.3402  -6.3381  -6.3340  -6.3339
    -6.3328  -6.3315  -6.3311  -6.3283  -6.3274  -6.3248  -6.3246  -6.3226
    -6.3225  -6.3212  -6.3207  -6.3204  -6.3195  -6.3174  -6.3139  -6.3107
    -6.3103  -6.3103  -6.3066  -6.3061  -6.3050  -6.3041  -6.3038  -6.2912
    -6.2911  -6.2894  -6.2891  -6.2807  -6.2793  -6.2788  -6.2781  -6.2744
    -6.2725  -6.2710  -6.2707  -6.2607  -6.2572  -6.2560  -6.2540  -6.2535
    -6.2482  -6.2453  -6.2350  -6.2343  -6.2248  -6.2123  -6.2120  -6.1992
    -6.1751  -6.1692  -6.1601  -6.1596  -6.1346  -6.1045  -6.1035  -6.0992
    -6.0803  -6.0803  -6.0551  -6.0410  -6.0406  -5.2833  -5.2833  -5.2771
    -5.2683  -5.2679  -5.2667  -5.2667  -5.2663  -5.2663  -5.2637  -5.2622
    -5.2622  -5.2553  -5.2552  -5.2539  -5.2539  -5.2513  -5.2488  -5.2485
    -5.2473  -5.2473  -5.2464  -5.2464  -5.2454  -5.2422  -5.2421  -5.2418
    -5.2417  -5.2398  -5.2398  -5.2398  -5.2369  -5.2369  -5.2358  -5.2348
    -5.2348  -5.2343  -5.2341  -5.2315  -5.2305  -5.2304  -5.2303  -5.2286
    -5.2271  -5.2270  -5.2270  -5.2244  -5.2234  -5.2227  -5.2225  -5.2225
    -5.2205  -5.2205  -5.2200  -5.2175  -5.2175  -5.2165  -5.2165  -5.2146
    -5.2145  -5.2134  -5.2134  -5.2133  -5.2127  -5.2125  -5.2125  -5.2110
    -5.2110  -5.2096  -5.2077  -5.2074  -5.2074  -5.2063  -5.2058  -5.2057
    -5.2029  -5.2028  -5.2028  -5.2024  -5.2020  -5.2016  -5.2016  -5.1991
    -5.1991  -5.1989  -5.1988  -5.1988  -5.1966  -5.1966  -5.1963  -5.1957
    -5.1957  -5.1956  -5.1945  -5.1943  -5.1943  -5.1928  -5.1928  -5.1918
    -5.1909  -5.1898  -5.1898  -5.1881  -5.1881  -5.1873  -5.1869  -5.1869
    -5.1860  -5.1855  -5.1846  -5.1845  -5.1836  -5.1826  -5.1826  -5.1815
    -5.1815  -5.1813  -5.1808  -5.1806  -5.1805  -5.1800  -5.1799  -5.1780
    -5.1780  -5.1772  -5.1772  -5.1771  -5.1740  -5.1738  -5.1738  -5.1721
    -5.1720  -5.1709  -5.1706  -5.1688  -5.1688  -5.1688  -5.1682  -5.1682
    -5.1674  -5.1658  -5.1655  -5.1649  -5.1644  -5.1644  -5.1637  -5.1636
    -5.1634  -5.1619  -5.1618  -5.1603  -5.1600  -5.1600  -5.1572  -5.1572
    -5.1564  -5.1560  -5.1544  -5.1543  -5.1541  -5.1540  -5.1529  -5.1528
    -5.1513  -5.1513  -5.1512  -5.1506  -5.1501  -5.1496  -5.1496  -5.1463
    -5.1463  -5.1454  -5.1450  -5.1438  -5.1438  -5.1437  -5.1424  -5.1423
    -5.1422  -5.1414  -5.1414  -5.1412  -5.1398  -5.1398  -5.1381  -5.1355
    -5.1355  -5.1346  -5.1345  -5.1338  -5.1327  -5.1324  -5.1324  -5.1307
    -5.1306  -5.1294  -5.1293  -5.1292  -5.1272  -5.1264  -5.1259  -5.1259
    -5.1255  -5.1253  -5.1252  -5.1238  -5.1234  -5.1232  -5.1232  -5.1209
    -5.1209  -5.1186  -5.1185  -5.1180  -5.1180  -5.1180  -5.1175  -5.1174
    -5.1169  -5.1168  -5.1145  -5.1145  -5.1138  -5.1122  -5.1113  -5.1113
    -5.1111  -5.1099  -5.1099  -5.1099  -5.1082  -5.1081  -5.1081  -5.1074
    -5.1063  -5.1063  -5.1049  -5.1045  -5.1045  -5.1041  -5.1029  -5.1029
    -5.1025  -5.1014  -5.1014  -5.1013  -5.1004  -5.0998  -5.0997  -5.0992
    -5.0992  -5.0984  -5.0980  -5.0980  -5.0969  -5.0955  -5.0955  -5.0953
    -5.0942  -5.0941  -5.0940  -5.0940  -5.0918  -5.0916  -5.0912  -5.0911
    -5.0909  -5.0909  -5.0895  -5.0895  -5.0893  -5.0889  -5.0868  -5.0868
    -5.0864  -5.0864  -5.0863  -5.0859  -5.0859  -5.0857  -5.0843  -5.0837
    -5.0836  -5.0822  -5.0816  -5.0816  -5.0814  -5.0811  -5.0810  -5.0804
    -5.0802  -5.0802  -5.0790  -5.0790  -5.0787  -5.0780  -5.0780  -5.0764
    -5.0756  -5.0750  -5.0749  -5.0741  -5.0736  -5.0736  -5.0728  -5.0719
    -5.0717  -5.0716  -5.0710  -5.0709  -5.0698  -5.0693  -5.0692  -5.0690
    -5.0690  -5.0689  -5.0688  -5.0663  -5.0659  -5.0657  -5.0657  -5.0645
    -5.0637  -5.0637  -5.0629  -5.0629  -5.0627  -5.0623  -5.0622  -5.0622
    -5.0615  -5.0614  -5.0590  -5.0590  -5.0585  -5.0585  -5.0584  -5.0582
    -5.0573  -5.0572  -5.0566  -5.0565  -5.0539  -5.0538  -5.0537  -5.0537
    -5.0526  -5.0526  -5.0525  -5.0522  -5.0519  -5.0519  -5.0506  -5.0504
    -5.0503  -5.0491  -5.0483  -5.0483  -5.0482  -5.0475  -5.0475  -5.0463
    -5.0462  -5.0459  -5.0458  -5.0437  -5.0437  -5.0434  -5.0431  -5.0431
    -5.0420  -5.0420  -5.0414  -5.0413  -5.0410  -5.0392  -5.0392  -5.0391
    -5.0387  -5.0387  -5.0386  -5.0379  -5.0377  -5.0375  -5.0375  -5.0364
    -5.0364  -5.0346  -5.0328  -5.0327  -5.0326  -5.0320  -5.0320  -5.0311
    -5.0308  -5.0306  -5.0297  -5.0296  -5.0292  -5.0269  -5.0269  -5.0268
    -5.0258  -5.0257  -5.0257  -5.0247  -5.0246  -5.0243  -5.0243  -5.0242
    -5.0234  -5.0234  -5.0225  -5.0224  -5.0214  -5.0212  -5.0207  -5.0206
    -5.0192  -5.0192  -5.0177  -5.0164  -5.0164  -5.0155  -5.0155  -5.0154
    -5.0150  -5.0149  -5.0147  -5.0146  -5.0134  -5.0134  -5.0131  -5.0127
    -5.0126  -5.0111  -5.0108  -5.0108  -5.0092  -5.0092  -5.0092  -5.0078
    -5.0078  -5.0073  -5.0069  -5.0068  -5.0065  -5.0064  -5.0063  -5.0045
    -5.0025  -5.0020  -5.0019  -5.0016  -5.0011  -5.0011  -5.0000  -5.0000
    -4.9995  -4.9991  -4.9989  -4.9989  -4.9967  -4.9963  -4.9962  -4.9953
    -4.9953  -4.9940  -4.9939  -4.9924  -4.9922  -4.9922  -4.9917  -4.9916
    -4.9915  -4.9913  -4.9889  -4.9888  -4.9883  -4.9870  -4.9869  -4.9869
    -4.9868  -4.9844  -4.9824  -4.9824  -4.9811  -4.9798  -4.9798  -4.9791
    -4.9790  -4.9790  -4.9786  -4.9780  -4.9771  -4.9771  -4.9747  -4.9747
    -4.9738  -4.9734  -4.9734  -4.9713  -4.9713  -4.9709  -4.9701  -4.9701
    -4.9692  -4.9691  -4.9677  -4.9666  -4.9666  -4.9655  -4.9633  -4.9624
    -4.9623  -4.9608  -4.9607  -4.9589  -4.9589  -4.9565  -4.9563  -4.9559
    -4.9559  -4.9546  -4.9518  -4.9517  -4.9500  -4.9499  -4.9481  -4.9481
    -4.9450  -4.9434  -4.9402  -4.9401  -4.9390  -4.9380  -4.9344  -4.9343
    -4.9342  -4.9303  -4.9277  -4.9276  -4.9269  -4.9252  -4.9223  -4.9222
    -4.9191  -4.9190  -4.9153  -4.9133  -4.9132  -4.9089  -4.9086  -4.9085
    -4.9045  -4.9016  -4.9015  -4.9010  -4.8951  -4.8950  -4.8943  -4.8943
    -4.8932  -4.8920  -4.8918  -4.8837  -4.8836  -4.8823  -4.8792  -4.8790
    -4.8788  -4.8759  -4.8721  -4.8719  -4.8698  -4.8654  -4.8654  -4.8623
    -4.8621  -4.8620  -4.8581  -4.8581  -4.8548  -4.8501  -4.8500  -4.8457
    -4.8455  -4.8330  -4.8265  -4.7736  -4.7643  -4.7584  -4.7584  -4.7535
    -4.7534  -4.7402  -4.7402  -4.7319  -4.7319  -4.7244  -4.6453  -4.5367
    -4.5363  -4.5205  -4.4918  -4.4913  -4.4896  -4.4832  -4.4797  -4.4794
    -4.4396  -4.4393  -4.4050  -4.3226  -4.3219  -4.3210  -4.2975  -4.2973
    -4.2914  -4.2910  -4.2895  -4.2757  -4.2754  -4.2711  -4.2599  -4.2525
    -4.2481  -4.2477  -4.2289  -4.0563  -4.0560  -4.0551  -4.0511  -4.0509
    -4.0421  -4.0366  -4.0364  -4.0281  -4.0278  -4.0205  -4.0191  -3.9918
    -3.9757  -3.9757  -3.9579  -3.9562  -3.9562  -3.9540  -3.9399  -3.9398
    -3.9333  -3.9333  -3.9244  -3.8935  -3.8934  -3.8726  -3.8725  -3.8179
    -3.7983  -3.7888  -3.7848  -3.7846  -3.7713  -3.7686  -3.7684  -3.7434
    -3.7433  -3.7150  -3.7038  -3.7037  -3.5353  -3.4768  -3.3743  -3.3743
    -3.3677  -3.3675  -3.3627  -3.3619  -3.3618  -3.3586  -3.3585  -3.3571
    -3.3498  -3.3497  -3.3491  -3.3488  -3.3487  -3.3456  -3.3391  -3.3225
    -3.2783  -3.2782  -3.2715  -3.2715  -3.2597  -3.2583  -3.2583  -3.2582
    -3.2487  -3.2486  -3.2486  -3.2453  -3.2429  -3.2427  -3.2408  -3.2377
    -3.2376  -3.2324  -3.2322  -3.2227  -3.2171  -3.2148  -3.2075  -3.2074
    -3.2000  -3.2000  -3.1681  -3.1680  -3.1324  -3.1292  -3.1288  -3.0850
    -3.0674  -3.0673  -3.0353  -3.0353  -3.0318  -3.0318  -3.0308  -3.0138
    -2.9925  -2.9924  -2.9875  -2.9859  -2.9204  -2.9203  -2.9197  -2.9050
    -2.9050  -2.9025  -2.8896  -2.8892  -2.8860  -2.8789  -2.8756  -2.8756
    -2.8712  -2.8711  -2.7996  -2.7989  -2.7788  -2.7786  -2.7407  -2.7407
     2.0940   2.2721   2.5412   2.5502   2.5503   2.6016   2.6016   2.6096
     2.6099   2.6113   2.6127   2.6130   2.6192   2.6258   2.6270   2.6297
     2.6302   2.6336   2.6337   2.6361   2.6364   2.6460   2.6462   2.6570
     2.6599   2.6855   2.6956   2.7000   2.7003   2.7232   2.7240   2.7554
     2.8094   2.8104   2.8343   2.8382   2.8385   2.8416   2.9580   2.9626
     2.9628   2.9891   2.9893   2.9999   3.0087   3.0089   3.0138   3.0140
     3.0155   3.0283   3.0284   3.0451   3.0580   3.0757   3.1203   3.1203
     3.1402   3.1472   3.1473   3.1831   3.1832   3.2081   3.2557   3.2559
     3.2585   3.2587   3.2651   3.2777   3.2794   3.2844   3.2845   3.2900
     3.2904   3.3042   3.3094   3.3216   3.3227   3.3232   3.3272   3.3273
     3.3725   3.3733   3.4622   3.5151   3.5362   3.5366   3.6056   3.6149
     3.6971   3.7009   3.7091   3.7091   3.7147   3.7147   3.7221   3.7223
     3.7418   3.7426   3.7673   3.7673   3.7788   3.7788   3.8078   3.8080
     3.8954   3.9228   3.9615   3.9622   3.9881   3.9965   3.9969   4.0104
     4.0162   4.0162   4.0191   4.0368   4.0368   4.0393   4.0553   4.0555
     4.1467   4.1470   4.1484   4.4235   4.5639   4.5645   4.5733   4.5755
     4.5755   4.6013   4.6038   4.6074   4.6081   4.6308   4.6390   4.6397
     4.6728   4.6730   4.6912   4.6920   4.7074   4.7346   4.7383   4.7383
     4.8112   4.8114   4.8692   4.9546   5.0120   5.0156   5.0156   5.0374
     5.0545   5.0546   5.0561   5.0576   5.0578   5.1242   5.1620   5.1621
     5.4878   5.4879   5.4886   5.4973   5.5070   5.5074   5.5075   5.5148
     5.5149   5.5202   5.5203   5.5552   5.5553   5.5599   5.5600   5.5628
     5.6048   5.6633   5.7093   5.7095   5.7390   5.7541   5.7544   5.8683
     5.8819   5.9005   5.9007   5.9065   5.9066   5.9183   5.9219   5.9222
     5.9304   5.9304   5.9305   5.9421   5.9559   5.9561   5.9596   5.9596
     5.9656   5.9999   6.0045   6.0112   6.0219   6.0220   6.0244   6.0263
     6.0265   6.0311   6.0311   6.0335   6.0398   6.0402   6.0433   6.0494
     6.0495   6.0614   6.0616   6.0672   6.0674   6.0680   6.0720   6.0720
     6.0735   6.0821   6.0915   6.1000   6.1003   6.1109   6.1325   6.1328
     6.1480   6.1480   6.2034   6.2404   6.2409   6.2750   6.3081   6.3130
     6.3136   6.3680   6.3690   6.3692   6.3709   6.3711   6.3782   6.3806
     6.4049   6.4052   6.4139   6.4140   6.4666   6.4805   6.4807   6.5085
     6.5212   6.5235   6.5236   6.5346   6.5468   6.5504   6.5505   6.5845
     6.5914   6.5966   6.5969   6.6291   6.6293   6.6532   6.6627   6.6651
     6.6655   6.6695   6.6698   6.6711   6.6714   6.6763   6.6817   6.6824
     6.7059   6.7099   6.7100   6.7283   6.7297   6.7302   6.7480   6.7634
     6.7635   6.7724   6.7850   6.7855   6.7855   6.8144   6.8201   6.8204
     6.8344   6.8347   6.8881   6.8981   6.9113   6.9121   6.9122   6.9223
     6.9391   6.9392   6.9392   6.9485   6.9486   7.0893   7.0896   7.1536
     7.1562   7.1572   7.1574   7.1815   7.1841   7.1844   7.1982   7.1983
     7.2303   7.2374   7.2374   7.2724   7.3119   7.3120   7.3258   7.3259
     7.3360   7.3364   7.3375   7.3509   7.3587   7.3591   7.3682   7.4115
     7.4125   7.4126   7.4190   7.4201   7.4203   7.4258   7.4406   7.4457
     7.4477   7.4481   7.4518   7.4522   7.4536   7.4556   7.4556   7.4567
     7.4570   7.4598   7.4677   7.4760   7.4781   7.4783   7.4825   7.4856
     7.4861   7.4919   7.4949   7.4950   7.5099   7.5099   7.5147   7.5147
     7.5323   7.5370   7.5375   7.5384   7.5540   7.5546   7.5932   7.5944
     7.6044   7.6044   7.6238   7.6275   7.6276   7.6488   7.6642   7.6644
     7.6669   7.6785   7.6786   7.6894   7.6896   7.6917   7.6954   7.7194
     7.7195   7.7319   7.7320   7.7322   7.7532   7.7533   7.7622   7.7671
     7.7674   7.7994   7.7996   7.8044   7.8374   7.8378   7.9085   7.9132
     7.9137   7.9319   7.9322   7.9528   8.0149   8.0532   8.0534   8.0620
     8.0621   8.0876   8.0880   8.1131   8.1190   8.1319   8.1328   8.1329
     8.1590   8.1592   8.1605   8.1607   8.1627   8.3353   8.3481   8.3573
     8.3573   8.3987   8.3988   8.4406   8.4407   8.4801   8.5051   8.5055
     8.5086   8.5393   8.5394   8.5788   8.5792   8.7513   8.7954   8.7956
    10.3686  10.4557  10.6026  10.6047  12.0826  12.0832  12.2390  12.2623
    12.2624  12.3300  12.3300  12.3572  12.6960  12.8330  12.8695  12.9101
    12.9166  12.9171  12.9266  12.9267  12.9304  12.9449  12.9642  12.9643
    12.9758  12.9761  12.9990  13.0072  13.0261  13.0285  13.0288  13.0511
    13.0515  13.0558  13.0562  13.0764  13.0767  13.1559  13.2733  13.6666
    13.6907  13.6913  13.7205  13.7213  13.7315  13.8640  13.8669  13.8671
    13.8722  13.8722  13.8832  13.8839  13.8918  13.8957  13.8959  13.9040
    13.9208  13.9213  13.9222  13.9311  13.9393  13.9394  13.9421  13.9425
    13.9428  13.9578  13.9578  13.9602  13.9859  14.0259  14.0263  14.0293
    14.0345  14.0347  14.0389  14.0529  14.0533  14.0548  14.0797  14.0888
    14.0890  14.0895  14.0990  14.0993  14.1032  14.1246  14.1326  14.1326
    14.1758  14.1904  14.1905  14.1935  14.1940  14.1955  14.2068  14.2069
    14.2124  14.2125  14.2141  14.2254  14.2412  14.2414  14.2540  14.2541
    14.2975  14.3219  14.3221  14.3231  14.4200  14.4201  14.5148  14.5164
    14.5167  14.5187  14.5717  14.5724  14.8086  14.8675  14.8678  14.9293
    14.9300  14.9356  14.9512  14.9514  14.9577  14.9739  14.9744  14.9771
    14.9873  15.0461  15.0465  15.0784  15.1001  15.1003  15.1085  15.1256
    15.1263  15.1469  15.1484  15.1548  15.1690  15.1712  15.1712  15.1746
    15.2066  15.2071  15.2396  15.2397  15.2702  15.2995  15.3255  15.3257
    15.4150  15.4152  15.4371  15.4480  15.4486  15.5186  15.6088  15.6493
    15.6972  15.6974  15.7820  15.7897  15.7905  15.8005  15.8655  15.8657
    15.9001  15.9003  15.9318  15.9381  15.9616  15.9791  15.9795  15.9851
    15.9854  16.0225  16.0227  16.0343  16.0362  16.0380  16.0382  16.0945
    16.1309  16.1485  16.1488  16.1522  16.1527  16.1568  16.1741  16.1742
    16.1757  16.1762  16.1824  16.1825  16.1836  16.1875  16.1904  16.1931
    16.1934  16.1939  16.2020  16.2021  16.2085  16.2089  16.2095  16.2446
    16.2447  16.2458  16.2462  16.2470  16.2573  16.2605  16.2610  16.2889
    16.2896  16.2916  16.2925  16.3086  16.3088  16.3295  16.3301  16.3309
    16.3318  16.3506  16.3647  16.3653  16.3737  16.3742  16.3896  16.3899
    16.3917  16.4043  16.4050  16.4056  16.4125  16.4321  16.4325  16.4374
    16.4378  16.4512  16.4798  16.4798  16.4824  16.4826  16.4867  16.4875
    16.4941  16.4944  16.5112  16.5216  16.5217  16.5291  16.5293  16.5412
    16.5595  16.5796  16.6078  16.6080  16.6097  16.6378  16.6383  16.6596
    16.6725  16.6853  16.6856  16.6967  16.7152  16.7152  16.7272  16.7274
    16.7495  16.7513

     occupation numbers 
     1.0000   1.0000   1.0000   1.0000   1.0000   1.0000   1.0000   1.0000
     1.0000   1.0000   1.0000   1.0000   1.0000   1.0000   1.0000   1.0000
     1.0000   1.0000   1.0000   1.0000   1.0000   1.0000   1.0000   1.0000
     1.0000   1.0000   1.0000   1.0000   1.0000   1.0000   1.0000   1.0000
     1.0000   1.0000   1.0000   1.0000   1.0000   1.0000   1.0000   1.0000
     1.0000   1.0000   1.0000   1.0000   1.0000   1.0000   1.0000   1.0000
     1.0000   1.0000   1.0000   1.0000   1.0000   1.0000   1.0000   1.0000
     1.0000   1.0000   1.0000   1.0000   1.0000   1.0000   1.0000   1.0000
     1.0000   1.0000   1.0000   1.0000   1.0000   1.0000   1.0000   1.0000
     1.0000   1.0000   1.0000   1.0000   1.0000   1.0000   1.0000   1.0000
     1.0000   1.0000   1.0000   1.0000   1.0000   1.0000   1.0000   1.0000
     1.0000   1.0000   1.0000   1.0000   1.0000   1.0000   1.0000   1.0000
     1.0000   1.0000   1.0000   1.0000   1.0000   1.0000   1.0000   1.0000
     1.0000   1.0000   1.0000   1.0000   1.0000   1.0000   1.0000   1.0000
     1.0000   1.0000   1.0000   1.0000   1.0000   1.0000   1.0000   1.0000
     1.0000   1.0000   1.0000   1.0000   1.0000   1.0000   1.0000   1.0000
     1.0000   1.0000   1.0000   1.0000   1.0000   1.0000   1.0000   1.0000
     1.0000   1.0000   1.0000   1.0000   1.0000   1.0000   1.0000   1.0000
     1.0000   1.0000   1.0000   1.0000   1.0000   1.0000   1.0000   1.0000
     1.0000   1.0000   1.0000   1.0000   1.0000   1.0000   1.0000   1.0000
     1.0000   1.0000   1.0000   1.0000   1.0000   1.0000   1.0000   1.0000
     1.0000   1.0000   1.0000   1.0000   1.0000   1.0000   1.0000   1.0000
     1.0000   1.0000   1.0000   1.0000   1.0000   1.0000   1.0000   1.0000
     1.0000   1.0000   1.0000   1.0000   1.0000   1.0000   1.0000   1.0000
     1.0000   1.0000   1.0000   1.0000   1.0000   1.0000   1.0000   1.0000
     1.0000   1.0000   1.0000   1.0000   1.0000   1.0000   1.0000   1.0000
     1.0000   1.0000   1.0000   1.0000   1.0000   1.0000   1.0000   1.0000
     1.0000   1.0000   1.0000   1.0000   1.0000   1.0000   1.0000   1.0000
     1.0000   1.0000   1.0000   1.0000   1.0000   1.0000   1.0000   1.0000
     1.0000   1.0000   1.0000   1.0000   1.0000   1.0000   1.0000   1.0000
     1.0000   1.0000   1.0000   1.0000   1.0000   1.0000   1.0000   1.0000
     1.0000   1.0000   1.0000   1.0000   1.0000   1.0000   1.0000   1.0000
     1.0000   1.0000   1.0000   1.0000   1.0000   1.0000   1.0000   1.0000
     1.0000   1.0000   1.0000   1.0000   1.0000   1.0000   1.0000   1.0000
     1.0000   1.0000   1.0000   1.0000   1.0000   1.0000   1.0000   1.0000
     1.0000   1.0000   1.0000   1.0000   1.0000   1.0000   1.0000   1.0000
     1.0000   1.0000   1.0000   1.0000   1.0000   1.0000   1.0000   1.0000
     1.0000   1.0000   1.0000   1.0000   1.0000   1.0000   1.0000   1.0000
     1.0000   1.0000   1.0000   1.0000   1.0000   1.0000   1.0000   1.0000
     1.0000   1.0000   1.0000   1.0000   1.0000   1.0000   1.0000   1.0000
     1.0000   1.0000   1.0000   1.0000   1.0000   1.0000   1.0000   1.0000
     1.0000   1.0000   1.0000   1.0000   1.0000   1.0000   1.0000   1.0000
     1.0000   1.0000   1.0000   1.0000   1.0000   1.0000   1.0000   1.0000
     1.0000   1.0000   1.0000   1.0000   1.0000   1.0000   1.0000   1.0000
     1.0000   1.0000   1.0000   1.0000   1.0000   1.0000   1.0000   1.0000
     1.0000   1.0000   1.0000   1.0000   1.0000   1.0000   1.0000   1.0000
     1.0000   1.0000   1.0000   1.0000   1.0000   1.0000   1.0000   1.0000
     1.0000   1.0000   1.0000   1.0000   1.0000   1.0000   1.0000   1.0000
     1.0000   1.0000   1.0000   1.0000   1.0000   1.0000   1.0000   1.0000
     1.0000   1.0000   1.0000   1.0000   1.0000   1.0000   1.0000   1.0000
     1.0000   1.0000   1.0000   1.0000   1.0000   1.0000   1.0000   1.0000
     1.0000   1.0000   1.0000   1.0000   1.0000   1.0000   1.0000   1.0000
     1.0000   1.0000   1.0000   1.0000   1.0000   1.0000   1.0000   1.0000
     1.0000   1.0000   1.0000   1.0000   1.0000   1.0000   1.0000   1.0000
     1.0000   1.0000   1.0000   1.0000   1.0000   1.0000   1.0000   1.0000
     1.0000   1.0000   1.0000   1.0000   1.0000   1.0000   1.0000   1.0000
     1.0000   1.0000   1.0000   1.0000   1.0000   1.0000   1.0000   1.0000
     1.0000   1.0000   1.0000   1.0000   1.0000   1.0000   1.0000   1.0000
     1.0000   1.0000   1.0000   1.0000   1.0000   1.0000   1.0000   1.0000
     1.0000   1.0000   1.0000   1.0000   1.0000   1.0000   1.0000   1.0000
     1.0000   1.0000   1.0000   1.0000   1.0000   1.0000   1.0000   1.0000
     1.0000   1.0000   1.0000   1.0000   1.0000   1.0000   1.0000   1.0000
     1.0000   1.0000   1.0000   1.0000   1.0000   1.0000   1.0000   1.0000
     1.0000   1.0000   1.0000   1.0000   1.0000   1.0000   1.0000   1.0000
     1.0000   1.0000   1.0000   1.0000   1.0000   1.0000   1.0000   1.0000
     1.0000   1.0000   1.0000   1.0000   1.0000   1.0000   1.0000   1.0000
     1.0000   1.0000   1.0000   1.0000   1.0000   1.0000   1.0000   1.0000
[...]
              0.258664003385708E+03
              0.745646646513474E+01
              0.806178132614068E+03
              0.112098427073361E+03
             -0.117570067967703E+03
              0.455406815784272E+02
             -0.107800931515326E+03
              0.633383453004651E+03
             -0.398212548690026E+01
              0.121102841897812E+03
              0.439781477234224E+03
              0.117797378032380E+03
             -0.334172333249110E+03
             -0.541554231683082E+03
              0.303437371392624E+02
             -0.616069587238114E+03
              0.206588536679744E+03
             -0.107088739031404E+03
             -0.237611942161788E+03
              0.240658884518555E+03
              0.833477628180781E+02
              0.231361369152363E+03
              0.100722379557933E+02
              0.343570012367895E+03
             -0.583297834538013E+03
             -0.416003747180548E+02
             -0.511919524336220E+03
              0.113995902768821E+03
              0.280868997981749E+03
             -0.285250966646790E+02
             -0.187093888960194E+03
              0.419765743634107E+03
             -0.194335083845134E+03
              0.143674462865546E+03
             -0.123526383903407E+03
              0.332191671565395E+03
              0.349862227562485E+03
             -0.151504484177658E+03
              0.300006210313167E+03
              0.112619781816095E+03
             -0.302728983565318E+03
             -0.197765424947143E+03
              0.486450306434470E+03
              0.238654569252923E+03
             -0.205759065104954E+02
             -0.516967129804807E+02
              0.749052861921235E+03
              0.441725428603066E+03
              0.157193000925253E+03
             -0.471563626069881E+03
              0.755779788144599E+03
             -0.352895642433567E+03
             -0.435728259917327E+03
             -0.656659259432012E+03
              0.292745571868058E+03
             -0.590320136432795E+03
              0.267022481954906E+03
              0.431324502393788E+03
              0.307255114500003E+03
              0.780727274402764E+02
              0.203551895594376E+03
             -0.486374541509946E+03
             -0.174189056916096E+03
             -0.132283904614946E+03
              0.249677694715548E+03
              0.494749231147606E+03
              0.511276130318673E+03
              0.394222993056084E+03
             -0.902468533736101E+02
              0.125872237785841E+03
              0.707045175497660E+01
             -0.162046690811180E+03
              0.208595700454296E+03
              0.226896421268150E+03
             -0.287603857731851E+03
             -0.341711043750839E+03
             -0.134816950095052E+03
              0.354861265577531E+03
              0.170088153498154E+03
             -0.243492434046062E+03
             -0.373343566825803E+03
             -0.543486108019827E+03
              0.112756210873900E+02
              0.145879816404909E+03
             -0.205303276821209E+03
              0.760005654071271E+03
              0.365701417389837E+02
             -0.861201774767015E+03
              0.190765148990140E+03
              0.377571332035423E+03
             -0.172845377691621E+03
              0.209663415325965E+02
             -0.239717244175065E+03
              0.352054204301339E+03
              0.162925099726574E+03
             -0.450730989963051E+03
              0.536671058403221E+03
              0.152941780967124E+02
             -0.230262607142018E+03
             -0.273231693603475E+03
              0.106884598154162E+04
              0.476114952263236E+03
             -0.132786720575505E+03
              0.262142304059847E+03
             -0.467768068734069E+03
             -0.836357455767275E+02
             -0.473892813889523E+03
              0.189872343682661E+03
              0.322891268986663E+03
              0.383169891827409E+03
             -0.152673052772203E+03
              0.449147149244591E+02
              0.437680240010563E+03
              0.161873074801222E+03
              0.274186950549439E+03
              0.116624513534734E+03
             -0.786975377880387E+02
              0.117426434490039E+02
             -0.723061209124185E+02
              0.111288420056032E+03
              0.245878727122104E+02
             -0.398896435725791E+03
              0.606822443594778E+03
              0.242683209811593E+03
             -0.436147676403678E+03
             -0.323491319837501E+03
             -0.468790734922099E+03
             -0.221810111458949E+03
             -0.163362991143375E+03
             -0.362598867825761E+03
             -0.355004301071882E+03
              0.447285196411069E+03
              0.352886142392816E+03
             -0.439268185158376E+02
              0.514779838325700E+03
              0.971438888709054E+02
             -0.830718460585257E+03
              0.468590372424959E+03
              0.108149036463273E+03
              0.361377992672809E+03
              0.806108746444479E+02
              0.603221098061254E+02
              0.714707408763165E+02
              0.188157032263693E+03
             -0.344553267895057E+03
             -0.171972492116379E+03
             -0.316514894470445E+03
             -0.262865931026107E+03
              0.119627479151771E+03
             -0.300792692443563E+03
              0.140773466696742E+03
              0.186262341869798E+03
             -0.197862446408568E+03
             -0.104449065210702E+03
             -0.919095813727699E+01
              0.514250087182981E+03
              0.817039928144859E+02
              0.509591276112364E+03
              0.181502693867207E+03
             -0.658755787066371E+03
             -0.224144724965007E+03
              0.225063568455593E+03
              0.506770448317892E+03
              0.972891192441250E+02
              0.198089516849620E+03
              0.477743021369903E+03
             -0.277920233193248E+03
             -0.451141450438716E+03
              0.586318905593862E+03
              0.994642108930475E+01
             -0.621555073554935E+03
              0.208415829138892E+03
              0.411420046506079E+03
             -0.952730601091425E+02
             -0.389182383420080E+03
              0.693696983683203E+02
              0.253697781686633E+02
             -0.212855631568971E+03
              0.772614468808288E+02
             -0.664503330192469E+02
              0.915997300020440E+03
              0.252788816803933E+03
             -0.420111372856374E+03
              0.126997031089579E+03
              0.588119165196301E+03
             -0.377037657904813E+03
             -0.100370787816842E+03
             -0.333796110263648E+03
              0.266529072996485E+03
              0.112998115906757E+03
              0.176981886236897E+03
              0.136631605051041E+02
              0.660589045646248E+03
             -0.369377065057119E+03
             -0.280433950068476E+03
             -0.309467257921758E+03
              0.265893590828760E+03
              0.635525177770979E+03
             -0.805746149310305E+02
              0.262489500355139E+03
             -0.355290392570353E+03
              0.360320772228538E+02
             -0.105315101502937E+03
             -0.350302430312045E+02
             -0.151195851717197E+03
             -0.139150458768900E+03
             -0.102726219350025E+03
              0.109605532618410E+03
              0.184995840263481E+03
             -0.426291598348457E+03
              0.309704965311847E+03
             -0.500789232682165E+03
              0.373889283025483E+03
             -0.434037460165777E+03
              0.656608470085230E+03
              0.350085216978458E+03
              0.390933583901082E+03
              0.895694558502496E+02
              0.100531509713898E+03
             -0.881459343809146E+03
              0.151062342520017E+03
              0.399971974080818E+02
              0.692817148187169E+02
             -0.131517845067739E+03
              0.686043496046142E+03
             -0.208264363781954E+03
             -0.271133816265662E+03
             -0.679980455026394E+03
             -0.226353701219026E+03
             -0.309012424631380E+03
             -0.273843396481385E+03
             -0.748912873035893E+02
             -0.143533111611561E+03
             -0.189925637376858E+03
             -0.285810993097721E+03
              0.213103127868992E+03
              0.703790676423987E+03
              0.600023029214782E+03
             -0.119095170669067E+03
             -0.736339550619434E+03
             -0.309679335383136E+03
              0.141916459881405E+03
              0.157331292682853E+03
              0.227721014951606E+03
              0.177138720426996E+03
              0.576736530727708E+02
              0.681547737913984E+03
             -0.169072197022169E+03
              0.345753908068662E+03
              0.158874075310125E+03
             -0.223224712548373E+03
             -0.140208746683667E+03
              0.315003791464177E+03
             -0.182405679654882E+03
             -0.129421146659333E+03
             -0.840149236523059E+02
              0.393714594897053E+03
             -0.527641003294402E+03
             -0.581400457738014E+02
             -0.431859611862481E+03
             -0.933700644754621E+03
              0.325489278237956E+01
             -0.115662796327694E+03
              0.320836062995949E+03
              0.381291040426624E+03
              0.523108257345990E+03
             -0.344165120177734E+03
              0.559656428043902E+03
              0.146312040971401E+03
             -0.167114788796505E+03
              0.100981778899912E+03
             -0.177667306038220E+03
             -0.124089506883915E+03
              0.285163757239467E+03
             -0.277805130352084E+03
              0.676008006753664E+03
             -0.172860792983331E+03
             -0.361539677473078E+03
              0.688049959053066E+03
             -0.386415343190346E+03
             -0.569633754659862E+02
              0.700641505896647E+02
              0.213452334495306E+03
             -0.315108413041409E+03
             -0.236009463873113E+03
              0.358935751473868E+03
             -0.581652164504338E+03
              0.427448820909257E+03
              0.559100484915870E+02
              0.333909920996218E+03
              0.462758509685081E+03
              0.116635015788070E+03
             -0.609324820979632E+03
             -0.269069425059819E+03
             -0.450410957907020E+03
             -0.282456389494324E+03
             -0.928000141484399E+02
              0.110769214181317E+03
             -0.211456766068187E+03
              0.147387062889702E+02
             -0.684708763559064E+03
              0.171412745642469E+02
             -0.432711502410234E+03
              0.425208607997570E+03
             -0.228734778305757E+03
             -0.450018037398101E+02
              0.306081988943610E+03
              0.330840577479929E+02
              0.304587951053408E+03
             -0.545859641540218E+03
              0.119595367251972E+03
              0.376393354585537E+02
              0.219503468201769E+03
              0.393965984148867E+03
             -0.690303646586103E+02
             -0.431991687728196E+03
             -0.247315054404291E+03
             -0.170946373711878E+03
             -0.830724420469342E+02
              0.407554752849493E+03
              0.250816178380453E+03
             -0.262214947711277E+03
             -0.239128358344280E+03
              0.197357440056420E+03
              0.193397064087795E+03
             -0.535818366665151E+03
              0.149929139446454E+03
              0.393191032745285E+03
             -0.192839827308868E+02
              0.460841118648945E+03
              0.233743950028471E+03
              0.368308238400514E+03
              0.559478398077578E+03
              0.918018352964934E+02
             -0.781908227315593E+03
              0.804700428302550E+02
              0.867325423669542E+03
              0.624077456128033E+03
             -0.418327553216957E+03
              0.416749759744473E+02
              0.543181872845345E+03
              0.493599896045101E+03
              0.234800310425679E+03
             -0.124457493357290E+03
              0.225017446173679E+03
              0.472263173534534E+03
             -0.211412189844537E+03
             -0.151086505557889E+03
              0.295020961457761E+03
             -0.212308316187418E+02
              0.276822031109722E+03
             -0.693851373431017E+02
              0.571089882969907E+03
             -0.217501655208919E+03
              0.130298859873909E+03
             -0.265866918401484E+03
              0.269763094652340E+03
             -0.357207280212879E+02
              0.426026748829852E+03
              0.299011507150835E+02
              0.168403670794233E+03
             -0.282745946643830E+03
             -0.174067796407173E+03
             -0.821382911184219E+02
             -0.707781751714217E+02
              0.447551753775010E+03
              0.185690666707636E+03
              0.574257543158825E+03
              0.478098108196256E+03
              0.107136621140656E+03
              0.421758684313960E+01
              0.561151317137552E+03
              0.295346752727751E+03
              0.787424160846012E+01
              0.498623181749089E+03
             -0.447281635307210E+03
              0.146693204513227E+03
             -0.281253246905444E+03
             -0.112400600982411E+03
              0.718080638763650E+03
             -0.109925880980293E+03
             -0.538770455923941E+01
             -0.944154645147285E+02
              0.596743903102092E+03
             -0.139116638241679E+03
             -0.165764307596914E+02
              0.120475963284921E+04
             -0.389016327494621E+03
             -0.416044402079493E+03
             -0.436215341259873E+03
             -0.256080803944471E+03
              0.254726266997913E+03
             -0.108804388068129E+03
              0.703807982777694E+02
             -0.221018985826868E+02
              0.152488232603422E+03
              0.248507766892160E+03
              0.286344917130488E+03
              0.421186069136041E+03
              0.232801979129978E+03
              0.295709750398102E+03
             -0.477981527670490E+03
             -0.457765411777271E+03
             -0.115678928142245E+03
             -0.448546798410202E+03
              0.717966553904682E+03
              0.615265580209216E+03
              0.293984779661776E+03
              0.796302140496232E+03
             -0.414303928144854E+03
             -0.168847306070210E+03
             -0.235041626406199E+03
              0.658679138472756E+03
 
 BEEF-vdW xc energy contributions
            1 :    -6036.931251056843     
            2 :     5438.493175560539     
            3 :    -4435.476264842127     
            4 :     3320.959403129603     
            5 :    -2353.290298233056     
            6 :     1657.932271649898     
            7 :    -1213.073416155479     
            8 :     912.7950416695639     
            9 :    -656.9337172246032     
           10 :     409.2702631418651     
           11 :    -196.0578191462564     
           12 :     60.58627324728150     
           13 :    -15.63698666718028     
           14 :     29.04708799406581     
           15 :    -47.46641621027993     
           16 :     34.37561721135353     
           17 :     8.747971723562841     
           18 :    -52.25808342913115     
           19 :     67.86314384338493     
           20 :    -52.77049399075804     
           21 :     30.35989924169189     
           22 :    -29.43833810714932     
           23 :     60.59212012658918     
           24 :    -108.6110221819054     
           25 :     145.6110987511765     
           26 :    -152.8647483622844     
           27 :     133.6076622248911     
           28 :    -107.7357710393007     
           29 :     94.29970456031333     
           30 :    -96.73732758983988     
           31 :    -516.9234516216993     
           32 :    -354.3872463320431     

     Writing all to output data dir ./GaN.save/
 
     init_run     :     13.19s CPU     37.88s WALL (       1 calls)
     electrons    :   3133.25s CPU   3179.35s WALL (       1 calls)
     forces       :     64.16s CPU     65.13s WALL (       1 calls)
     stress       :   1265.57s CPU   1276.24s WALL (       1 calls)

     Called by init_run:
     wfcinit      :      8.56s CPU     32.76s WALL (       1 calls)
     potinit      :      1.66s CPU      1.94s WALL (       1 calls)
     hinit0       :      1.36s CPU      1.44s WALL (       1 calls)

     Called by electrons:
     c_bands      :   3086.62s CPU   3131.19s WALL (       2 calls)
     sum_band     :     41.97s CPU     42.52s WALL (       2 calls)
     v_of_rho     :      1.94s CPU      2.08s WALL (       2 calls)
     v_h          :      0.02s CPU      0.02s WALL (       2 calls)
     v_xc         :     32.73s CPU     34.34s WALL (      38 calls)
     newd         :      0.37s CPU      0.43s WALL (       2 calls)
     PAW_pot      :      1.09s CPU      1.10s WALL (       2 calls)
     mix_rho      :      0.00s CPU      0.01s WALL (       2 calls)
     vdW_kernel   :      0.16s CPU      0.17s WALL (       1 calls)

     Called by c_bands:
     init_us_2    :      2.75s CPU      2.83s WALL (      12 calls)
     init_us_2:cp :      2.75s CPU      2.83s WALL (      12 calls)
     cegterg      :   2788.66s CPU   2829.92s WALL (       4 calls)

     Called by sum_band:
     sum_band:wei :      0.01s CPU      0.01s WALL (       2 calls)
     sum_band:loo :     41.33s CPU     41.67s WALL (       2 calls)
     sum_band:buf :      0.49s CPU      0.51s WALL (       4 calls)
     sum_band:ini :      1.04s CPU      1.06s WALL (       4 calls)
     sum_band:cal :     28.48s CPU     28.67s WALL (       4 calls)
     sum_band:bec :      0.24s CPU      0.24s WALL (       4 calls)
     addusdens    :      0.42s CPU      0.45s WALL (       2 calls)
     addusd:skk   :      0.08s CPU      0.08s WALL (       4 calls)
     addusd:dgemm :      0.18s CPU      0.20s WALL (       4 calls)
     addusd:qvan2 :      0.05s CPU      0.05s WALL (       4 calls)

     Called by *egterg:
     cdiaghg      :   2307.67s CPU   2336.50s WALL (      37 calls)
     cegterg:over :     92.02s CPU     94.57s WALL (      37 calls)
     cegterg:upda :     56.93s CPU     57.89s WALL (      37 calls)
     cegterg:last :     28.58s CPU     28.79s WALL (       4 calls)
     h_psi        :    200.96s CPU    204.07s WALL (      41 calls)
     s_psi        :     71.78s CPU     72.99s WALL (      41 calls)
     g_psi        :      0.32s CPU      0.32s WALL (      37 calls)

     Called by h_psi:
     h_psi:calbec :     75.02s CPU     75.59s WALL (      41 calls)
     vloc_psi     :     53.35s CPU     53.97s WALL (      41 calls)
     add_vuspsi   :     71.70s CPU     72.95s WALL (      41 calls)

     General routines
     calbec       :    215.75s CPU    217.21s WALL (      55 calls)
     fft          :     13.20s CPU     13.38s WALL (    2232 calls)
     ffts         :      0.02s CPU      0.02s WALL (       4 calls)
     fftw         :     59.17s CPU     59.85s WALL (   39348 calls)
     interpolate  :      0.02s CPU      0.02s WALL (       2 calls)
 
     Parallel routines

     PAW routines
     PAW_pot      :      1.09s CPU      1.10s WALL (       2 calls)
     PAW_symme    :      0.01s CPU      0.01s WALL (       3 calls)
 
     PWSCF        :      1h15m CPU      1h17m WALL

 
   This run was terminated on:  16:38:55  28May2024            

=------------------------------------------------------------------------------=
   JOB DONE.
=------------------------------------------------------------------------------=
