
     Program PWSCF v.7.1 starts on 27Apr2024 at  7:16:22 

     This program is part of the open-source Quantum ESPRESSO suite
     for quantum simulation of materials; please cite
         "P. Giannozzi et al., J. Phys.:Condens. Matter 21 395502 (2009);
         "P. Giannozzi et al., J. Phys.:Condens. Matter 29 465901 (2017);
         "P. Giannozzi et al., J. Chem. Phys. 152 154105 (2020);
          URL http://www.quantum-espresso.org", 
     in publications or presentations arising from this work. More details at
     http://www.quantum-espresso.org/quote

     Parallel version (MPI & OpenMP), running on     256 processor cores
     Number of MPI processes:               256
     Threads/MPI process:                     1

     MPI processes distributed on     2 nodes
     2006391 MiB available memory on the printing compute node when the environment starts
 
     Reading input from espresso.pwi
Warning: card &CELL ignored
Warning: card    CELL_DYNAMICS    = 'BFGS' ignored
Warning: card / ignored

     Current dimensions of program PWSCF are:
     Max number of different atomic species (ntypx) = 10
     Max number of k-points (npk) =  40000
     Max angular momentum in pseudopotentials (lmaxx) =  4
     file Ga.pbe-dn-kjpaw_psl.1.0.0.UPF: wavefunction(s)  4S renormalized
     file N.pbe-n-kjpaw_psl.1.0.0.UPF: wavefunction(s)  2S renormalized

     **************************************************************************
     Initializing libbeef V0.1.2 with the BEEF-vdW functional.
     Citation: Wellendorff et al., PRB 85, 235149 (2012).
     **************************************************************************


     IMPORTANT: XC functional enforced from input :
     Exchange-correlation= BEEF-VDW
                           (   1   4  43  14   2   0   0)
     Any further DFT definition will be discarded
     Please, verify this is what you really want

 
     K-points division:     npool     =       4
     R & G space division:  proc/nbgrp/npool/nimage =      64
     Subspace diagonalization in iterative solution of the eigenvalue problem:
     a serial algorithm will be used

 
     Parallelization info
     --------------------
     sticks:   dense  smooth     PW     G-vecs:    dense   smooth      PW
     Min         354     283     73                42160    30167    3987
     Max         356     285     74                42163    30170    3996
     Sum       22693   18145   4705              2698283  1930731  255309
 
     Using Slab Decomposition
 


     bravais-lattice index     =            4
     lattice parameter (alat)  =      30.6565  a.u.
     unit-cell volume          =   24400.9461 (a.u.)^3
     number of atoms/cell      =          300
     number of atomic types    =            2
     number of electrons       =      2709.00
     number of Kohn-Sham states=         1626
     kinetic-energy cutoff     =      70.0000  Ry
     charge density cutoff     =     350.0000  Ry
     scf convergence threshold =      1.0E-07
     mixing beta               =       0.7000
     number of iterations used =            8  plain     mixing
     energy convergence thresh.=      1.0E-04
     force convergence thresh. =      1.0E-03
     Exchange-correlation= BEEF-VDW
                           (   1   4  43  14   2   0   0)
     nstep                     =           50


     celldm(1)=  30.656540  celldm(2)=   0.000000  celldm(3)=   0.977927
     celldm(4)=   0.000000  celldm(5)=   0.000000  celldm(6)=   0.000000

     crystal axes: (cart. coord. in units of alat)
               a(1) = (   1.000000   0.000000   0.000000 )  
               a(2) = (  -0.500000   0.866025   0.000000 )  
               a(3) = (   0.000000   0.000000   0.977927 )  

     reciprocal axes: (cart. coord. in units 2 pi/alat)
               b(1) = (  1.000000  0.577350 -0.000000 )  
               b(2) = (  0.000000  1.154701  0.000000 )  
               b(3) = (  0.000000 -0.000000  1.022571 )  


     PseudoPot. # 1 for Ga read from file:
     //group///packages/espresso/pseudo/psl_1.0.0/pslibrary.1.0.0/pbe/PSEUDOPOTENTIALS/Ga.pbe-dn-kjpaw_psl.1.0.0.UPF
     MD5 check sum: cd2a01e492f15b435d17032472d8505c
     Pseudo is Projector augmented-wave + core cor, Zval = 13.0
     Generated using 'atomic' code by A. Dal Corso  v.7.1
     Shape of augmentation charge: PSQ
     Using radial grid of 1205 points,  6 beta functions with: 
                l(1) =   0
                l(2) =   0
                l(3) =   1
                l(4) =   1
                l(5) =   2
                l(6) =   2
     Q(r) pseudized with 0 coefficients 


     PseudoPot. # 2 for N  read from file:
     //group///packages/espresso/pseudo/psl_1.0.0/pslibrary.1.0.0/pbe/PSEUDOPOTENTIALS/N.pbe-n-kjpaw_psl.1.0.0.UPF
     MD5 check sum: f77f775694dac7e2c3fe1c82443d1a16
     Pseudo is Projector augmented-wave + core cor, Zval =  5.0
     Generated using 'atomic' code by A. Dal Corso  v.7.1
     Shape of augmentation charge: PSQ
     Using radial grid of 1085 points,  4 beta functions with: 
                l(1) =   0
                l(2) =   0
                l(3) =   1
                l(4) =   1
     Q(r) pseudized with 0 coefficients 


     atomic species   valence    mass     pseudopotential
        Ga            13.00    69.72300     Ga( 1.00)
        N              5.00    14.00700     N ( 1.00)

      2 Sym. Ops. (no inversion) found


                                    s                        frac. trans.

      isym =  1     identity                                     

 cryst.   s( 1) = (     1          0          0      )
                  (     0          1          0      )
                  (     0          0          1      )

 cart.    s( 1) = (  1.0000000  0.0000000  0.0000000 )
                  (  0.0000000  1.0000000  0.0000000 )
                  (  0.0000000  0.0000000  1.0000000 )


      isym =  2     inv. 180 deg rotation - cryst. axis [0,1,0]  

 cryst.   s( 2) = (     1          1          0      )
                  (     0         -1          0      )
                  (     0          0          1      )

 cart.    s( 2) = (  0.5000000  0.8660254  0.0000000 )
                  (  0.8660254 -0.5000000  0.0000000 )
                  (  0.0000000  0.0000000  1.0000000 )


     point group C_s (m)    
     there are  2 classes
     the character table:

       E     s    
A'     1.00  1.00
A''    1.00 -1.00

     the symmetry operations in each class and the name of the first element:

     E        1
          identity                                               
     s        2
          inv. 180 deg rotation - cryst. axis [0,1,0]            

   Cartesian axes

     site n.     atom                  positions (alat units)
         1           Ga  tau(   1) = (   0.1000001   0.0577350   0.1627148  )
         2           Ga  tau(   2) = (   0.1000001   0.0577350   0.4886906  )
         3           Ga  tau(   3) = (   0.1000001   0.0577350   0.8146665  )
         4           Ga  tau(   4) = (   0.0000001   0.2309401   0.1627148  )
         5           Ga  tau(   5) = (   0.0000001   0.2309401   0.4886906  )
         6           Ga  tau(   6) = (   0.0000001   0.2309401   0.8146665  )
         7           Ga  tau(   7) = (  -0.0999999   0.4041451   0.1627148  )
         8           Ga  tau(   8) = (  -0.0999999   0.4041451   0.4886906  )
         9           Ga  tau(   9) = (  -0.0999999   0.4041451   0.8146665  )
        10           Ga  tau(  10) = (  -0.1999999   0.5773502   0.1627148  )
        11           Ga  tau(  11) = (  -0.1999999   0.5773502   0.4886906  )
        12           Ga  tau(  12) = (  -0.1999999   0.5773502   0.8146665  )
        13           Ga  tau(  13) = (  -0.2999999   0.7505553   0.1627148  )
        14           Ga  tau(  14) = (  -0.2999999   0.7505553   0.4886906  )
        15           Ga  tau(  15) = (  -0.2999999   0.7505553   0.8146665  )
        16           Ga  tau(  16) = (   0.3000001   0.0577350   0.1627148  )
        17           Ga  tau(  17) = (   0.3000001   0.0577350   0.4886906  )
        18           Ga  tau(  18) = (   0.3000001   0.0577350   0.8146665  )
        19           Ga  tau(  19) = (   0.2000001   0.2309401   0.1627148  )
        20           Ga  tau(  20) = (   0.2000001   0.2309401   0.4886906  )
        21           Ga  tau(  21) = (   0.2000001   0.2309401   0.8146665  )
        22           Ga  tau(  22) = (   0.1000001   0.4041451   0.1627148  )
        23           Ga  tau(  23) = (   0.1000001   0.4041451   0.4886906  )
        24           Ga  tau(  24) = (   0.1000001   0.4041451   0.8146665  )
        25           Ga  tau(  25) = (   0.0000001   0.5773502   0.1627148  )
        26           Ga  tau(  26) = (   0.0000001   0.5773502   0.4886906  )
        27           Ga  tau(  27) = (   0.0000001   0.5773502   0.8146665  )
        28           Ga  tau(  28) = (  -0.0999999   0.7505553   0.1627148  )
        29           Ga  tau(  29) = (  -0.0999999   0.7505553   0.4886906  )
        30           Ga  tau(  30) = (  -0.0999999   0.7505553   0.8146665  )
        31           Ga  tau(  31) = (   0.5000001   0.0577350   0.1627148  )
        32           Ga  tau(  32) = (   0.5000001   0.0577350   0.4886906  )
        33           Ga  tau(  33) = (   0.5000001   0.0577350   0.8146665  )
        34           Ga  tau(  34) = (   0.4000001   0.2309401   0.1627148  )
        35           Ga  tau(  35) = (   0.4000001   0.2309401   0.4886906  )
        36           Ga  tau(  36) = (   0.4000001   0.2309401   0.8146665  )
        37           Ga  tau(  37) = (   0.3000001   0.4041451   0.1627148  )
        38           Ga  tau(  38) = (   0.3000001   0.4041451   0.4886906  )
        39           Ga  tau(  39) = (   0.3000001   0.4041451   0.8146665  )
        40           Ga  tau(  40) = (   0.2000001   0.5773502   0.1627148  )
        41           Ga  tau(  41) = (   0.2000001   0.5773502   0.4886906  )
        42           Ga  tau(  42) = (   0.2000001   0.5773502   0.8146665  )
        43           Ga  tau(  43) = (   0.1000001   0.7505553   0.1627148  )
        44           Ga  tau(  44) = (   0.1000001   0.7505553   0.4886906  )
        45           Ga  tau(  45) = (   0.1000001   0.7505553   0.8146665  )
        46           Ga  tau(  46) = (   0.7000001   0.0577350   0.1627148  )
        47           Ga  tau(  47) = (   0.7000001   0.0577350   0.4886906  )
        48           Ga  tau(  48) = (   0.7000001   0.0577350   0.8146665  )
        49           Ga  tau(  49) = (   0.6000001   0.2309401   0.1627148  )
        50           Ga  tau(  50) = (   0.6000001   0.2309401   0.4886906  )
        51           Ga  tau(  51) = (   0.6000001   0.2309401   0.8146665  )
        52           Ga  tau(  52) = (   0.5000001   0.4041451   0.1627148  )
        53           Ga  tau(  53) = (   0.5000001   0.4041451   0.4886906  )
        54           Ga  tau(  54) = (   0.5000001   0.4041451   0.8146665  )
        55           Ga  tau(  55) = (   0.4000001   0.5773502   0.1627148  )
        56           Ga  tau(  56) = (   0.4000001   0.5773502   0.4886906  )
        57           Ga  tau(  57) = (   0.4000001   0.5773502   0.8146665  )
        58           Ga  tau(  58) = (   0.3000001   0.7505553   0.1627148  )
        59           Ga  tau(  59) = (   0.3000001   0.7505553   0.4886906  )
        60           Ga  tau(  60) = (   0.3000001   0.7505553   0.8146665  )
        61           Ga  tau(  61) = (   0.9000001   0.0577350   0.1627148  )
        62           Ga  tau(  62) = (   0.9000001   0.0577350   0.4886906  )
        63           Ga  tau(  63) = (   0.9000001   0.0577350   0.8146665  )
        64           Ga  tau(  64) = (   0.8000001   0.2309401   0.1627148  )
        65           Ga  tau(  65) = (   0.8000001   0.2309401   0.4886906  )
        66           Ga  tau(  66) = (   0.8000001   0.2309401   0.8146665  )
        67           Ga  tau(  67) = (   0.7000001   0.4041451   0.1627148  )
        68           Ga  tau(  68) = (   0.7000001   0.4041451   0.4886906  )
        69           Ga  tau(  69) = (   0.7000001   0.4041451   0.8146665  )
        70           Ga  tau(  70) = (   0.6000001   0.5773502   0.1627148  )
        71           Ga  tau(  71) = (   0.6000001   0.5773502   0.4886906  )
        72           Ga  tau(  72) = (   0.6000001   0.5773502   0.8146665  )
        73           Ga  tau(  73) = (   0.5000001   0.7505553   0.1627148  )
        74           Ga  tau(  74) = (   0.5000001   0.7505553   0.4886906  )
        75           Ga  tau(  75) = (   0.5000001   0.7505553   0.8146665  )
        76           Ga  tau(  76) = (  -0.0000001   0.1154701   0.3257027  )
        77           Ga  tau(  77) = (  -0.0000001   0.1154701   0.6516786  )
        78           Ga  tau(  78) = (  -0.0000001   0.1154701   0.9776544  )
        79           Ga  tau(  79) = (  -0.1000001   0.2886752   0.3257027  )
        80           Ga  tau(  80) = (  -0.1000001   0.2886752   0.6516786  )
        81           Ga  tau(  81) = (  -0.1000001   0.2886752   0.9776544  )
        82           Ga  tau(  82) = (  -0.2000001   0.4618803   0.3257027  )
        83           Ga  tau(  83) = (  -0.2000001   0.4618803   0.6516786  )
        84           Ga  tau(  84) = (  -0.2000001   0.4618803   0.9776544  )
        85           Ga  tau(  85) = (  -0.3000001   0.6350854   0.3257027  )
        86           Ga  tau(  86) = (  -0.3000001   0.6350854   0.6516786  )
        87           Ga  tau(  87) = (  -0.3000001   0.6350854   0.9776544  )
        88           Ga  tau(  88) = (  -0.4000001   0.8082905   0.3257027  )
        89           Ga  tau(  89) = (  -0.4000001   0.8082905   0.6516786  )
        90           Ga  tau(  90) = (  -0.4000001   0.8082905   0.9776544  )
        91           Ga  tau(  91) = (   0.1999999   0.1154701   0.3257027  )
        92           Ga  tau(  92) = (   0.1999999   0.1154701   0.6516786  )
        93           Ga  tau(  93) = (   0.1999999   0.1154701   0.9776544  )
        94           Ga  tau(  94) = (   0.0999999   0.2886752   0.3257027  )
        95           Ga  tau(  95) = (   0.0999999   0.2886752   0.6516786  )
        96           Ga  tau(  96) = (   0.0999999   0.2886752   0.9776544  )
        97           Ga  tau(  97) = (  -0.0000001   0.4618803   0.3257027  )
        98           Ga  tau(  98) = (  -0.0000001   0.4618803   0.6516786  )
        99           Ga  tau(  99) = (  -0.0000001   0.4618803   0.9776544  )
       100           Ga  tau( 100) = (  -0.1000001   0.6350854   0.3257027  )
       101           Ga  tau( 101) = (  -0.1000001   0.6350854   0.6516786  )
       102           Ga  tau( 102) = (  -0.1000001   0.6350854   0.9776544  )
       103           Ga  tau( 103) = (  -0.2000001   0.8082905   0.3257027  )
       104           Ga  tau( 104) = (  -0.2000001   0.8082905   0.6516786  )
       105           Ga  tau( 105) = (  -0.2000001   0.8082905   0.9776544  )
       106           Ga  tau( 106) = (   0.3999999   0.1154701   0.3257027  )
       107           Ga  tau( 107) = (   0.3999999   0.1154701   0.6516786  )
       108           Ga  tau( 108) = (   0.3999999   0.1154701   0.9776544  )
       109           Ga  tau( 109) = (   0.2999999   0.2886752   0.3257027  )
       110           Ga  tau( 110) = (   0.2999999   0.2886752   0.6516786  )
       111           Ga  tau( 111) = (   0.2999999   0.2886752   0.9776544  )
       112           Ga  tau( 112) = (   0.1999999   0.4618803   0.3257027  )
       113           Ga  tau( 113) = (   0.1999999   0.4618803   0.6516786  )
       114           Ga  tau( 114) = (   0.1999999   0.4618803   0.9776544  )
       115           Ga  tau( 115) = (   0.0999999   0.6350854   0.3257027  )
       116           Ga  tau( 116) = (   0.0999999   0.6350854   0.6516786  )
       117           Ga  tau( 117) = (   0.0999999   0.6350854   0.9776544  )
       118           Ga  tau( 118) = (  -0.0000001   0.8082905   0.3257027  )
       119           Ga  tau( 119) = (  -0.0000001   0.8082905   0.6516786  )
       120           Ga  tau( 120) = (  -0.0000001   0.8082905   0.9776544  )
       121           Ga  tau( 121) = (   0.5999999   0.1154701   0.3257027  )
       122           Ga  tau( 122) = (   0.5999999   0.1154701   0.6516786  )
       123           Ga  tau( 123) = (   0.5999999   0.1154701   0.9776544  )
       124           Ga  tau( 124) = (   0.4999999   0.2886752   0.3257027  )
       125           Ga  tau( 125) = (   0.4999999   0.2886752   0.6516786  )
       126           Ga  tau( 126) = (   0.4999999   0.2886752   0.9776544  )
       127           Ga  tau( 127) = (   0.3999999   0.4618803   0.3257027  )
       128           Ga  tau( 128) = (   0.3999999   0.4618803   0.6516786  )
       129           Ga  tau( 129) = (   0.3999999   0.4618803   0.9776544  )
       130           Ga  tau( 130) = (   0.2999999   0.6350854   0.3257027  )
       131           Ga  tau( 131) = (   0.2999999   0.6350854   0.6516786  )
       132           Ga  tau( 132) = (   0.2999999   0.6350854   0.9776544  )
       133           Ga  tau( 133) = (   0.1999999   0.8082905   0.3257027  )
       134           Ga  tau( 134) = (   0.1999999   0.8082905   0.6516786  )
       135           Ga  tau( 135) = (   0.1999999   0.8082905   0.9776544  )
       136           Ga  tau( 136) = (   0.7999999   0.1154701   0.3257027  )
       137           Ga  tau( 137) = (   0.7999999   0.1154701   0.6516786  )
       138           Ga  tau( 138) = (   0.7999999   0.1154701   0.9776544  )
       139           Ga  tau( 139) = (   0.6999999   0.2886752   0.3257027  )
       140           Ga  tau( 140) = (   0.6999999   0.2886752   0.6516786  )
       141           Ga  tau( 141) = (   0.6999999   0.2886752   0.9776544  )
       142           Ga  tau( 142) = (   0.5999999   0.4618803   0.3257027  )
       143           Ga  tau( 143) = (   0.5999999   0.4618803   0.6516786  )
       144           Ga  tau( 144) = (   0.5999999   0.4618803   0.9776544  )
       145           Ga  tau( 145) = (   0.4999999   0.6350854   0.3257027  )
       146           Ga  tau( 146) = (   0.4999999   0.6350854   0.6516786  )
       147           Ga  tau( 147) = (   0.4999999   0.6350854   0.9776544  )
       148           Ga  tau( 148) = (   0.3999999   0.8082905   0.3257027  )
       149           Ga  tau( 149) = (   0.3999999   0.8082905   0.6516786  )
       150           Ga  tau( 150) = (   0.3999999   0.8082905   0.9776544  )
       151           N   tau( 151) = (   0.1000001   0.0577350   0.6114777  )
       152           N   tau( 152) = (   0.1000001   0.0577350   0.9374535  )
       153           N   tau( 153) = (   0.0000001   0.2309401   0.2855019  )
       154           N   tau( 154) = (   0.0000001   0.2309401   0.6114777  )
       155           N   tau( 155) = (   0.0000001   0.2309401   0.9374535  )
       156           N   tau( 156) = (  -0.0999999   0.4041451   0.2855019  )
       157           N   tau( 157) = (  -0.0999999   0.4041451   0.6114777  )
       158           N   tau( 158) = (  -0.0999999   0.4041451   0.9374535  )
       159           N   tau( 159) = (  -0.1999999   0.5773502   0.2855019  )
       160           N   tau( 160) = (  -0.1999999   0.5773502   0.6114777  )
       161           N   tau( 161) = (  -0.1999999   0.5773502   0.9374535  )
       162           N   tau( 162) = (  -0.2999999   0.7505553   0.2855019  )
       163           N   tau( 163) = (  -0.2999999   0.7505553   0.6114777  )
       164           N   tau( 164) = (  -0.2999999   0.7505553   0.9374535  )
       165           N   tau( 165) = (   0.3000001   0.0577350   0.2855019  )
       166           N   tau( 166) = (   0.3000001   0.0577350   0.6114777  )
       167           N   tau( 167) = (   0.3000001   0.0577350   0.9374535  )
       168           N   tau( 168) = (   0.2000001   0.2309401   0.2855019  )
       169           N   tau( 169) = (   0.2000001   0.2309401   0.6114777  )
       170           N   tau( 170) = (   0.2000001   0.2309401   0.9374535  )
       171           N   tau( 171) = (   0.1000001   0.4041451   0.2855019  )
       172           N   tau( 172) = (   0.1000001   0.4041451   0.6114777  )
       173           N   tau( 173) = (   0.1000001   0.4041451   0.9374535  )
       174           N   tau( 174) = (   0.0000001   0.5773502   0.2855019  )
       175           N   tau( 175) = (   0.0000001   0.5773502   0.6114777  )
       176           N   tau( 176) = (   0.0000001   0.5773502   0.9374535  )
       177           N   tau( 177) = (  -0.0999999   0.7505553   0.2855019  )
       178           N   tau( 178) = (  -0.0999999   0.7505553   0.6114777  )
       179           N   tau( 179) = (  -0.0999999   0.7505553   0.9374535  )
       180           N   tau( 180) = (   0.5000001   0.0577350   0.2855019  )
       181           N   tau( 181) = (   0.5000001   0.0577350   0.6114777  )
       182           N   tau( 182) = (   0.5000001   0.0577350   0.9374535  )
       183           N   tau( 183) = (   0.4000001   0.2309401   0.2855019  )
       184           N   tau( 184) = (   0.4000001   0.2309401   0.6114777  )
       185           N   tau( 185) = (   0.4000001   0.2309401   0.9374535  )
       186           N   tau( 186) = (   0.3000001   0.4041451   0.2855019  )
       187           N   tau( 187) = (   0.3000001   0.4041451   0.6114777  )
       188           N   tau( 188) = (   0.3000001   0.4041451   0.9374535  )
       189           N   tau( 189) = (   0.2000001   0.5773502   0.2855019  )
       190           N   tau( 190) = (   0.2000001   0.5773502   0.6114777  )
       191           N   tau( 191) = (   0.2000001   0.5773502   0.9374535  )
       192           N   tau( 192) = (   0.1000001   0.7505553   0.2855019  )
       193           N   tau( 193) = (   0.1000001   0.7505553   0.6114777  )
       194           N   tau( 194) = (   0.1000001   0.7505553   0.9374535  )
       195           N   tau( 195) = (   0.7000001   0.0577350   0.2855019  )
       196           N   tau( 196) = (   0.7000001   0.0577350   0.6114777  )
       197           N   tau( 197) = (   0.7000001   0.0577350   0.9374535  )
       198           N   tau( 198) = (   0.6000001   0.2309401   0.2855019  )
       199           N   tau( 199) = (   0.6000001   0.2309401   0.6114777  )
       200           N   tau( 200) = (   0.6000001   0.2309401   0.9374535  )
       201           N   tau( 201) = (   0.5000001   0.4041451   0.2855019  )
       202           N   tau( 202) = (   0.5000001   0.4041451   0.6114777  )
       203           N   tau( 203) = (   0.5000001   0.4041451   0.9374535  )
       204           N   tau( 204) = (   0.4000001   0.5773502   0.2855019  )
       205           N   tau( 205) = (   0.4000001   0.5773502   0.6114777  )
       206           N   tau( 206) = (   0.4000001   0.5773502   0.9374535  )
       207           N   tau( 207) = (   0.3000001   0.7505553   0.2855019  )
       208           N   tau( 208) = (   0.3000001   0.7505553   0.6114777  )
       209           N   tau( 209) = (   0.3000001   0.7505553   0.9374535  )
       210           N   tau( 210) = (   0.9000001   0.0577350   0.2855019  )
       211           N   tau( 211) = (   0.9000001   0.0577350   0.6114777  )
       212           N   tau( 212) = (   0.9000001   0.0577350   0.9374535  )
       213           N   tau( 213) = (   0.8000001   0.2309401   0.2855019  )
       214           N   tau( 214) = (   0.8000001   0.2309401   0.6114777  )
       215           N   tau( 215) = (   0.8000001   0.2309401   0.9374535  )
       216           N   tau( 216) = (   0.7000001   0.4041451   0.2855019  )
       217           N   tau( 217) = (   0.7000001   0.4041451   0.6114777  )
       218           N   tau( 218) = (   0.7000001   0.4041451   0.9374535  )
       219           N   tau( 219) = (   0.6000001   0.5773502   0.2855019  )
       220           N   tau( 220) = (   0.6000001   0.5773502   0.6114777  )
       221           N   tau( 221) = (   0.6000001   0.5773502   0.9374535  )
       222           N   tau( 222) = (   0.5000001   0.7505553   0.2855019  )
       223           N   tau( 223) = (   0.5000001   0.7505553   0.6114777  )
       224           N   tau( 224) = (   0.5000001   0.7505553   0.9374535  )
       225           N   tau( 225) = (  -0.0000001   0.1154701   0.1225140  )
       226           N   tau( 226) = (  -0.0000001   0.1154701   0.4484898  )
       227           N   tau( 227) = (  -0.0000001   0.1154701   0.7744656  )
       228           N   tau( 228) = (  -0.1000001   0.2886752   0.1225140  )
       229           N   tau( 229) = (  -0.1000001   0.2886752   0.4484898  )
       230           N   tau( 230) = (  -0.1000001   0.2886752   0.7744656  )
       231           N   tau( 231) = (  -0.2000001   0.4618803   0.1225140  )
       232           N   tau( 232) = (  -0.2000001   0.4618803   0.4484898  )
       233           N   tau( 233) = (  -0.2000001   0.4618803   0.7744656  )
       234           N   tau( 234) = (  -0.3000001   0.6350854   0.1225140  )
       235           N   tau( 235) = (  -0.3000001   0.6350854   0.4484898  )
       236           N   tau( 236) = (  -0.3000001   0.6350854   0.7744656  )
       237           N   tau( 237) = (  -0.4000001   0.8082905   0.1225140  )
       238           N   tau( 238) = (  -0.4000001   0.8082905   0.4484898  )
       239           N   tau( 239) = (  -0.4000001   0.8082905   0.7744656  )
       240           N   tau( 240) = (   0.1999999   0.1154701   0.1225140  )
       241           N   tau( 241) = (   0.1999999   0.1154701   0.4484898  )
       242           N   tau( 242) = (   0.1999999   0.1154701   0.7744656  )
       243           N   tau( 243) = (   0.0999999   0.2886752   0.1225140  )
       244           N   tau( 244) = (   0.0999999   0.2886752   0.4484898  )
       245           N   tau( 245) = (   0.0999999   0.2886752   0.7744656  )
       246           N   tau( 246) = (  -0.0000001   0.4618803   0.1225140  )
       247           N   tau( 247) = (  -0.0000001   0.4618803   0.4484898  )
       248           N   tau( 248) = (  -0.0000001   0.4618803   0.7744656  )
       249           N   tau( 249) = (  -0.1000001   0.6350854   0.1225140  )
       250           N   tau( 250) = (  -0.1000001   0.6350854   0.4484898  )
       251           N   tau( 251) = (  -0.1000001   0.6350854   0.7744656  )
       252           N   tau( 252) = (  -0.2000001   0.8082905   0.1225140  )
       253           N   tau( 253) = (  -0.2000001   0.8082905   0.4484898  )
       254           N   tau( 254) = (  -0.2000001   0.8082905   0.7744656  )
       255           N   tau( 255) = (   0.3999999   0.1154701   0.1225140  )
       256           N   tau( 256) = (   0.3999999   0.1154701   0.4484898  )
       257           N   tau( 257) = (   0.3999999   0.1154701   0.7744656  )
       258           N   tau( 258) = (   0.2999999   0.2886752   0.1225140  )
       259           N   tau( 259) = (   0.2999999   0.2886752   0.4484898  )
       260           N   tau( 260) = (   0.2999999   0.2886752   0.7744656  )
       261           N   tau( 261) = (   0.1999999   0.4618803   0.1225140  )
       262           N   tau( 262) = (   0.1999999   0.4618803   0.4484898  )
       263           N   tau( 263) = (   0.1999999   0.4618803   0.7744656  )
       264           N   tau( 264) = (   0.0999999   0.6350854   0.1225140  )
       265           N   tau( 265) = (   0.0999999   0.6350854   0.4484898  )
       266           N   tau( 266) = (   0.0999999   0.6350854   0.7744656  )
       267           N   tau( 267) = (  -0.0000001   0.8082905   0.1225140  )
       268           N   tau( 268) = (  -0.0000001   0.8082905   0.4484898  )
       269           N   tau( 269) = (  -0.0000001   0.8082905   0.7744656  )
       270           N   tau( 270) = (   0.5999999   0.1154701   0.1225140  )
       271           N   tau( 271) = (   0.5999999   0.1154701   0.4484898  )
       272           N   tau( 272) = (   0.5999999   0.1154701   0.7744656  )
       273           N   tau( 273) = (   0.4999999   0.2886752   0.1225140  )
       274           N   tau( 274) = (   0.4999999   0.2886752   0.4484898  )
       275           N   tau( 275) = (   0.4999999   0.2886752   0.7744656  )
       276           N   tau( 276) = (   0.3999999   0.4618803   0.1225140  )
       277           N   tau( 277) = (   0.3999999   0.4618803   0.4484898  )
       278           N   tau( 278) = (   0.3999999   0.4618803   0.7744656  )
       279           N   tau( 279) = (   0.2999999   0.6350854   0.1225140  )
       280           N   tau( 280) = (   0.2999999   0.6350854   0.4484898  )
       281           N   tau( 281) = (   0.2999999   0.6350854   0.7744656  )
       282           N   tau( 282) = (   0.1999999   0.8082905   0.1225140  )
       283           N   tau( 283) = (   0.1999999   0.8082905   0.4484898  )
       284           N   tau( 284) = (   0.1999999   0.8082905   0.7744656  )
       285           N   tau( 285) = (   0.7999999   0.1154701   0.1225140  )
       286           N   tau( 286) = (   0.7999999   0.1154701   0.4484898  )
       287           N   tau( 287) = (   0.7999999   0.1154701   0.7744656  )
       288           N   tau( 288) = (   0.6999999   0.2886752   0.1225140  )
       289           N   tau( 289) = (   0.6999999   0.2886752   0.4484898  )
       290           N   tau( 290) = (   0.6999999   0.2886752   0.7744656  )
       291           N   tau( 291) = (   0.5999999   0.4618803   0.1225140  )
       292           N   tau( 292) = (   0.5999999   0.4618803   0.4484898  )
       293           N   tau( 293) = (   0.5999999   0.4618803   0.7744656  )
       294           N   tau( 294) = (   0.4999999   0.6350854   0.1225140  )
       295           N   tau( 295) = (   0.4999999   0.6350854   0.4484898  )
       296           N   tau( 296) = (   0.4999999   0.6350854   0.7744656  )
       297           N   tau( 297) = (   0.3999999   0.8082905   0.1225140  )
       298           N   tau( 298) = (   0.3999999   0.8082905   0.4484898  )
       299           N   tau( 299) = (   0.3999999   0.8082905   0.7744656  )
       300           Ga  tau( 300) = (   0.1000001   0.0577350   0.2855019  )

   Crystallographic axes

     site n.     atom                  positions (cryst. coord.)
         1           Ga  tau(   1) = (  0.1333334  0.0666666  0.1663874  )
         2           Ga  tau(   2) = (  0.1333334  0.0666666  0.4997208  )
         3           Ga  tau(   3) = (  0.1333334  0.0666666  0.8330541  )
         4           Ga  tau(   4) = (  0.1333334  0.2666666  0.1663874  )
         5           Ga  tau(   5) = (  0.1333334  0.2666666  0.4997208  )
         6           Ga  tau(   6) = (  0.1333334  0.2666666  0.8330541  )
         7           Ga  tau(   7) = (  0.1333334  0.4666666  0.1663874  )
         8           Ga  tau(   8) = (  0.1333334  0.4666666  0.4997208  )
         9           Ga  tau(   9) = (  0.1333334  0.4666666  0.8330541  )
        10           Ga  tau(  10) = (  0.1333334  0.6666666  0.1663874  )
        11           Ga  tau(  11) = (  0.1333334  0.6666666  0.4997208  )
        12           Ga  tau(  12) = (  0.1333334  0.6666666  0.8330541  )
        13           Ga  tau(  13) = (  0.1333334  0.8666666  0.1663874  )
        14           Ga  tau(  14) = (  0.1333334  0.8666666  0.4997208  )
        15           Ga  tau(  15) = (  0.1333334  0.8666666  0.8330541  )
        16           Ga  tau(  16) = (  0.3333334  0.0666666  0.1663874  )
        17           Ga  tau(  17) = (  0.3333334  0.0666666  0.4997208  )
        18           Ga  tau(  18) = (  0.3333334  0.0666666  0.8330541  )
        19           Ga  tau(  19) = (  0.3333334  0.2666666  0.1663874  )
        20           Ga  tau(  20) = (  0.3333334  0.2666666  0.4997208  )
        21           Ga  tau(  21) = (  0.3333334  0.2666666  0.8330541  )
        22           Ga  tau(  22) = (  0.3333334  0.4666666  0.1663874  )
        23           Ga  tau(  23) = (  0.3333334  0.4666666  0.4997208  )
        24           Ga  tau(  24) = (  0.3333334  0.4666666  0.8330541  )
        25           Ga  tau(  25) = (  0.3333334  0.6666666  0.1663874  )
        26           Ga  tau(  26) = (  0.3333334  0.6666666  0.4997208  )
        27           Ga  tau(  27) = (  0.3333334  0.6666666  0.8330541  )
        28           Ga  tau(  28) = (  0.3333334  0.8666666  0.1663874  )
        29           Ga  tau(  29) = (  0.3333334  0.8666666  0.4997208  )
        30           Ga  tau(  30) = (  0.3333334  0.8666666  0.8330541  )
        31           Ga  tau(  31) = (  0.5333334  0.0666666  0.1663874  )
        32           Ga  tau(  32) = (  0.5333334  0.0666666  0.4997208  )
        33           Ga  tau(  33) = (  0.5333334  0.0666666  0.8330541  )
        34           Ga  tau(  34) = (  0.5333334  0.2666666  0.1663874  )
        35           Ga  tau(  35) = (  0.5333334  0.2666666  0.4997208  )
        36           Ga  tau(  36) = (  0.5333334  0.2666666  0.8330541  )
        37           Ga  tau(  37) = (  0.5333334  0.4666666  0.1663874  )
        38           Ga  tau(  38) = (  0.5333334  0.4666666  0.4997208  )
        39           Ga  tau(  39) = (  0.5333334  0.4666666  0.8330541  )
        40           Ga  tau(  40) = (  0.5333334  0.6666666  0.1663874  )
        41           Ga  tau(  41) = (  0.5333334  0.6666666  0.4997208  )
        42           Ga  tau(  42) = (  0.5333334  0.6666666  0.8330541  )
        43           Ga  tau(  43) = (  0.5333334  0.8666666  0.1663874  )
        44           Ga  tau(  44) = (  0.5333334  0.8666666  0.4997208  )
        45           Ga  tau(  45) = (  0.5333334  0.8666666  0.8330541  )
        46           Ga  tau(  46) = (  0.7333334  0.0666666  0.1663874  )
        47           Ga  tau(  47) = (  0.7333334  0.0666666  0.4997208  )
        48           Ga  tau(  48) = (  0.7333334  0.0666666  0.8330541  )
        49           Ga  tau(  49) = (  0.7333334  0.2666666  0.1663874  )
        50           Ga  tau(  50) = (  0.7333334  0.2666666  0.4997208  )
        51           Ga  tau(  51) = (  0.7333334  0.2666666  0.8330541  )
        52           Ga  tau(  52) = (  0.7333334  0.4666666  0.1663874  )
        53           Ga  tau(  53) = (  0.7333334  0.4666666  0.4997208  )
        54           Ga  tau(  54) = (  0.7333334  0.4666666  0.8330541  )
        55           Ga  tau(  55) = (  0.7333334  0.6666666  0.1663874  )
        56           Ga  tau(  56) = (  0.7333334  0.6666666  0.4997208  )
        57           Ga  tau(  57) = (  0.7333334  0.6666666  0.8330541  )
        58           Ga  tau(  58) = (  0.7333334  0.8666666  0.1663874  )
        59           Ga  tau(  59) = (  0.7333334  0.8666666  0.4997208  )
        60           Ga  tau(  60) = (  0.7333334  0.8666666  0.8330541  )
        61           Ga  tau(  61) = (  0.9333334  0.0666666  0.1663874  )
        62           Ga  tau(  62) = (  0.9333334  0.0666666  0.4997208  )
        63           Ga  tau(  63) = (  0.9333334  0.0666666  0.8330541  )
        64           Ga  tau(  64) = (  0.9333334  0.2666666  0.1663874  )
        65           Ga  tau(  65) = (  0.9333334  0.2666666  0.4997208  )
        66           Ga  tau(  66) = (  0.9333334  0.2666666  0.8330541  )
        67           Ga  tau(  67) = (  0.9333334  0.4666666  0.1663874  )
        68           Ga  tau(  68) = (  0.9333334  0.4666666  0.4997208  )
        69           Ga  tau(  69) = (  0.9333334  0.4666666  0.8330541  )
        70           Ga  tau(  70) = (  0.9333334  0.6666666  0.1663874  )
        71           Ga  tau(  71) = (  0.9333334  0.6666666  0.4997208  )
        72           Ga  tau(  72) = (  0.9333334  0.6666666  0.8330541  )
        73           Ga  tau(  73) = (  0.9333334  0.8666666  0.1663874  )
        74           Ga  tau(  74) = (  0.9333334  0.8666666  0.4997208  )
        75           Ga  tau(  75) = (  0.9333334  0.8666666  0.8330541  )
        76           Ga  tau(  76) = (  0.0666666  0.1333334  0.3330541  )
        77           Ga  tau(  77) = (  0.0666666  0.1333334  0.6663874  )
        78           Ga  tau(  78) = (  0.0666666  0.1333334  0.9997208  )
        79           Ga  tau(  79) = (  0.0666666  0.3333334  0.3330541  )
        80           Ga  tau(  80) = (  0.0666666  0.3333334  0.6663874  )
        81           Ga  tau(  81) = (  0.0666666  0.3333334  0.9997208  )
        82           Ga  tau(  82) = (  0.0666666  0.5333334  0.3330541  )
        83           Ga  tau(  83) = (  0.0666666  0.5333334  0.6663874  )
        84           Ga  tau(  84) = (  0.0666666  0.5333334  0.9997208  )
        85           Ga  tau(  85) = (  0.0666666  0.7333334  0.3330541  )
        86           Ga  tau(  86) = (  0.0666666  0.7333334  0.6663874  )
        87           Ga  tau(  87) = (  0.0666666  0.7333334  0.9997208  )
        88           Ga  tau(  88) = (  0.0666666  0.9333334  0.3330541  )
        89           Ga  tau(  89) = (  0.0666666  0.9333334  0.6663874  )
        90           Ga  tau(  90) = (  0.0666666  0.9333334  0.9997208  )
        91           Ga  tau(  91) = (  0.2666666  0.1333334  0.3330541  )
        92           Ga  tau(  92) = (  0.2666666  0.1333334  0.6663874  )
        93           Ga  tau(  93) = (  0.2666666  0.1333334  0.9997208  )
        94           Ga  tau(  94) = (  0.2666666  0.3333334  0.3330541  )
        95           Ga  tau(  95) = (  0.2666666  0.3333334  0.6663874  )
        96           Ga  tau(  96) = (  0.2666666  0.3333334  0.9997208  )
        97           Ga  tau(  97) = (  0.2666666  0.5333334  0.3330541  )
        98           Ga  tau(  98) = (  0.2666666  0.5333334  0.6663874  )
        99           Ga  tau(  99) = (  0.2666666  0.5333334  0.9997208  )
       100           Ga  tau( 100) = (  0.2666666  0.7333334  0.3330541  )
       101           Ga  tau( 101) = (  0.2666666  0.7333334  0.6663874  )
       102           Ga  tau( 102) = (  0.2666666  0.7333334  0.9997208  )
       103           Ga  tau( 103) = (  0.2666666  0.9333334  0.3330541  )
       104           Ga  tau( 104) = (  0.2666666  0.9333334  0.6663874  )
       105           Ga  tau( 105) = (  0.2666666  0.9333334  0.9997208  )
       106           Ga  tau( 106) = (  0.4666666  0.1333334  0.3330541  )
       107           Ga  tau( 107) = (  0.4666666  0.1333334  0.6663874  )
       108           Ga  tau( 108) = (  0.4666666  0.1333334  0.9997208  )
       109           Ga  tau( 109) = (  0.4666666  0.3333334  0.3330541  )
       110           Ga  tau( 110) = (  0.4666666  0.3333334  0.6663874  )
       111           Ga  tau( 111) = (  0.4666666  0.3333334  0.9997208  )
       112           Ga  tau( 112) = (  0.4666666  0.5333334  0.3330541  )
       113           Ga  tau( 113) = (  0.4666666  0.5333334  0.6663874  )
       114           Ga  tau( 114) = (  0.4666666  0.5333334  0.9997208  )
       115           Ga  tau( 115) = (  0.4666666  0.7333334  0.3330541  )
       116           Ga  tau( 116) = (  0.4666666  0.7333334  0.6663874  )
       117           Ga  tau( 117) = (  0.4666666  0.7333334  0.9997208  )
       118           Ga  tau( 118) = (  0.4666666  0.9333334  0.3330541  )
       119           Ga  tau( 119) = (  0.4666666  0.9333334  0.6663874  )
       120           Ga  tau( 120) = (  0.4666666  0.9333334  0.9997208  )
       121           Ga  tau( 121) = (  0.6666666  0.1333334  0.3330541  )
       122           Ga  tau( 122) = (  0.6666666  0.1333334  0.6663874  )
       123           Ga  tau( 123) = (  0.6666666  0.1333334  0.9997208  )
       124           Ga  tau( 124) = (  0.6666666  0.3333334  0.3330541  )
       125           Ga  tau( 125) = (  0.6666666  0.3333334  0.6663874  )
       126           Ga  tau( 126) = (  0.6666666  0.3333334  0.9997208  )
       127           Ga  tau( 127) = (  0.6666666  0.5333334  0.3330541  )
       128           Ga  tau( 128) = (  0.6666666  0.5333334  0.6663874  )
       129           Ga  tau( 129) = (  0.6666666  0.5333334  0.9997208  )
       130           Ga  tau( 130) = (  0.6666666  0.7333334  0.3330541  )
       131           Ga  tau( 131) = (  0.6666666  0.7333334  0.6663874  )
       132           Ga  tau( 132) = (  0.6666666  0.7333334  0.9997208  )
       133           Ga  tau( 133) = (  0.6666666  0.9333334  0.3330541  )
       134           Ga  tau( 134) = (  0.6666666  0.9333334  0.6663874  )
       135           Ga  tau( 135) = (  0.6666666  0.9333334  0.9997208  )
       136           Ga  tau( 136) = (  0.8666666  0.1333334  0.3330541  )
       137           Ga  tau( 137) = (  0.8666666  0.1333334  0.6663874  )
       138           Ga  tau( 138) = (  0.8666666  0.1333334  0.9997208  )
       139           Ga  tau( 139) = (  0.8666666  0.3333334  0.3330541  )
       140           Ga  tau( 140) = (  0.8666666  0.3333334  0.6663874  )
       141           Ga  tau( 141) = (  0.8666666  0.3333334  0.9997208  )
       142           Ga  tau( 142) = (  0.8666666  0.5333334  0.3330541  )
       143           Ga  tau( 143) = (  0.8666666  0.5333334  0.6663874  )
       144           Ga  tau( 144) = (  0.8666666  0.5333334  0.9997208  )
       145           Ga  tau( 145) = (  0.8666666  0.7333334  0.3330541  )
       146           Ga  tau( 146) = (  0.8666666  0.7333334  0.6663874  )
       147           Ga  tau( 147) = (  0.8666666  0.7333334  0.9997208  )
       148           Ga  tau( 148) = (  0.8666666  0.9333334  0.3330541  )
       149           Ga  tau( 149) = (  0.8666666  0.9333334  0.6663874  )
       150           Ga  tau( 150) = (  0.8666666  0.9333334  0.9997208  )
       151           N   tau( 151) = (  0.1333334  0.0666666  0.6252792  )
       152           N   tau( 152) = (  0.1333334  0.0666666  0.9586126  )
       153           N   tau( 153) = (  0.1333334  0.2666666  0.2919459  )
       154           N   tau( 154) = (  0.1333334  0.2666666  0.6252792  )
       155           N   tau( 155) = (  0.1333334  0.2666666  0.9586126  )
       156           N   tau( 156) = (  0.1333334  0.4666666  0.2919459  )
       157           N   tau( 157) = (  0.1333334  0.4666666  0.6252792  )
       158           N   tau( 158) = (  0.1333334  0.4666666  0.9586126  )
       159           N   tau( 159) = (  0.1333334  0.6666666  0.2919459  )
       160           N   tau( 160) = (  0.1333334  0.6666666  0.6252792  )
       161           N   tau( 161) = (  0.1333334  0.6666666  0.9586126  )
       162           N   tau( 162) = (  0.1333334  0.8666666  0.2919459  )
       163           N   tau( 163) = (  0.1333334  0.8666666  0.6252792  )
       164           N   tau( 164) = (  0.1333334  0.8666666  0.9586126  )
       165           N   tau( 165) = (  0.3333334  0.0666666  0.2919459  )
       166           N   tau( 166) = (  0.3333334  0.0666666  0.6252792  )
       167           N   tau( 167) = (  0.3333334  0.0666666  0.9586126  )
       168           N   tau( 168) = (  0.3333334  0.2666666  0.2919459  )
       169           N   tau( 169) = (  0.3333334  0.2666666  0.6252792  )
       170           N   tau( 170) = (  0.3333334  0.2666666  0.9586126  )
       171           N   tau( 171) = (  0.3333334  0.4666666  0.2919459  )
       172           N   tau( 172) = (  0.3333334  0.4666666  0.6252792  )
       173           N   tau( 173) = (  0.3333334  0.4666666  0.9586126  )
       174           N   tau( 174) = (  0.3333334  0.6666666  0.2919459  )
       175           N   tau( 175) = (  0.3333334  0.6666666  0.6252792  )
       176           N   tau( 176) = (  0.3333334  0.6666666  0.9586126  )
       177           N   tau( 177) = (  0.3333334  0.8666666  0.2919459  )
       178           N   tau( 178) = (  0.3333334  0.8666666  0.6252792  )
       179           N   tau( 179) = (  0.3333334  0.8666666  0.9586126  )
       180           N   tau( 180) = (  0.5333334  0.0666666  0.2919459  )
       181           N   tau( 181) = (  0.5333334  0.0666666  0.6252792  )
       182           N   tau( 182) = (  0.5333334  0.0666666  0.9586126  )
       183           N   tau( 183) = (  0.5333334  0.2666666  0.2919459  )
       184           N   tau( 184) = (  0.5333334  0.2666666  0.6252792  )
       185           N   tau( 185) = (  0.5333334  0.2666666  0.9586126  )
       186           N   tau( 186) = (  0.5333334  0.4666666  0.2919459  )
       187           N   tau( 187) = (  0.5333334  0.4666666  0.6252792  )
       188           N   tau( 188) = (  0.5333334  0.4666666  0.9586126  )
       189           N   tau( 189) = (  0.5333334  0.6666666  0.2919459  )
       190           N   tau( 190) = (  0.5333334  0.6666666  0.6252792  )
       191           N   tau( 191) = (  0.5333334  0.6666666  0.9586126  )
       192           N   tau( 192) = (  0.5333334  0.8666666  0.2919459  )
       193           N   tau( 193) = (  0.5333334  0.8666666  0.6252792  )
       194           N   tau( 194) = (  0.5333334  0.8666666  0.9586126  )
       195           N   tau( 195) = (  0.7333334  0.0666666  0.2919459  )
       196           N   tau( 196) = (  0.7333334  0.0666666  0.6252792  )
       197           N   tau( 197) = (  0.7333334  0.0666666  0.9586126  )
       198           N   tau( 198) = (  0.7333334  0.2666666  0.2919459  )
       199           N   tau( 199) = (  0.7333334  0.2666666  0.6252792  )
       200           N   tau( 200) = (  0.7333334  0.2666666  0.9586126  )
       201           N   tau( 201) = (  0.7333334  0.4666666  0.2919459  )
       202           N   tau( 202) = (  0.7333334  0.4666666  0.6252792  )
       203           N   tau( 203) = (  0.7333334  0.4666666  0.9586126  )
       204           N   tau( 204) = (  0.7333334  0.6666666  0.2919459  )
       205           N   tau( 205) = (  0.7333334  0.6666666  0.6252792  )
       206           N   tau( 206) = (  0.7333334  0.6666666  0.9586126  )
       207           N   tau( 207) = (  0.7333334  0.8666666  0.2919459  )
       208           N   tau( 208) = (  0.7333334  0.8666666  0.6252792  )
       209           N   tau( 209) = (  0.7333334  0.8666666  0.9586126  )
       210           N   tau( 210) = (  0.9333334  0.0666666  0.2919459  )
       211           N   tau( 211) = (  0.9333334  0.0666666  0.6252792  )
       212           N   tau( 212) = (  0.9333334  0.0666666  0.9586126  )
       213           N   tau( 213) = (  0.9333334  0.2666666  0.2919459  )
       214           N   tau( 214) = (  0.9333334  0.2666666  0.6252792  )
       215           N   tau( 215) = (  0.9333334  0.2666666  0.9586126  )
       216           N   tau( 216) = (  0.9333334  0.4666666  0.2919459  )
       217           N   tau( 217) = (  0.9333334  0.4666666  0.6252792  )
       218           N   tau( 218) = (  0.9333334  0.4666666  0.9586126  )
       219           N   tau( 219) = (  0.9333334  0.6666666  0.2919459  )
       220           N   tau( 220) = (  0.9333334  0.6666666  0.6252792  )
       221           N   tau( 221) = (  0.9333334  0.6666666  0.9586126  )
       222           N   tau( 222) = (  0.9333334  0.8666666  0.2919459  )
       223           N   tau( 223) = (  0.9333334  0.8666666  0.6252792  )
       224           N   tau( 224) = (  0.9333334  0.8666666  0.9586126  )
       225           N   tau( 225) = (  0.0666666  0.1333334  0.1252792  )
       226           N   tau( 226) = (  0.0666666  0.1333334  0.4586126  )
       227           N   tau( 227) = (  0.0666666  0.1333334  0.7919459  )
       228           N   tau( 228) = (  0.0666666  0.3333334  0.1252792  )
       229           N   tau( 229) = (  0.0666666  0.3333334  0.4586126  )
       230           N   tau( 230) = (  0.0666666  0.3333334  0.7919459  )
       231           N   tau( 231) = (  0.0666666  0.5333334  0.1252792  )
       232           N   tau( 232) = (  0.0666666  0.5333334  0.4586126  )
       233           N   tau( 233) = (  0.0666666  0.5333334  0.7919459  )
       234           N   tau( 234) = (  0.0666666  0.7333334  0.1252792  )
       235           N   tau( 235) = (  0.0666666  0.7333334  0.4586126  )
       236           N   tau( 236) = (  0.0666666  0.7333334  0.7919459  )
       237           N   tau( 237) = (  0.0666666  0.9333334  0.1252792  )
       238           N   tau( 238) = (  0.0666666  0.9333334  0.4586126  )
       239           N   tau( 239) = (  0.0666666  0.9333334  0.7919459  )
       240           N   tau( 240) = (  0.2666666  0.1333334  0.1252792  )
       241           N   tau( 241) = (  0.2666666  0.1333334  0.4586126  )
       242           N   tau( 242) = (  0.2666666  0.1333334  0.7919459  )
       243           N   tau( 243) = (  0.2666666  0.3333334  0.1252792  )
       244           N   tau( 244) = (  0.2666666  0.3333334  0.4586126  )
       245           N   tau( 245) = (  0.2666666  0.3333334  0.7919459  )
       246           N   tau( 246) = (  0.2666666  0.5333334  0.1252792  )
       247           N   tau( 247) = (  0.2666666  0.5333334  0.4586126  )
       248           N   tau( 248) = (  0.2666666  0.5333334  0.7919459  )
       249           N   tau( 249) = (  0.2666666  0.7333334  0.1252792  )
       250           N   tau( 250) = (  0.2666666  0.7333334  0.4586126  )
       251           N   tau( 251) = (  0.2666666  0.7333334  0.7919459  )
       252           N   tau( 252) = (  0.2666666  0.9333334  0.1252792  )
       253           N   tau( 253) = (  0.2666666  0.9333334  0.4586126  )
       254           N   tau( 254) = (  0.2666666  0.9333334  0.7919459  )
       255           N   tau( 255) = (  0.4666666  0.1333334  0.1252792  )
       256           N   tau( 256) = (  0.4666666  0.1333334  0.4586126  )
       257           N   tau( 257) = (  0.4666666  0.1333334  0.7919459  )
       258           N   tau( 258) = (  0.4666666  0.3333334  0.1252792  )
       259           N   tau( 259) = (  0.4666666  0.3333334  0.4586126  )
       260           N   tau( 260) = (  0.4666666  0.3333334  0.7919459  )
       261           N   tau( 261) = (  0.4666666  0.5333334  0.1252792  )
       262           N   tau( 262) = (  0.4666666  0.5333334  0.4586126  )
       263           N   tau( 263) = (  0.4666666  0.5333334  0.7919459  )
       264           N   tau( 264) = (  0.4666666  0.7333334  0.1252792  )
       265           N   tau( 265) = (  0.4666666  0.7333334  0.4586126  )
       266           N   tau( 266) = (  0.4666666  0.7333334  0.7919459  )
       267           N   tau( 267) = (  0.4666666  0.9333334  0.1252792  )
       268           N   tau( 268) = (  0.4666666  0.9333334  0.4586126  )
       269           N   tau( 269) = (  0.4666666  0.9333334  0.7919459  )
       270           N   tau( 270) = (  0.6666666  0.1333334  0.1252792  )
       271           N   tau( 271) = (  0.6666666  0.1333334  0.4586126  )
       272           N   tau( 272) = (  0.6666666  0.1333334  0.7919459  )
       273           N   tau( 273) = (  0.6666666  0.3333334  0.1252792  )
       274           N   tau( 274) = (  0.6666666  0.3333334  0.4586126  )
       275           N   tau( 275) = (  0.6666666  0.3333334  0.7919459  )
       276           N   tau( 276) = (  0.6666666  0.5333334  0.1252792  )
       277           N   tau( 277) = (  0.6666666  0.5333334  0.4586126  )
       278           N   tau( 278) = (  0.6666666  0.5333334  0.7919459  )
       279           N   tau( 279) = (  0.6666666  0.7333334  0.1252792  )
       280           N   tau( 280) = (  0.6666666  0.7333334  0.4586126  )
       281           N   tau( 281) = (  0.6666666  0.7333334  0.7919459  )
       282           N   tau( 282) = (  0.6666666  0.9333334  0.1252792  )
       283           N   tau( 283) = (  0.6666666  0.9333334  0.4586126  )
       284           N   tau( 284) = (  0.6666666  0.9333334  0.7919459  )
       285           N   tau( 285) = (  0.8666666  0.1333334  0.1252792  )
       286           N   tau( 286) = (  0.8666666  0.1333334  0.4586126  )
       287           N   tau( 287) = (  0.8666666  0.1333334  0.7919459  )
       288           N   tau( 288) = (  0.8666666  0.3333334  0.1252792  )
       289           N   tau( 289) = (  0.8666666  0.3333334  0.4586126  )
       290           N   tau( 290) = (  0.8666666  0.3333334  0.7919459  )
       291           N   tau( 291) = (  0.8666666  0.5333334  0.1252792  )
       292           N   tau( 292) = (  0.8666666  0.5333334  0.4586126  )
       293           N   tau( 293) = (  0.8666666  0.5333334  0.7919459  )
       294           N   tau( 294) = (  0.8666666  0.7333334  0.1252792  )
       295           N   tau( 295) = (  0.8666666  0.7333334  0.4586126  )
       296           N   tau( 296) = (  0.8666666  0.7333334  0.7919459  )
       297           N   tau( 297) = (  0.8666666  0.9333334  0.1252792  )
       298           N   tau( 298) = (  0.8666666  0.9333334  0.4586126  )
       299           N   tau( 299) = (  0.8666666  0.9333334  0.7919459  )
       300           Ga  tau( 300) = (  0.1333334  0.0666666  0.2919459  )

     number of k points=     6  Gaussian smearing, width (Ry)=  0.0100
                       cart. coord. in units 2pi/alat
        k(    1) = (   0.0000000   0.0000000   0.0000000), wk =   0.2500000
        k(    2) = (   0.0000000   0.0000000  -0.5112854), wk =   0.2500000
        k(    3) = (   0.0000000  -0.5773503   0.0000000), wk =   0.5000000
        k(    4) = (   0.0000000  -0.5773503  -0.5112854), wk =   0.5000000
        k(    5) = (  -0.5000000  -0.2886751   0.0000000), wk =   0.2500000
        k(    6) = (  -0.5000000  -0.2886751  -0.5112854), wk =   0.2500000

                       cryst. coord.
        k(    1) = (   0.0000000   0.0000000   0.0000000), wk =   0.2500000
        k(    2) = (   0.0000000   0.0000000  -0.5000000), wk =   0.2500000
        k(    3) = (   0.0000000  -0.5000000   0.0000000), wk =   0.5000000
        k(    4) = (   0.0000000  -0.5000000  -0.5000000), wk =   0.5000000
        k(    5) = (  -0.5000000  -0.0000000   0.0000000), wk =   0.2500000
        k(    6) = (  -0.5000000  -0.0000000  -0.5000000), wk =   0.2500000

     Dense  grid:  2698283 G-vectors     FFT dimensions: ( 192, 192, 180)

     Smooth grid:  1930731 G-vectors     FFT dimensions: ( 180, 180, 160)

     Dynamical RAM for                 wfc:      93.54 MB

     Dynamical RAM for     wfc (w. buffer):     280.61 MB

     Dynamical RAM for           str. fact:       1.29 MB

     Dynamical RAM for           local pot:       0.00 MB

     Dynamical RAM for          nlocal pot:     224.93 MB

     Dynamical RAM for                qrad:       3.00 MB

     Dynamical RAM for          rho,v,vnew:       4.46 MB

     Dynamical RAM for               rhoin:       1.49 MB

     Dynamical RAM for            rho*nmix:      10.29 MB

     Dynamical RAM for           G-vectors:       2.64 MB

     Dynamical RAM for          h,s,v(r/c):    1936.43 MB

     Dynamical RAM for          <psi|beta>:      97.01 MB

     Dynamical RAM for                 psi:     374.15 MB

     Dynamical RAM for                hpsi:     374.15 MB

     Dynamical RAM for                spsi:     374.15 MB

     Dynamical RAM for      wfcinit/wfcrot:     247.60 MB

     Dynamical RAM for           addusdens:      54.68 MB

     Dynamical RAM for          addusforce:     103.36 MB

     Dynamical RAM for         addusstress:      32.57 MB

     Estimated static dynamical RAM per process >     524.56 MB

     Estimated max dynamical RAM per process >       3.60 GB

     Estimated total dynamical RAM >     920.76 GB

     Atomic positions and unit cell read from directory:
     ./GaN.save/
     Atomic positions from file used, from input discarded
 

     Check: negative core charge=   -0.000003

     The initial density is read from file :
     ./GaN.save/charge-density



     %%%%%%%%%%%%%%%%%%%%%%%%%%%%%%%%%%%%%%%%%%%%%%%%%%%%%%%%%%%%%%%%%%%%%%%%
     %                                                                      %
     % You are using vdW-DF, which was implemented by the Thonhauser group. %
     % Please cite the following two papers that made this development      %
     % possible and the two reviews that describe the various versions:     %
     %                                                                      %
     %   T. Thonhauser et al., PRL 115, 136402 (2015).                      %
     %   T. Thonhauser et al., PRB 76, 125112 (2007).                       %
     %   K. Berland et al., Rep. Prog. Phys. 78, 066501 (2015).             %
     %   D.C. Langreth et al., J. Phys.: Condens. Matter 21, 084203 (2009). %
     %                                                                      %
     % If you are calculating stress with vdW-DF, please also cite:         %
     %                                                                      %
     %   R. Sabatini et al., J. Phys.: Condens. Matter 24, 424209 (2012).   %
     %                                                                      %
     %%%%%%%%%%%%%%%%%%%%%%%%%%%%%%%%%%%%%%%%%%%%%%%%%%%%%%%%%%%%%%%%%%%%%%%%

     %%%%%%%%%%%%%%%%%%%%%%%%%%%%%%%%%%%%%%%%%%%%%%%%%%%%%%%%%%%%%%%%%%%%%%%%
     %                                                                      %
     %  vdW-DF NEWS:                                                        %
     %                                                                      %
     %  * vdW-DF3 is now available. DOI: 10.1021/acs.jctc.0c00471           %
     %    use with input_dft = 'vdW-DF3-opt1' or 'vdW-DF3-opt2'             %
     %                                                                      %
     %  * Unscreened and range-separated vdW-DF hybrid functionals          %
     %    DOI: 10.1063/1.4986522 and 10.1088/1361-648X/ac2ad2               %
     %    use with input_dft = 'vdW-DF-cx0' (etc) and 'vdW-DF-ahcx'         %
     %                                                                      %
     %%%%%%%%%%%%%%%%%%%%%%%%%%%%%%%%%%%%%%%%%%%%%%%%%%%%%%%%%%%%%%%%%%%%%%%%


     Carrying out vdW-DF run using the following parameters:
     Nqs    =  20  Npoints =  1024  r_max =  100.000
     q_mesh =  0.00001000  0.04494208  0.09755937  0.15916263
               0.23128650  0.31572767  0.41458969  0.53033537
               0.66584808  0.82450364  1.01025438  1.22772762
               1.48234092  1.78043706  2.12944203  2.53805004
               3.01644009  3.57652955  4.23227104  5.00000000


     -----------------------------------------------
     Non-local corr. energy    =      82.11852527 Ry
     -----------------------------------------------

     Starting wfcs from file
     Checking if some PAW data can be deallocated... 
       PAW data deallocated on  149 nodes for type:  1
       PAW data deallocated on  107 nodes for type:  2
     Calculation restarted from scf iteration #     5

     total cpu time spent up to now is        9.4 secs

     Self-consistent Calculation

     iteration #  5     ecut=    70.00 Ry     beta= 0.70
     Davidson diagonalization with overlap

---- Real-time Memory Report at c_bands before calling an iterative solver
           302 MiB given to the printing process from OS
             0 MiB allocation reported by mallinfo(arena+hblkhd)
       1995004 MiB available memory on the node where the printing process lives
------------------
     ethr =  1.68E-09,  avg # of iterations = 16.7


     -----------------------------------------------
     Non-local corr. energy    =      82.11852175 Ry
     -----------------------------------------------


     total cpu time spent up to now is     1635.7 secs

     total energy              =  -47096.73182248 Ry
     estimated scf accuracy    <       0.00003427 Ry

     iteration #  6     ecut=    70.00 Ry     beta= 0.70
     Davidson diagonalization with overlap

---- Real-time Memory Report at c_bands before calling an iterative solver
          2487 MiB given to the printing process from OS
             0 MiB allocation reported by mallinfo(arena+hblkhd)
       1899510 MiB available memory on the node where the printing process lives
------------------
     ethr =  1.26E-09,  avg # of iterations =  1.0


     -----------------------------------------------
     Non-local corr. energy    =      82.11851960 Ry
     -----------------------------------------------


     total cpu time spent up to now is     1901.5 secs

     total energy              =  -47096.73182606 Ry
     estimated scf accuracy    <       0.00002331 Ry

     iteration #  7     ecut=    70.00 Ry     beta= 0.70
     Davidson diagonalization with overlap

---- Real-time Memory Report at c_bands before calling an iterative solver
          2487 MiB given to the printing process from OS
             0 MiB allocation reported by mallinfo(arena+hblkhd)
       1878767 MiB available memory on the node where the printing process lives
------------------
     ethr =  8.60E-10,  avg # of iterations = 10.7


     -----------------------------------------------
     Non-local corr. energy    =      82.11851797 Ry
     -----------------------------------------------


     total cpu time spent up to now is     2901.8 secs

     total energy              =  -47096.73182931 Ry
     estimated scf accuracy    <       0.00001209 Ry

     iteration #  8     ecut=    70.00 Ry     beta= 0.70
     Davidson diagonalization with overlap

---- Real-time Memory Report at c_bands before calling an iterative solver
          2487 MiB given to the printing process from OS
             0 MiB allocation reported by mallinfo(arena+hblkhd)
       1878614 MiB available memory on the node where the printing process lives
------------------
     ethr =  4.46E-10,  avg # of iterations =  8.8


     -----------------------------------------------
     Non-local corr. energy    =      82.11852136 Ry
     -----------------------------------------------


     total cpu time spent up to now is     3934.5 secs

     total energy              =  -47096.73182981 Ry
     estimated scf accuracy    <       0.00000098 Ry

     iteration #  9     ecut=    70.00 Ry     beta= 0.70
     Davidson diagonalization with overlap

---- Real-time Memory Report at c_bands before calling an iterative solver
          2487 MiB given to the printing process from OS
             0 MiB allocation reported by mallinfo(arena+hblkhd)
       1878443 MiB available memory on the node where the printing process lives
------------------
     ethr =  3.62E-11,  avg # of iterations = 16.2


     -----------------------------------------------
     Non-local corr. energy    =      82.11852854 Ry
     -----------------------------------------------


     total cpu time spent up to now is     7262.5 secs

     total energy              =  -47096.73183004 Ry
     estimated scf accuracy    <       0.00000012 Ry

     iteration # 10     ecut=    70.00 Ry     beta= 0.70
     Davidson diagonalization with overlap

---- Real-time Memory Report at c_bands before calling an iterative solver
          3111 MiB given to the printing process from OS
             0 MiB allocation reported by mallinfo(arena+hblkhd)
       1877725 MiB available memory on the node where the printing process lives
------------------
     ethr =  4.49E-12,  avg # of iterations = 15.5


     -----------------------------------------------
     Non-local corr. energy    =      82.11853857 Ry
     -----------------------------------------------


     total cpu time spent up to now is     9143.8 secs

     End of self-consistent calculation

          k = 0.0000 0.0000 0.0000 (241213 PWs)   bands (ev):

    -6.8386  -6.6346  -6.6251  -6.6144  -6.6142  -6.6122  -6.5989  -6.5987
    -6.5634  -6.4822  -6.4819  -6.4760  -6.4727  -6.4696  -6.4694  -6.4595
    -6.4593  -6.4484  -6.4481  -6.4427  -6.4174  -6.4133  -6.4108  -6.4079
    -6.4073  -6.4059  -6.4056  -6.4046  -6.3944  -6.3928  -6.3919  -6.3909
    -6.3837  -6.3836  -6.3693  -6.3669  -6.3614  -6.3613  -6.3610  -6.3561
    -6.3555  -6.3547  -6.3516  -6.3503  -6.3502  -6.3497  -6.3497  -6.3495
    -6.3473  -6.3472  -6.3462  -6.3458  -6.3457  -6.3438  -6.3435  -6.3428
    -6.3419  -6.3388  -6.3383  -6.3378  -6.3374  -6.3366  -6.3365  -6.3342
    -6.3342  -6.3336  -6.3328  -6.3327  -6.3313  -6.3305  -6.3302  -6.3288
    -6.3286  -6.3247  -6.3244  -6.3240  -6.3227  -6.3225  -6.3221  -6.3212
    -6.3212  -6.3208  -6.3205  -6.3188  -6.3185  -6.3178  -6.3175  -6.3163
    -6.3155  -6.3148  -6.3133  -6.3124  -6.3119  -6.3114  -6.3095  -6.3070
    -6.3057  -6.3056  -6.3039  -6.3038  -6.3029  -6.3020  -6.3014  -6.2996
    -6.2995  -6.2986  -6.2977  -6.2973  -6.2973  -6.2942  -6.2939  -6.2908
    -6.2906  -6.2899  -6.2876  -6.2869  -6.2857  -6.2853  -6.2837  -6.2793
    -6.2792  -6.2755  -6.2741  -6.2735  -6.2713  -6.2675  -6.2670  -6.2624
    -6.2622  -6.2611  -6.2593  -6.2587  -6.2546  -6.2542  -6.2527  -6.2489
    -6.2361  -6.2340  -6.2338  -6.2203  -6.2053  -6.2049  -6.1984  -6.1809
    -6.1809  -6.1630  -6.1617  -6.1170  -6.1163  -5.2458  -5.2441  -5.2440
    -5.2304  -5.2304  -5.2288  -5.2286  -5.2286  -5.2276  -5.2269  -5.2231
    -5.2231  -5.2182  -5.2182  -5.2166  -5.2165  -5.2146  -5.2146  -5.2123
    -5.2105  -5.2103  -5.2090  -5.2090  -5.2086  -5.2085  -5.2083  -5.2069
    -5.2069  -5.2062  -5.2045  -5.2045  -5.2041  -5.2040  -5.2020  -5.2016
    -5.2015  -5.2014  -5.2005  -5.2005  -5.1995  -5.1985  -5.1984  -5.1974
    -5.1974  -5.1971  -5.1963  -5.1955  -5.1927  -5.1926  -5.1923  -5.1923
    -5.1906  -5.1905  -5.1905  -5.1889  -5.1882  -5.1881  -5.1872  -5.1872
    -5.1853  -5.1852  -5.1843  -5.1822  -5.1822  -5.1811  -5.1810  -5.1806
    -5.1798  -5.1792  -5.1782  -5.1781  -5.1781  -5.1773  -5.1769  -5.1768
    -5.1762  -5.1757  -5.1757  -5.1750  -5.1750  -5.1737  -5.1737  -5.1736
    -5.1733  -5.1717  -5.1716  -5.1716  -5.1713  -5.1701  -5.1701  -5.1700
    -5.1691  -5.1690  -5.1683  -5.1682  -5.1674  -5.1673  -5.1671  -5.1663
    -5.1663  -5.1662  -5.1657  -5.1656  -5.1642  -5.1642  -5.1635  -5.1632
    -5.1624  -5.1620  -5.1619  -5.1619  -5.1599  -5.1598  -5.1598  -5.1590
    -5.1590  -5.1584  -5.1584  -5.1570  -5.1562  -5.1558  -5.1558  -5.1552
    -5.1546  -5.1546  -5.1539  -5.1535  -5.1524  -5.1523  -5.1517  -5.1516
    -5.1509  -5.1505  -5.1505  -5.1499  -5.1496  -5.1496  -5.1484  -5.1483
    -5.1480  -5.1472  -5.1467  -5.1467  -5.1451  -5.1451  -5.1450  -5.1449
    -5.1437  -5.1431  -5.1431  -5.1428  -5.1421  -5.1421  -5.1415  -5.1413
    -5.1413  -5.1398  -5.1397  -5.1389  -5.1389  -5.1382  -5.1369  -5.1368
    -5.1361  -5.1359  -5.1359  -5.1357  -5.1348  -5.1347  -5.1346  -5.1321
    -5.1320  -5.1313  -5.1307  -5.1307  -5.1307  -5.1298  -5.1296  -5.1285
    -5.1280  -5.1279  -5.1275  -5.1264  -5.1262  -5.1261  -5.1251  -5.1250
    -5.1227  -5.1218  -5.1217  -5.1209  -5.1208  -5.1204  -5.1181  -5.1173
    -5.1172  -5.1171  -5.1165  -5.1165  -5.1165  -5.1139  -5.1139  -5.1127
    -5.1123  -5.1122  -5.1113  -5.1102  -5.1102  -5.1090  -5.1090  -5.1076
    -5.1074  -5.1056  -5.1052  -5.1052  -5.1045  -5.1045  -5.1029  -5.1029
    -5.1026  -5.1016  -5.0997  -5.0992  -5.0992  -5.0981  -5.0980  -5.0964
    -5.0956  -5.0938  -5.0931  -5.0918  -5.0918  -5.0910  -5.0909  -5.0882
    -5.0882  -5.0861  -5.0861  -5.0858  -5.0842  -5.0832  -5.0831  -5.0808
    -5.0807  -5.0804  -5.0804  -5.0796  -5.0791  -5.0789  -5.0789  -5.0788
    -5.0779  -5.0758  -5.0758  -5.0757  -5.0756  -5.0750  -5.0749  -5.0733
    -5.0732  -5.0725  -5.0724  -5.0722  -5.0722  -5.0716  -5.0716  -5.0706
    -5.0695  -5.0695  -5.0692  -5.0690  -5.0674  -5.0674  -5.0669  -5.0663
    -5.0662  -5.0661  -5.0655  -5.0655  -5.0653  -5.0648  -5.0648  -5.0643
    -5.0642  -5.0641  -5.0640  -5.0630  -5.0629  -5.0624  -5.0619  -5.0619
    -5.0605  -5.0602  -5.0602  -5.0593  -5.0593  -5.0586  -5.0585  -5.0584
    -5.0581  -5.0576  -5.0576  -5.0558  -5.0557  -5.0557  -5.0554  -5.0543
    -5.0543  -5.0542  -5.0525  -5.0525  -5.0521  -5.0520  -5.0513  -5.0509
    -5.0509  -5.0507  -5.0497  -5.0497  -5.0497  -5.0486  -5.0484  -5.0483
    -5.0476  -5.0476  -5.0473  -5.0473  -5.0471  -5.0457  -5.0456  -5.0451
    -5.0450  -5.0442  -5.0441  -5.0441  -5.0437  -5.0437  -5.0423  -5.0403
    -5.0403  -5.0403  -5.0399  -5.0395  -5.0395  -5.0383  -5.0377  -5.0376
    -5.0370  -5.0369  -5.0369  -5.0359  -5.0359  -5.0349  -5.0348  -5.0348
    -5.0343  -5.0340  -5.0340  -5.0333  -5.0333  -5.0326  -5.0317  -5.0316
    -5.0315  -5.0312  -5.0312  -5.0305  -5.0300  -5.0300  -5.0296  -5.0295
    -5.0284  -5.0284  -5.0284  -5.0277  -5.0271  -5.0271  -5.0270  -5.0251
    -5.0251  -5.0243  -5.0241  -5.0238  -5.0237  -5.0231  -5.0231  -5.0222
    -5.0220  -5.0220  -5.0217  -5.0212  -5.0204  -5.0203  -5.0202  -5.0194
    -5.0194  -5.0175  -5.0170  -5.0170  -5.0160  -5.0143  -5.0142  -5.0141
    -5.0141  -5.0132  -5.0124  -5.0123  -5.0118  -5.0118  -5.0110  -5.0110
    -5.0109  -5.0109  -5.0093  -5.0087  -5.0087  -5.0071  -5.0068  -5.0067
    -5.0067  -5.0063  -5.0053  -5.0051  -5.0050  -5.0048  -5.0047  -5.0047
    -5.0040  -5.0026  -5.0025  -5.0025  -5.0018  -5.0018  -5.0014  -5.0012
    -4.9996  -4.9996  -4.9991  -4.9990  -4.9987  -4.9984  -4.9978  -4.9977
    -4.9975  -4.9975  -4.9974  -4.9959  -4.9958  -4.9958  -4.9946  -4.9942
    -4.9941  -4.9940  -4.9932  -4.9931  -4.9926  -4.9918  -4.9918  -4.9914
    -4.9910  -4.9909  -4.9903  -4.9903  -4.9889  -4.9888  -4.9887  -4.9887
    -4.9884  -4.9882  -4.9877  -4.9858  -4.9858  -4.9852  -4.9852  -4.9835
    -4.9833  -4.9829  -4.9824  -4.9824  -4.9815  -4.9809  -4.9808  -4.9807
    -4.9802  -4.9798  -4.9797  -4.9793  -4.9793  -4.9790  -4.9789  -4.9772
    -4.9772  -4.9766  -4.9757  -4.9756  -4.9749  -4.9749  -4.9748  -4.9737
    -4.9728  -4.9724  -4.9724  -4.9706  -4.9706  -4.9706  -4.9702  -4.9702
    -4.9699  -4.9699  -4.9687  -4.9687  -4.9681  -4.9680  -4.9667  -4.9667
    -4.9664  -4.9658  -4.9654  -4.9649  -4.9648  -4.9634  -4.9633  -4.9628
    -4.9627  -4.9627  -4.9609  -4.9608  -4.9605  -4.9592  -4.9586  -4.9586
    -4.9581  -4.9580  -4.9578  -4.9574  -4.9572  -4.9572  -4.9564  -4.9543
    -4.9542  -4.9532  -4.9532  -4.9506  -4.9492  -4.9490  -4.9489  -4.9487
    -4.9487  -4.9482  -4.9470  -4.9469  -4.9452  -4.9450  -4.9447  -4.9446
    -4.9427  -4.9423  -4.9397  -4.9396  -4.9393  -4.9383  -4.9383  -4.9362
    -4.9361  -4.9357  -4.9340  -4.9309  -4.9309  -4.9290  -4.9270  -4.9270
    -4.9244  -4.9244  -4.9222  -4.9213  -4.9203  -4.9197  -4.9172  -4.9172
    -4.9168  -4.9165  -4.9100  -4.9094  -4.9092  -4.9009  -4.9006  -4.8868
    -4.8787  -4.8786  -4.8707  -4.8698  -4.8696  -4.8463  -4.8260  -4.8247
    -4.8245  -4.8137  -4.8130  -4.7795  -4.7752  -4.7472  -4.7452  -4.7446
    -4.7419  -4.7393  -4.7392  -4.7283  -4.7279  -4.7085  -4.7073  -4.6945
    -4.6939  -4.6855  -4.6811  -4.6796  -4.6766  -4.6561  -4.5770  -4.5769
    -4.5628  -4.4551  -4.4551  -4.2848  -4.2845  -4.2844  -4.2727  -4.2725
    -4.2602  -4.2426  -4.2280  -4.0612  -4.0611  -4.0445  -4.0427  -4.0427
    -4.0367  -4.0363  -4.0362  -4.0314  -4.0222  -4.0220  -4.0110  -3.9811
    -3.9810  -3.9749  -3.9613  -3.9612  -3.9469  -3.9265  -3.9249  -3.9228
    -3.9226  -3.9180  -3.9180  -3.9029  -3.9028  -3.8969  -3.8969  -3.8682
    -3.8508  -3.8506  -3.8200  -3.8196  -3.8173  -3.7744  -3.7682  -3.7681
    -3.7658  -3.7506  -3.7451  -3.7448  -3.7205  -3.7202  -3.6856  -3.6852
    -3.6769  -3.5597  -3.4594  -3.3513  -3.3501  -3.3499  -3.3492  -3.3491
    -3.3487  -3.3482  -3.3482  -3.3393  -3.3393  -3.3358  -3.3345  -3.3343
    -3.3304  -3.3237  -3.3237  -3.3174  -3.3055  -3.2503  -3.2502  -3.2436
    -3.2436  -3.2403  -3.2403  -3.2375  -3.2368  -3.2311  -3.2289  -3.2287
    -3.2285  -3.2282  -3.2245  -3.2243  -3.2240  -3.2175  -3.2175  -3.2153
    -3.2082  -3.2080  -3.1908  -3.1907  -3.1781  -3.1780  -3.1704  -3.1637
    -3.1634  -3.1176  -3.0624  -3.0210  -3.0205  -3.0204  -3.0190  -3.0189
    -3.0090  -3.0090  -3.0082  -2.9952  -2.9597  -2.9594  -2.9147  -2.9007
    -2.9006  -2.8886  -2.8884  -2.8871  -2.8851  -2.8835  -2.8833  -2.8738
    -2.8667  -2.8666  -2.8513  -2.8418  -2.8311  -2.8308  -2.8023  -2.8019
     2.0352   2.1186   2.5724   2.5725   2.5740   2.5996   2.5996   2.6333
     2.6341   2.6370   2.6374   2.6396   2.6426   2.6429   2.6452   2.6463
     2.6467   2.6502   2.6504   2.6525   2.6525   2.6531   2.6593   2.6594
     2.6660   2.6790   2.6886   2.6887   2.6933   2.7361   2.7366   2.7585
     2.8211   2.8218   2.8342   2.8488   2.8492   2.8511   2.9641   2.9714
     2.9714   2.9919   2.9958   2.9961   3.0192   3.0255   3.0257   3.0273
     3.0274   3.0425   3.0436   3.0437   3.0512   3.0770   3.1208   3.1209
     3.1566   3.1607   3.1609   3.1894   3.1894   3.2135   3.2646   3.2646
     3.2679   3.2679   3.2710   3.2819   3.2888   3.2909   3.2910   3.2975
     3.2978   3.3064   3.3112   3.3235   3.3313   3.3317   3.3343   3.3347
     3.3624   3.3630   3.4487   3.4846   3.4846   3.4882   3.6272   3.6366
     3.7238   3.7240   3.7259   3.7303   3.7329   3.7329   3.7356   3.7376
     3.7378   3.7431   3.7629   3.7629   3.7671   3.7672   3.7945   3.7949
     3.8701   3.9031   3.9751   3.9758   3.9968   3.9980   3.9985   4.0016
     4.0210   4.0210   4.0267   4.0336   4.0336   4.0412   4.0555   4.0557
     4.0985   4.0985   4.1044   4.4227   4.5695   4.5699   4.5799   4.5805
     4.5806   4.6157   4.6255   4.6270   4.6277   4.6453   4.6460   4.6484
     4.6739   4.6739   4.6815   4.6822   4.7129   4.7429   4.7431   4.7432
     4.8077   4.8078   4.8544   4.9339   5.0250   5.0309   5.0310   5.0496
     5.0517   5.0519   5.0588   5.0588   5.0690   5.1045   5.1418   5.1420
     5.5027   5.5028   5.5030   5.5120   5.5148   5.5149   5.5202   5.5246
     5.5248   5.5276   5.5276   5.5475   5.5523   5.5524   5.5584   5.5585
     5.6024   5.6795   5.7195   5.7198   5.7348   5.7513   5.7518   5.8785
     5.8877   5.9139   5.9140   5.9194   5.9195   5.9333   5.9377   5.9381
     5.9511   5.9535   5.9537   5.9545   5.9650   5.9653   5.9709   5.9710
     5.9823   6.0141   6.0163   6.0186   6.0260   6.0261   6.0315   6.0316
     6.0335   6.0337   6.0350   6.0414   6.0416   6.0424   6.0579   6.0580
     6.0590   6.0645   6.0646   6.0674   6.0678   6.0779   6.0804   6.0817
     6.0818   6.0892   6.0892   6.0931   6.0935   6.1068   6.1275   6.1280
     6.1339   6.1341   6.2054   6.2260   6.2265   6.2509   6.3281   6.3343
     6.3348   6.3703   6.3706   6.3783   6.3798   6.3801   6.3818   6.3944
     6.4018   6.4022   6.4066   6.4067   6.4472   6.4744   6.4746   6.5007
     6.5231   6.5257   6.5356   6.5356   6.5473   6.5559   6.5560   6.5934
     6.5987   6.6029   6.6032   6.6200   6.6204   6.6530   6.6771   6.6844
     6.6847   6.6867   6.6868   6.6890   6.6893   6.6921   6.6964   6.6971
     6.7088   6.7090   6.7141   6.7215   6.7221   6.7234   6.7308   6.7515
     6.7515   6.7796   6.7869   6.7938   6.7950   6.7950   6.7963   6.7968
     6.8382   6.8384   6.8868   6.8886   6.9167   6.9182   6.9183   6.9227
     6.9301   6.9386   6.9386   6.9442   6.9442   7.0764   7.0765   7.1592
     7.1703   7.1722   7.1724   7.1925   7.1928   7.1960   7.1977   7.1980
     7.2274   7.2456   7.2457   7.2565   7.3321   7.3321   7.3368   7.3417
     7.3420   7.3498   7.3526   7.3527   7.3603   7.3606   7.3803   7.4120
     7.4302   7.4303   7.4304   7.4333   7.4335   7.4357   7.4443   7.4443
     7.4445   7.4507   7.4537   7.4538   7.4604   7.4687   7.4703   7.4703
     7.4708   7.4737   7.4741   7.4770   7.4770   7.4846   7.4876   7.4894
     7.4895   7.4928   7.4948   7.4951   7.4967   7.4972   7.5030   7.5032
     7.5222   7.5228   7.5283   7.5321   7.5413   7.5420   7.5507   7.5644
     7.6153   7.6154   7.6287   7.6359   7.6360   7.6636   7.6715   7.6716
     7.6735   7.6781   7.6783   7.6789   7.6893   7.6895   7.6934   7.7070
     7.7070   7.7249   7.7251   7.7556   7.7618   7.7619   7.7633   7.7634
     7.7678   7.7805   7.7849   7.7851   7.8336   7.8337   7.8771   7.9022
     7.9033   7.9247   7.9310   7.9315   7.9942   8.0418   8.0419   8.0605
     8.0607   8.0874   8.0876   8.1075   8.1245   8.1395   8.1404   8.1405
     8.1505   8.1506   8.1532   8.1550   8.1552   8.3146   8.3626   8.3715
     8.3715   8.3947   8.3947   8.4294   8.4295   8.4766   8.5012   8.5018
     8.5018   8.5390   8.5392   8.5750   8.5754   8.7525   8.7969   8.7970
    10.2533  10.3743  10.4184  10.4197  12.0859  12.0890  12.2620  12.2759
    12.2760  12.3230  12.3232  12.3397  12.7129  12.8392  12.8552  12.9068
    12.9230  12.9234  12.9457  12.9459  12.9518  12.9628  12.9686  12.9688
    12.9883  12.9885  13.0036  13.0235  13.0376  13.0379  13.0379  13.0450
    13.0452  13.0532  13.0535  13.0699  13.0701  13.1392  13.2715  13.6718
    13.7032  13.7035  13.7096  13.7103  13.7454  13.8450  13.8458  13.8545
    13.8758  13.8761  13.8954  13.8962  13.8964  13.9086  13.9088  13.9218
    13.9358  13.9393  13.9396  13.9405  13.9478  13.9478  13.9552  13.9554
    13.9658  13.9700  13.9721  13.9723  13.9944  14.0255  14.0331  14.0332
    14.0452  14.0454  14.0546  14.0604  14.0645  14.0649  14.0730  14.0947
    14.0949  14.0975  14.1055  14.1057  14.1084  14.1364  14.1442  14.1443
    14.1722  14.1868  14.1869  14.1951  14.1952  14.2132  14.2181  14.2182
    14.2367  14.2368  14.2391  14.2458  14.2522  14.2528  14.2607  14.2608
    14.2898  14.2999  14.3004  14.3024  14.3796  14.3803  14.5335  14.5336
    14.5344  14.5366  14.5672  14.5679  14.8163  14.8629  14.8632  14.9335
    14.9341  14.9410  14.9612  14.9614  14.9711  14.9827  14.9833  14.9881
    15.0050  15.0602  15.0604  15.0768  15.1115  15.1145  15.1146  15.1358
    15.1363  15.1602  15.1618  15.1673  15.1711  15.1776  15.1777  15.1817
    15.2106  15.2108  15.2492  15.2492  15.2693  15.3134  15.3184  15.3187
    15.4225  15.4227  15.4452  15.4482  15.4484  15.5077  15.6140  15.6520
    15.7101  15.7102  15.7921  15.8019  15.8026  15.8151  15.8760  15.8762
    15.9060  15.9064  15.9401  15.9431  15.9690  15.9866  15.9871  15.9928
    15.9932  16.0294  16.0296  16.0472  16.0497  16.0510  16.0511  16.1024
    16.1432  16.1530  16.1533  16.1659  16.1660  16.1759  16.1769  16.1772
    16.1833  16.1834  16.1897  16.1899  16.1938  16.2029  16.2062  16.2067
    16.2071  16.2086  16.2132  16.2134  16.2136  16.2142  16.2219  16.2463
    16.2466  16.2522  16.2529  16.2599  16.2624  16.2633  16.2667  16.2902
    16.2936  16.2943  16.3144  16.3224  16.3225  16.3347  16.3406  16.3459
    16.3464  16.3650  16.3744  16.3746  16.3922  16.3929  16.4068  16.4070
    16.4091  16.4157  16.4162  16.4220  16.4234  16.4397  16.4398  16.4403
    16.4439  16.4444  16.4644  16.4713  16.4716  16.4889  16.4892  16.4978
    16.5031  16.5035  16.5204  16.5212  16.5213  16.5353  16.5355  16.5355
    16.5449  16.5578  16.5733  16.5962  16.5966  16.6173  16.6176  16.6563
    16.6813  16.6827  16.6828  16.7101  16.7161  16.7162  16.7201  16.7202
    16.7489  16.7556

     occupation numbers 
     1.0000   1.0000   1.0000   1.0000   1.0000   1.0000   1.0000   1.0000
     1.0000   1.0000   1.0000   1.0000   1.0000   1.0000   1.0000   1.0000
     1.0000   1.0000   1.0000   1.0000   1.0000   1.0000   1.0000   1.0000
     1.0000   1.0000   1.0000   1.0000   1.0000   1.0000   1.0000   1.0000
     1.0000   1.0000   1.0000   1.0000   1.0000   1.0000   1.0000   1.0000
     1.0000   1.0000   1.0000   1.0000   1.0000   1.0000   1.0000   1.0000
     1.0000   1.0000   1.0000   1.0000   1.0000   1.0000   1.0000   1.0000
     1.0000   1.0000   1.0000   1.0000   1.0000   1.0000   1.0000   1.0000
     1.0000   1.0000   1.0000   1.0000   1.0000   1.0000   1.0000   1.0000
     1.0000   1.0000   1.0000   1.0000   1.0000   1.0000   1.0000   1.0000
     1.0000   1.0000   1.0000   1.0000   1.0000   1.0000   1.0000   1.0000
     1.0000   1.0000   1.0000   1.0000   1.0000   1.0000   1.0000   1.0000
     1.0000   1.0000   1.0000   1.0000   1.0000   1.0000   1.0000   1.0000
     1.0000   1.0000   1.0000   1.0000   1.0000   1.0000   1.0000   1.0000
     1.0000   1.0000   1.0000   1.0000   1.0000   1.0000   1.0000   1.0000
     1.0000   1.0000   1.0000   1.0000   1.0000   1.0000   1.0000   1.0000
     1.0000   1.0000   1.0000   1.0000   1.0000   1.0000   1.0000   1.0000
     1.0000   1.0000   1.0000   1.0000   1.0000   1.0000   1.0000   1.0000
     1.0000   1.0000   1.0000   1.0000   1.0000   1.0000   1.0000   1.0000
[...]
Ga           14.6136235126        0.9508348583        2.6317843409
Ga           14.5629026403        0.9263072585        7.9750499568
Ga           14.5899515421        0.9326862848       13.1902834288
Ga           12.9794794527        3.7467112405        2.6358468562
Ga           12.9737320373        3.7495324352        7.9342319739
Ga           12.9743418514        3.7496475507       13.2209669561
Ga           11.3566894350        6.5567862317        2.6376749939
Ga           11.3552811473        6.5559731564        7.9312571857
Ga           11.3558185027        6.5562833987       13.2191962044
Ga            9.7344881151        9.3672011076        2.6358468562
Ga            9.7340576337        9.3608131025        7.9342319739
Ga            9.7344622336        9.3612836593       13.2209669561
Ga            8.1302601722       12.1803495680        2.6317843409
Ga            8.0836582116       12.1486878040        7.9750499568
Ga            8.1027070613       12.1689233269       13.1902834288
Ga           -0.2057734691        1.9918966021        5.4130834362
Ga            0.0013086752        1.8718447161       10.5544802452
Ga           -0.0329331028        1.8920214131       15.7691924924
Ga           -1.6574674584        4.7309078597        5.2894424132
Ga           -1.6323789699        4.6922029618       10.5835321727
Ga           -1.6221288946        4.6858375616       15.8576083848
Ga           -3.2457121978        7.4922943780        5.2853166643
Ga           -3.2443305613        7.4930920662       10.5787827476
Ga           -3.2447262986        7.4928635871       15.8609395068
Ga           -4.8430207025       10.2484479288        5.2894424132
Ga           -4.8639958830       10.2895276461       10.5835321727
Ga           -4.8643834437       10.3015871718       15.8576083848
Ga           -6.4892270380       12.8751574308        5.4130834362
Ga           -6.4896539489       13.1145217715       10.5544802452
Ga           -6.4893013058       13.0747791734       15.7691924924
Ga            3.4492844444        1.9914479814        5.4122335986
Ga            3.2430258140        1.8723645056       10.5549164493
Ga            3.2753412293        1.8910218193       15.7692285227
Ga            1.6234541100        4.6678996617        5.2873013007
Ga            1.6226617855        4.7023563705       10.5867191081
Ga            1.6231084656        4.6800194589       15.8523025226
Ga            0.0017876591        7.4945997019        5.2801243247
Ga            0.0008009170        7.4972351551       10.5756877546
Ga            0.0008085017        7.4944079321       15.8655749072
Ga           -1.6199658002       10.3035590908        5.2801243247
Ga           -1.6181768019       10.3013868205       10.5756877546
Ga           -1.6206214565       10.3028070006       15.8655749072
Ga           -3.2571266184       13.1213134540        5.2873013007
Ga           -3.2276823956       13.1033989264       10.5867191081
Ga           -3.2468033883       13.1149542186       15.8523025226
Ga            6.5494934014        1.8803788575        5.2896466577
Ga            6.5014877641        1.8768824706       10.5837301028
Ga            6.4905589721        1.8716741340       15.8577513264
Ga            4.9032002400        4.7318422573        5.2896466577
Ga            4.8761694616        4.6920163493       10.5837301028
Ga            4.8661945137        4.6851559061       15.8577513264
Ga            3.2431491005        7.4940420730        5.2797148071
Ga            3.2441390083        7.4965490953       10.5755640840
Ga            3.2444051821        7.4937413632       15.8655122895
Ga            1.6216460864       10.3024649936        5.2816268595
Ga            1.6219560207       10.3026439343       10.5729894415
Ga            1.6221195272       10.3027383348       15.8632711297
Ga            0.0002319996       13.1109392565        5.2797148071
Ga            0.0028980985       13.1105430306       10.5755640840
Ga            0.0005996181       13.1121774099       15.8655122895
Ga            9.7336688695        1.8748597944        5.2855996470
Ga            9.7337927376        1.8731126839       10.5791262366
Ga            9.7337370162        1.8736312126       15.8609793550
Ga            8.1207604208        4.6885258939        5.2839766954
Ga            8.1138191153        4.6845183294       10.5762757361
Ga            8.1116857364        4.6832866225       15.8619375095
Ga            6.4905083252        7.4921786344        5.2855996470
Ga            6.4890572172        7.4931594625       10.5791262366
Ga            6.4894784155        7.4928519420       15.8609793550
Ga            4.8643754248       10.3026820722        5.2797633475
Ga            4.8633311321       10.3008014647       10.5757204974
Ga            4.8662825372       10.3023845093       15.8654431358
Ga            3.2431987512       13.1106424391        5.2797633475
Ga            3.2410479510       13.1106783588       10.5757204974
Ga            3.2438946104       13.1124428283       15.8654431358
Ga           12.9171630915        1.8784953671        5.2897907990
Ga           12.9658139376        1.8775038059       10.5840731048
Ga           12.9763454428        1.8721242389       15.8577751257
Ga           11.3494530264        4.6879636476        5.2839520094
Ga           11.3545497770        4.6845483816       10.5763367152
Ga           11.3565077959        4.6833859363       15.8622081486
Ga            9.7346198040        7.4849368348        5.2839520094
Ga            9.7342104722        7.4910583833       10.5763367152
Ga            9.7341827745        7.4933353000       15.8622081486
Ga            8.0854039346       10.2473477170        5.2897907990
Ga            8.1088706404       10.2899763663       10.5840731048
Ga            8.1094775514       10.3017867009       15.8577751257
Ga            6.5010682367       13.1196006857        5.2869177528
Ga            6.4729006856       13.1033381425       10.5870366454
Ga            6.4922797506       13.1145266509       15.8525103360
N             1.6221386323        0.9365407051        9.9005173201
N             1.6214010246        0.9361148471       15.1721256886
N            -0.0548913867        3.8281162553        4.6301173163
N            -0.0022364494        3.7675799180        9.9550786519
N            -0.0023061743        3.7731482294       15.1675077823
N            -1.6319413689        6.5841715671        4.6259082438
N            -1.6228267187        6.5625787666        9.9250450319
N            -1.6222343370        6.5613324995       15.2088570726
N            -3.2252806134        9.3439160923        4.6259082438
N            -3.2394232021        9.3626060112        9.9250450319
N            -3.2402063102        9.3637421625       15.2088570726
N            -4.8235695365       12.0877090959        4.6301173163
N            -4.8496680738       12.1635777778        9.9550786519
N            -4.8448806371       12.1607332386       15.1675077823
N             4.9659604235        0.9446987502        4.6300758887
N             4.8862263310        0.9280783449        9.9547865217
N             4.8905259004        0.9258648048       15.1674849203
N             3.3011146021        3.8282962995        4.6300758887
N             3.2468538627        3.7675547525        9.9547865217
N             3.2470866655        3.7723850589       15.1674849203
N             1.6224101092        6.5560409520        4.6361524018
N             1.6224206092        6.5672776740        9.9181007724
N             1.6225620163        6.5614729555       15.2126415348
N             0.0029496213        9.3679060039        4.6311924042
N             0.0014319242        9.3670297611        9.9195657959
N             0.0010824569        9.3668279960       15.2100426049
N            -1.6224667018       12.1763324529        4.6361524018
N            -1.6127301650       12.1707231851        9.9181007724
N            -1.6176864952       12.1737480066       15.2126415348
N             8.1407799355        0.9313384612        4.6256242833
N             8.1170167456        0.9343231227        9.9251155285
N             8.1154488690        0.9346724746       15.2088583508
N             6.5058696907        3.7561641464        4.6335380021
N             6.4926072720        3.7485070854        9.9252681600
N             6.4910139415        3.7475871756       15.2071937686
N             4.8769540086        6.5844507939        4.6256242833
N             4.8676572063        6.5623789371        9.9251155285
N             4.8671758156        6.5608464402       15.2088583508
N             3.2409878616        9.3677303173        4.6311996031
N             3.2431561292        9.3667988207        9.9197347057
N             3.2439083628        9.3666636993       15.2102745288
N             1.6218165924       12.1722172219        4.6311996031
N             1.6220940265       12.1745607449        9.9197347057
N             1.6223531247       12.1752797591       15.2102745288
N            11.3258024832        0.9306782587        4.6253779107
N            11.3502660443        0.9343595798        9.9253491538
N            11.3517723281        0.9347547995       15.2088495504
N             9.7346124208        3.7474738473        4.6308031697
N             9.7340459749        3.7461805309        9.9234080286
N             9.7340254443        3.7473338954       15.2079434337
N             8.1127150359        6.5566825225        4.6308031697
N             8.1113117681        6.5568386242        9.9234080286
N             8.1123003457        6.5562441620       15.2079434337
N             6.4688935302        9.3430913332        4.6253779107
N             6.4843134285        9.3624367380        9.9253491538
N             6.4854088407        9.3635436082       15.2088495504
N             4.8661162060       12.1756565408        4.6360388072
N             4.8572105526       12.1705148594        9.9185369539
N             4.8626123829       12.1736336076       15.2129036556
N            14.5009745567        0.9435917616        4.6302492453
N            14.5806873307        0.9277953914        9.9547940781
N            14.5761501994        0.9256133003       15.1674480310
N            12.9631222071        3.7547816734        4.6334928416
N            12.9750047320        3.7484701195        9.9248040005
N            12.9767039198        3.7477439989       15.2070932447
N            11.3557229526        6.5562282328        4.6305485590
N            11.3566219632        6.5567472768        9.9231189294
N            11.3556891940        6.5562087423       15.2077676218
N             9.7332986922        9.3490001009        4.6334928416
N             9.7337739887        9.3624464463        9.9248040005
N             9.7339947436        9.3642810464       15.2070932447
N             8.0676629885       12.0864142589        4.6302492453
N             8.0938393176       12.1633457312        9.9547940781
N             8.0896810056       12.1605075058       15.1674480310
N            -0.0673712850        1.9120444645        1.8511596111
N            -0.0679698944        1.9109879421        7.3955824854
N            -0.0055679180        1.8762971632       12.5493283738
N            -1.6268504745        4.6898975095        1.9808583921
N            -1.6341972145        4.6980104855        7.2850435760
N            -1.6335399159        4.6911361680       12.5652335149
N            -3.2458660359        7.4922055595        1.9831873781
N            -3.2473388764        7.4913552147        7.2780179586
N            -3.2449476407        7.4927357952       12.5675430317
N            -4.8632282156       10.2954681897        1.9808583921
N            -4.8598755423       10.2850492382        7.2850435760
N            -4.8655002267       10.2890556343       12.5652335149
N            -6.4891799257       13.0349433071        1.8511596111
N            -6.4903942056       13.0349531573        7.3955824854
N            -6.4892363132       13.1063402436       12.5493283738
N             3.3107232451        1.9114496356        1.8513420865
N             3.3102283640        1.9111639159        7.3951982641
N             3.2498730233        1.8763177437       12.5497146354
N             1.6227921493        4.6742669098        1.9837385450
N             1.6221719774        4.6829958851        7.2888618340
N             1.6224524306        4.6979314840       12.5627483476
N             0.0018667137        7.4927924491        1.9898030521
N            -0.0021154527        7.4949558462        7.2750047753
N             0.0001613437        7.4951335331       12.5665751215
N            -1.6214913998       10.3045311805        1.9898030521
N            -1.6216089261       10.3000008248        7.2750047753
N            -1.6203166465       10.3018837448       12.5665751215
N            -3.2519434002       13.1175565552        1.9837385450
N            -3.2446939717       13.1126549829        7.2888618340
N            -3.2316191370       13.1054300630       12.5627483476
N             6.4973772479        1.8746946682        1.9809238335
N             6.5078903810        1.8763212584        7.2852433311
N             6.5018098694        1.8794050321       12.5654093021
N             4.8722195109        4.6895504390        1.9809238335
N             4.8788847460        4.6978417843        7.2852433311
N             4.8785151165        4.6910340199       12.5654093021
N             3.2429746614        7.4927245966        1.9897245576
N             3.2467882324        7.4948640997        7.2746834346
N             3.2449791849        7.4951586612       12.5664263384
N             1.6225142058       10.3029662026        1.9875059895
N             1.6222808123       10.3028314528        7.2751384931
N             1.6226069605       10.3030197545       12.5650386023
N            -0.0009961880       13.1114469260        1.9897245576
N             0.0027634616       13.1136798238        7.2746834346
N             0.0021140356       13.1119658620       12.5664263384
N             9.7334388897        1.8753963565        1.9831802436
N             9.7329085963        1.8767602074        7.2782756022
N             9.7335575701        1.8742477299       12.5678193381
N             8.1140084737        4.6846276555        1.9861102084
N             8.1150205758        4.6852119929        7.2776743991
N             8.1142877178        4.6847888771       12.5656501224
N             6.4908580117        7.4917111850        1.9831802436
N             6.4917739945        7.4905700120        7.2782756022
N             6.4899226121        7.4923882785       12.5678193381
N             4.8663047027       10.3045938338        1.9896122068
N             4.8657175035       10.2994026158        7.2747569644
N             4.8651343781       10.3016512563       12.5665609590
N             3.2458190243       13.1113573619        1.9896122068
N             3.2410296980       13.1134444416        7.2747569644
N             3.2426855151       13.1118151199       12.5665609590
N            12.9695509245        1.8745709725        1.9809300431
N            12.9578152835        1.8759126478        7.2853764505
N            12.9655935520        1.8794571599       12.5657047925
N            11.3542101536        4.6845656311        1.9863462717
N            11.3524793177        4.6853164902        7.2776609997
N            11.3533416875        4.6849439943       12.5657201148
N             9.7340555989        7.4907556360        1.9863462717
N             9.7338404441        7.4888812586        7.2776609997
N             9.7339490380        7.4898143407       12.5657201148
N             8.1081992257       10.2946791086        1.9809300431
N             8.1034933301       10.2838449077        7.2853764505
N             8.1104521019       10.2888088298       12.5657047925
N             6.4969919442       13.1172472371        1.9838558713
N             6.4874745278       13.1117523542        7.2885890198
N             6.4761709267       13.1052262171       12.5629321388
Ga            1.6208673267        0.9358067164        4.5791368064
End final coordinates



     Writing all to output data dir ./GaN.save/
 
     init_run     :      7.22s CPU      7.81s WALL (       1 calls)
     electrons    :  57749.86s CPU  58357.94s WALL (       3 calls)
     update_pot   :      8.67s CPU      8.79s WALL (       2 calls)
     forces       :    202.99s CPU    206.27s WALL (       3 calls)
     stress       :   3788.11s CPU   3822.88s WALL (       3 calls)

     Called by init_run:
     wfcinit      :      0.72s CPU      0.79s WALL (       1 calls)
     potinit      :      1.65s CPU      1.91s WALL (       1 calls)
     hinit0       :      1.45s CPU      1.57s WALL (       1 calls)

     Called by electrons:
     c_bands      :  56979.30s CPU  57573.58s WALL (      33 calls)
     sum_band     :    704.53s CPU    713.58s WALL (      33 calls)
     v_of_rho     :     30.55s CPU     31.97s WALL (      34 calls)
     v_h          :      0.30s CPU      0.31s WALL (      34 calls)
     v_xc         :     35.60s CPU     37.30s WALL (      40 calls)
     newd         :      6.72s CPU      6.87s WALL (      34 calls)
     PAW_pot      :     19.19s CPU     19.37s WALL (      36 calls)
     mix_rho      :      1.64s CPU      1.83s WALL (      33 calls)
     vdW_kernel   :      0.16s CPU      0.16s WALL (       1 calls)

     Called by c_bands:
     init_us_2    :     34.04s CPU     34.49s WALL (     148 calls)
     init_us_2:cp :     34.03s CPU     34.49s WALL (     148 calls)
     cegterg      :  48936.66s CPU  49465.31s WALL (      67 calls)

     Called by sum_band:
     sum_band:wei :      0.15s CPU      0.15s WALL (      33 calls)
     sum_band:loo :    686.01s CPU    692.03s WALL (      33 calls)
     sum_band:buf :      8.10s CPU      8.25s WALL (      66 calls)
     sum_band:ini :     17.60s CPU     17.83s WALL (      66 calls)
     sum_band:cal :    500.16s CPU    504.01s WALL (      70 calls)
     sum_band:bec :      4.06s CPU      4.14s WALL (      70 calls)
     addusdens    :      7.05s CPU      7.19s WALL (      33 calls)
     addusd:skk   :      1.25s CPU      1.27s WALL (      66 calls)
     addusd:dgemm :      3.34s CPU      3.42s WALL (      66 calls)
     addusd:qvan2 :      0.79s CPU      0.80s WALL (      66 calls)

     Called by *egterg:
     cdiaghg      :  40436.39s CPU  40719.37s WALL (     869 calls)
     cegterg:over :   1646.30s CPU   1691.55s WALL (     810 calls)
     cegterg:upda :   1022.18s CPU   1041.60s WALL (     810 calls)
     cegterg:last :    549.03s CPU    553.26s WALL (      69 calls)
     h_psi        :   3529.33s CPU   3585.33s WALL (     877 calls)
     s_psi        :   1260.14s CPU   1281.35s WALL (     877 calls)
     g_psi        :      3.87s CPU      3.91s WALL (     810 calls)

     Called by h_psi:
     h_psi:calbec :   1325.37s CPU   1336.26s WALL (     877 calls)
     vloc_psi     :    925.05s CPU    935.26s WALL (     877 calls)
     add_vuspsi   :   1263.84s CPU   1287.15s WALL (     877 calls)

     General routines
     calbec       :   2159.21s CPU   2176.39s WALL (     977 calls)
     fft          :     19.74s CPU     19.99s WALL (    2647 calls)
     ffts         :      0.78s CPU      0.78s WALL (      67 calls)
     fftw         :   1021.35s CPU   1032.86s WALL (  675874 calls)
     interpolate  :      0.44s CPU      0.44s WALL (      34 calls)
     davcio       :      0.01s CPU      1.77s WALL (      10 calls)
 
     Parallel routines

     PAW routines
     PAW_pot      :     19.19s CPU     19.37s WALL (      36 calls)
     PAW_symme    :      0.38s CPU      0.39s WALL (      68 calls)
 
     PWSCF        :     17h 9m CPU     17h21m WALL

 
   This run was terminated on:   0:37:34  28Apr2024            

=------------------------------------------------------------------------------=
   JOB DONE.
=------------------------------------------------------------------------------=
