
     Program PWSCF v.7.1 starts on 16May2024 at 21:45:55 

     This program is part of the open-source Quantum ESPRESSO suite
     for quantum simulation of materials; please cite
         "P. Giannozzi et al., J. Phys.:Condens. Matter 21 395502 (2009);
         "P. Giannozzi et al., J. Phys.:Condens. Matter 29 465901 (2017);
         "P. Giannozzi et al., J. Chem. Phys. 152 154105 (2020);
          URL http://www.quantum-espresso.org", 
     in publications or presentations arising from this work. More details at
     http://www.quantum-espresso.org/quote

     Parallel version (MPI & OpenMP), running on     256 processor cores
     Number of MPI processes:               256
     Threads/MPI process:                     1

     MPI processes distributed on     2 nodes
     2026563 MiB available memory on the printing compute node when the environment starts
 
     Reading input from espresso.pwi
Warning: card &CELL ignored
Warning: card    CELL_DYNAMICS    = 'BFGS' ignored
Warning: card / ignored

     Current dimensions of program PWSCF are:
     Max number of different atomic species (ntypx) = 10
     Max number of k-points (npk) =  40000
     Max angular momentum in pseudopotentials (lmaxx) =  4
     file Ga.pbe-dn-kjpaw_psl.1.0.0.UPF: wavefunction(s)  4S renormalized
     file N.pbe-n-kjpaw_psl.1.0.0.UPF: wavefunction(s)  2S renormalized

     **************************************************************************
     Initializing libbeef V0.1.2 with the BEEF-vdW functional.
     Citation: Wellendorff et al., PRB 85, 235149 (2012).
     **************************************************************************


     IMPORTANT: XC functional enforced from input :
     Exchange-correlation= BEEF-VDW
                           (   1   4  43  14   2   0   0)
     Any further DFT definition will be discarded
     Please, verify this is what you really want

 
     K-points division:     npool     =       4
     R & G space division:  proc/nbgrp/npool/nimage =      64
     Subspace diagonalization in iterative solution of the eigenvalue problem:
     a serial algorithm will be used

 
     Parallelization info
     --------------------
     sticks:   dense  smooth     PW     G-vecs:    dense   smooth      PW
     Min         354     283     73                42160    30167    3987
     Max         356     285     74                42163    30170    3996
     Sum       22693   18145   4705              2698283  1930731  255309
 
     Using Slab Decomposition
 


     bravais-lattice index     =            4
     lattice parameter (alat)  =      30.6565  a.u.
     unit-cell volume          =   24400.9461 (a.u.)^3
     number of atoms/cell      =          300
     number of atomic types    =            2
     number of electrons       =      2710.00
     number of Kohn-Sham states=         1626
     kinetic-energy cutoff     =      70.0000  Ry
     charge density cutoff     =     350.0000  Ry
     scf convergence threshold =      1.0E-07
     mixing beta               =       0.7000
     number of iterations used =            8  plain     mixing
     energy convergence thresh.=      1.0E-04
     force convergence thresh. =      1.0E-03
     Exchange-correlation= BEEF-VDW
                           (   1   4  43  14   2   0   0)
     nstep                     =           50


     celldm(1)=  30.656540  celldm(2)=   0.000000  celldm(3)=   0.977927
     celldm(4)=   0.000000  celldm(5)=   0.000000  celldm(6)=   0.000000

     crystal axes: (cart. coord. in units of alat)
               a(1) = (   1.000000   0.000000   0.000000 )  
               a(2) = (  -0.500000   0.866025   0.000000 )  
               a(3) = (   0.000000   0.000000   0.977927 )  

     reciprocal axes: (cart. coord. in units 2 pi/alat)
               b(1) = (  1.000000  0.577350 -0.000000 )  
               b(2) = (  0.000000  1.154701  0.000000 )  
               b(3) = (  0.000000 -0.000000  1.022571 )  


     PseudoPot. # 1 for Ga read from file:
     //group///packages/espresso/pseudo/psl_1.0.0/pslibrary.1.0.0/pbe/PSEUDOPOTENTIALS/Ga.pbe-dn-kjpaw_psl.1.0.0.UPF
     MD5 check sum: cd2a01e492f15b435d17032472d8505c
     Pseudo is Projector augmented-wave + core cor, Zval = 13.0
     Generated using 'atomic' code by A. Dal Corso  v.7.1
     Shape of augmentation charge: PSQ
     Using radial grid of 1205 points,  6 beta functions with: 
                l(1) =   0
                l(2) =   0
                l(3) =   1
                l(4) =   1
                l(5) =   2
                l(6) =   2
     Q(r) pseudized with 0 coefficients 


     PseudoPot. # 2 for N  read from file:
     //group///packages/espresso/pseudo/psl_1.0.0/pslibrary.1.0.0/pbe/PSEUDOPOTENTIALS/N.pbe-n-kjpaw_psl.1.0.0.UPF
     MD5 check sum: f77f775694dac7e2c3fe1c82443d1a16
     Pseudo is Projector augmented-wave + core cor, Zval =  5.0
     Generated using 'atomic' code by A. Dal Corso  v.7.1
     Shape of augmentation charge: PSQ
     Using radial grid of 1085 points,  4 beta functions with: 
                l(1) =   0
                l(2) =   0
                l(3) =   1
                l(4) =   1
     Q(r) pseudized with 0 coefficients 


     atomic species   valence    mass     pseudopotential
        Ga            13.00    69.72300     Ga( 1.00)
        N              5.00    14.00700     N ( 1.00)

      2 Sym. Ops. (no inversion) found


                                    s                        frac. trans.

      isym =  1     identity                                     

 cryst.   s( 1) = (     1          0          0      )
                  (     0          1          0      )
                  (     0          0          1      )

 cart.    s( 1) = (  1.0000000  0.0000000  0.0000000 )
                  (  0.0000000  1.0000000  0.0000000 )
                  (  0.0000000  0.0000000  1.0000000 )


      isym =  2     inv. 180 deg rotation - cryst. axis [0,1,0]  

 cryst.   s( 2) = (     1          1          0      )
                  (     0         -1          0      )
                  (     0          0          1      )

 cart.    s( 2) = (  0.5000000  0.8660254  0.0000000 )
                  (  0.8660254 -0.5000000  0.0000000 )
                  (  0.0000000  0.0000000  1.0000000 )


     point group C_s (m)    
     there are  2 classes
     the character table:

       E     s    
A'     1.00  1.00
A''    1.00 -1.00

     the symmetry operations in each class and the name of the first element:

     E        1
          identity                                               
     s        2
          inv. 180 deg rotation - cryst. axis [0,1,0]            

   Cartesian axes

     site n.     atom                  positions (alat units)
         1           Ga  tau(   1) = (   0.1000001   0.0577350   0.1627148  )
         2           Ga  tau(   2) = (   0.1000001   0.0577350   0.4886906  )
         3           Ga  tau(   3) = (   0.1000001   0.0577350   0.8146665  )
         4           Ga  tau(   4) = (   0.0000001   0.2309401   0.1627148  )
         5           Ga  tau(   5) = (   0.0000001   0.2309401   0.4886906  )
         6           Ga  tau(   6) = (   0.0000001   0.2309401   0.8146665  )
         7           Ga  tau(   7) = (  -0.0999999   0.4041451   0.1627148  )
         8           Ga  tau(   8) = (  -0.0999999   0.4041451   0.4886906  )
         9           Ga  tau(   9) = (  -0.0999999   0.4041451   0.8146665  )
        10           Ga  tau(  10) = (  -0.1999999   0.5773502   0.1627148  )
        11           Ga  tau(  11) = (  -0.1999999   0.5773502   0.4886906  )
        12           Ga  tau(  12) = (  -0.1999999   0.5773502   0.8146665  )
        13           Ga  tau(  13) = (  -0.2999999   0.7505553   0.1627148  )
        14           Ga  tau(  14) = (  -0.2999999   0.7505553   0.4886906  )
        15           Ga  tau(  15) = (  -0.2999999   0.7505553   0.8146665  )
        16           Ga  tau(  16) = (   0.3000001   0.0577350   0.1627148  )
        17           Ga  tau(  17) = (   0.3000001   0.0577350   0.4886906  )
        18           Ga  tau(  18) = (   0.3000001   0.0577350   0.8146665  )
        19           Ga  tau(  19) = (   0.2000001   0.2309401   0.1627148  )
        20           Ga  tau(  20) = (   0.2000001   0.2309401   0.4886906  )
        21           Ga  tau(  21) = (   0.2000001   0.2309401   0.8146665  )
        22           Ga  tau(  22) = (   0.1000001   0.4041451   0.1627148  )
        23           Ga  tau(  23) = (   0.1000001   0.4041451   0.4886906  )
        24           Ga  tau(  24) = (   0.1000001   0.4041451   0.8146665  )
        25           Ga  tau(  25) = (   0.0000001   0.5773502   0.1627148  )
        26           Ga  tau(  26) = (   0.0000001   0.5773502   0.4886906  )
        27           Ga  tau(  27) = (   0.0000001   0.5773502   0.8146665  )
        28           Ga  tau(  28) = (  -0.0999999   0.7505553   0.1627148  )
        29           Ga  tau(  29) = (  -0.0999999   0.7505553   0.4886906  )
        30           Ga  tau(  30) = (  -0.0999999   0.7505553   0.8146665  )
        31           Ga  tau(  31) = (   0.5000001   0.0577350   0.1627148  )
        32           Ga  tau(  32) = (   0.5000001   0.0577350   0.4886906  )
        33           Ga  tau(  33) = (   0.5000001   0.0577350   0.8146665  )
        34           Ga  tau(  34) = (   0.4000001   0.2309401   0.1627148  )
        35           Ga  tau(  35) = (   0.4000001   0.2309401   0.4886906  )
        36           Ga  tau(  36) = (   0.4000001   0.2309401   0.8146665  )
        37           Ga  tau(  37) = (   0.3000001   0.4041451   0.1627148  )
        38           Ga  tau(  38) = (   0.3000001   0.4041451   0.4886906  )
        39           Ga  tau(  39) = (   0.3000001   0.4041451   0.8146665  )
        40           Ga  tau(  40) = (   0.2000001   0.5773502   0.1627148  )
        41           Ga  tau(  41) = (   0.2000001   0.5773502   0.4886906  )
        42           Ga  tau(  42) = (   0.2000001   0.5773502   0.8146665  )
        43           Ga  tau(  43) = (   0.1000001   0.7505553   0.1627148  )
        44           Ga  tau(  44) = (   0.1000001   0.7505553   0.4886906  )
        45           Ga  tau(  45) = (   0.1000001   0.7505553   0.8146665  )
        46           Ga  tau(  46) = (   0.7000001   0.0577350   0.1627148  )
        47           Ga  tau(  47) = (   0.7000001   0.0577350   0.4886906  )
        48           Ga  tau(  48) = (   0.7000001   0.0577350   0.8146665  )
        49           Ga  tau(  49) = (   0.6000001   0.2309401   0.1627148  )
        50           Ga  tau(  50) = (   0.6000001   0.2309401   0.4886906  )
        51           Ga  tau(  51) = (   0.6000001   0.2309401   0.8146665  )
        52           Ga  tau(  52) = (   0.5000001   0.4041451   0.1627148  )
        53           Ga  tau(  53) = (   0.5000001   0.4041451   0.4886906  )
        54           Ga  tau(  54) = (   0.5000001   0.4041451   0.8146665  )
        55           Ga  tau(  55) = (   0.4000001   0.5773502   0.1627148  )
        56           Ga  tau(  56) = (   0.4000001   0.5773502   0.4886906  )
        57           Ga  tau(  57) = (   0.4000001   0.5773502   0.8146665  )
        58           Ga  tau(  58) = (   0.3000001   0.7505553   0.1627148  )
        59           Ga  tau(  59) = (   0.3000001   0.7505553   0.4886906  )
        60           Ga  tau(  60) = (   0.3000001   0.7505553   0.8146665  )
        61           Ga  tau(  61) = (   0.9000001   0.0577350   0.1627148  )
        62           Ga  tau(  62) = (   0.9000001   0.0577350   0.4886906  )
        63           Ga  tau(  63) = (   0.9000001   0.0577350   0.8146665  )
        64           Ga  tau(  64) = (   0.8000001   0.2309401   0.1627148  )
        65           Ga  tau(  65) = (   0.8000001   0.2309401   0.4886906  )
        66           Ga  tau(  66) = (   0.8000001   0.2309401   0.8146665  )
        67           Ga  tau(  67) = (   0.7000001   0.4041451   0.1627148  )
        68           Ga  tau(  68) = (   0.7000001   0.4041451   0.4886906  )
        69           Ga  tau(  69) = (   0.7000001   0.4041451   0.8146665  )
        70           Ga  tau(  70) = (   0.6000001   0.5773502   0.1627148  )
        71           Ga  tau(  71) = (   0.6000001   0.5773502   0.4886906  )
        72           Ga  tau(  72) = (   0.6000001   0.5773502   0.8146665  )
        73           Ga  tau(  73) = (   0.5000001   0.7505553   0.1627148  )
        74           Ga  tau(  74) = (   0.5000001   0.7505553   0.4886906  )
        75           Ga  tau(  75) = (   0.5000001   0.7505553   0.8146665  )
        76           Ga  tau(  76) = (  -0.0000001   0.1154701   0.3257027  )
        77           Ga  tau(  77) = (  -0.0000001   0.1154701   0.6516786  )
        78           Ga  tau(  78) = (  -0.0000001   0.1154701   0.9776544  )
        79           Ga  tau(  79) = (  -0.1000001   0.2886752   0.3257027  )
        80           Ga  tau(  80) = (  -0.1000001   0.2886752   0.6516786  )
        81           Ga  tau(  81) = (  -0.1000001   0.2886752   0.9776544  )
        82           Ga  tau(  82) = (  -0.2000001   0.4618803   0.3257027  )
        83           Ga  tau(  83) = (  -0.2000001   0.4618803   0.6516786  )
        84           Ga  tau(  84) = (  -0.2000001   0.4618803   0.9776544  )
        85           Ga  tau(  85) = (  -0.3000001   0.6350854   0.3257027  )
        86           Ga  tau(  86) = (  -0.3000001   0.6350854   0.6516786  )
        87           Ga  tau(  87) = (  -0.3000001   0.6350854   0.9776544  )
        88           Ga  tau(  88) = (  -0.4000001   0.8082905   0.3257027  )
        89           Ga  tau(  89) = (  -0.4000001   0.8082905   0.6516786  )
        90           Ga  tau(  90) = (  -0.4000001   0.8082905   0.9776544  )
        91           Ga  tau(  91) = (   0.1999999   0.1154701   0.3257027  )
        92           Ga  tau(  92) = (   0.1999999   0.1154701   0.6516786  )
        93           Ga  tau(  93) = (   0.1999999   0.1154701   0.9776544  )
        94           Ga  tau(  94) = (   0.0999999   0.2886752   0.3257027  )
        95           Ga  tau(  95) = (   0.0999999   0.2886752   0.6516786  )
        96           Ga  tau(  96) = (   0.0999999   0.2886752   0.9776544  )
        97           Ga  tau(  97) = (  -0.0000001   0.4618803   0.3257027  )
        98           Ga  tau(  98) = (  -0.0000001   0.4618803   0.6516786  )
        99           Ga  tau(  99) = (  -0.0000001   0.4618803   0.9776544  )
       100           Ga  tau( 100) = (  -0.1000001   0.6350854   0.3257027  )
       101           Ga  tau( 101) = (  -0.1000001   0.6350854   0.6516786  )
       102           Ga  tau( 102) = (  -0.1000001   0.6350854   0.9776544  )
       103           Ga  tau( 103) = (  -0.2000001   0.8082905   0.3257027  )
       104           Ga  tau( 104) = (  -0.2000001   0.8082905   0.6516786  )
       105           Ga  tau( 105) = (  -0.2000001   0.8082905   0.9776544  )
       106           Ga  tau( 106) = (   0.3999999   0.1154701   0.3257027  )
       107           Ga  tau( 107) = (   0.3999999   0.1154701   0.6516786  )
       108           Ga  tau( 108) = (   0.3999999   0.1154701   0.9776544  )
       109           Ga  tau( 109) = (   0.2999999   0.2886752   0.3257027  )
       110           Ga  tau( 110) = (   0.2999999   0.2886752   0.6516786  )
       111           Ga  tau( 111) = (   0.2999999   0.2886752   0.9776544  )
       112           Ga  tau( 112) = (   0.1999999   0.4618803   0.3257027  )
       113           Ga  tau( 113) = (   0.1999999   0.4618803   0.6516786  )
       114           Ga  tau( 114) = (   0.1999999   0.4618803   0.9776544  )
       115           Ga  tau( 115) = (   0.0999999   0.6350854   0.3257027  )
       116           Ga  tau( 116) = (   0.0999999   0.6350854   0.6516786  )
       117           Ga  tau( 117) = (   0.0999999   0.6350854   0.9776544  )
       118           Ga  tau( 118) = (  -0.0000001   0.8082905   0.3257027  )
       119           Ga  tau( 119) = (  -0.0000001   0.8082905   0.6516786  )
       120           Ga  tau( 120) = (  -0.0000001   0.8082905   0.9776544  )
       121           Ga  tau( 121) = (   0.5999999   0.1154701   0.3257027  )
       122           Ga  tau( 122) = (   0.5999999   0.1154701   0.6516786  )
       123           Ga  tau( 123) = (   0.5999999   0.1154701   0.9776544  )
       124           Ga  tau( 124) = (   0.4999999   0.2886752   0.3257027  )
       125           Ga  tau( 125) = (   0.4999999   0.2886752   0.6516786  )
       126           Ga  tau( 126) = (   0.4999999   0.2886752   0.9776544  )
       127           Ga  tau( 127) = (   0.3999999   0.4618803   0.3257027  )
       128           Ga  tau( 128) = (   0.3999999   0.4618803   0.6516786  )
       129           Ga  tau( 129) = (   0.3999999   0.4618803   0.9776544  )
       130           Ga  tau( 130) = (   0.2999999   0.6350854   0.3257027  )
       131           Ga  tau( 131) = (   0.2999999   0.6350854   0.6516786  )
       132           Ga  tau( 132) = (   0.2999999   0.6350854   0.9776544  )
       133           Ga  tau( 133) = (   0.1999999   0.8082905   0.3257027  )
       134           Ga  tau( 134) = (   0.1999999   0.8082905   0.6516786  )
       135           Ga  tau( 135) = (   0.1999999   0.8082905   0.9776544  )
       136           Ga  tau( 136) = (   0.7999999   0.1154701   0.3257027  )
       137           Ga  tau( 137) = (   0.7999999   0.1154701   0.6516786  )
       138           Ga  tau( 138) = (   0.7999999   0.1154701   0.9776544  )
       139           Ga  tau( 139) = (   0.6999999   0.2886752   0.3257027  )
       140           Ga  tau( 140) = (   0.6999999   0.2886752   0.6516786  )
       141           Ga  tau( 141) = (   0.6999999   0.2886752   0.9776544  )
       142           Ga  tau( 142) = (   0.5999999   0.4618803   0.3257027  )
       143           Ga  tau( 143) = (   0.5999999   0.4618803   0.6516786  )
       144           Ga  tau( 144) = (   0.5999999   0.4618803   0.9776544  )
       145           Ga  tau( 145) = (   0.4999999   0.6350854   0.3257027  )
       146           Ga  tau( 146) = (   0.4999999   0.6350854   0.6516786  )
       147           Ga  tau( 147) = (   0.4999999   0.6350854   0.9776544  )
       148           Ga  tau( 148) = (   0.3999999   0.8082905   0.3257027  )
       149           Ga  tau( 149) = (   0.3999999   0.8082905   0.6516786  )
       150           Ga  tau( 150) = (   0.3999999   0.8082905   0.9776544  )
       151           N   tau( 151) = (   0.1000001   0.0577350   0.6114777  )
       152           N   tau( 152) = (   0.1000001   0.0577350   0.9374535  )
       153           N   tau( 153) = (   0.0000001   0.2309401   0.2855019  )
       154           N   tau( 154) = (   0.0000001   0.2309401   0.6114777  )
       155           N   tau( 155) = (   0.0000001   0.2309401   0.9374535  )
       156           N   tau( 156) = (  -0.0999999   0.4041451   0.2855019  )
       157           N   tau( 157) = (  -0.0999999   0.4041451   0.6114777  )
       158           N   tau( 158) = (  -0.0999999   0.4041451   0.9374535  )
       159           N   tau( 159) = (  -0.1999999   0.5773502   0.2855019  )
       160           N   tau( 160) = (  -0.1999999   0.5773502   0.6114777  )
       161           N   tau( 161) = (  -0.1999999   0.5773502   0.9374535  )
       162           N   tau( 162) = (  -0.2999999   0.7505553   0.2855019  )
       163           N   tau( 163) = (  -0.2999999   0.7505553   0.6114777  )
       164           N   tau( 164) = (  -0.2999999   0.7505553   0.9374535  )
       165           N   tau( 165) = (   0.3000001   0.0577350   0.2855019  )
       166           N   tau( 166) = (   0.3000001   0.0577350   0.6114777  )
       167           N   tau( 167) = (   0.3000001   0.0577350   0.9374535  )
       168           N   tau( 168) = (   0.2000001   0.2309401   0.2855019  )
       169           N   tau( 169) = (   0.2000001   0.2309401   0.6114777  )
       170           N   tau( 170) = (   0.2000001   0.2309401   0.9374535  )
       171           N   tau( 171) = (   0.1000001   0.4041451   0.2855019  )
       172           N   tau( 172) = (   0.1000001   0.4041451   0.6114777  )
       173           N   tau( 173) = (   0.1000001   0.4041451   0.9374535  )
       174           N   tau( 174) = (   0.0000001   0.5773502   0.2855019  )
       175           N   tau( 175) = (   0.0000001   0.5773502   0.6114777  )
       176           N   tau( 176) = (   0.0000001   0.5773502   0.9374535  )
       177           N   tau( 177) = (  -0.0999999   0.7505553   0.2855019  )
       178           N   tau( 178) = (  -0.0999999   0.7505553   0.6114777  )
       179           N   tau( 179) = (  -0.0999999   0.7505553   0.9374535  )
       180           N   tau( 180) = (   0.5000001   0.0577350   0.2855019  )
       181           N   tau( 181) = (   0.5000001   0.0577350   0.6114777  )
       182           N   tau( 182) = (   0.5000001   0.0577350   0.9374535  )
       183           N   tau( 183) = (   0.4000001   0.2309401   0.2855019  )
       184           N   tau( 184) = (   0.4000001   0.2309401   0.6114777  )
       185           N   tau( 185) = (   0.4000001   0.2309401   0.9374535  )
       186           N   tau( 186) = (   0.3000001   0.4041451   0.2855019  )
       187           N   tau( 187) = (   0.3000001   0.4041451   0.6114777  )
       188           N   tau( 188) = (   0.3000001   0.4041451   0.9374535  )
       189           N   tau( 189) = (   0.2000001   0.5773502   0.2855019  )
       190           N   tau( 190) = (   0.2000001   0.5773502   0.6114777  )
       191           N   tau( 191) = (   0.2000001   0.5773502   0.9374535  )
       192           N   tau( 192) = (   0.1000001   0.7505553   0.2855019  )
       193           N   tau( 193) = (   0.1000001   0.7505553   0.6114777  )
       194           N   tau( 194) = (   0.1000001   0.7505553   0.9374535  )
       195           N   tau( 195) = (   0.7000001   0.0577350   0.2855019  )
       196           N   tau( 196) = (   0.7000001   0.0577350   0.6114777  )
       197           N   tau( 197) = (   0.7000001   0.0577350   0.9374535  )
       198           N   tau( 198) = (   0.6000001   0.2309401   0.2855019  )
       199           N   tau( 199) = (   0.6000001   0.2309401   0.6114777  )
       200           N   tau( 200) = (   0.6000001   0.2309401   0.9374535  )
       201           N   tau( 201) = (   0.5000001   0.4041451   0.2855019  )
       202           N   tau( 202) = (   0.5000001   0.4041451   0.6114777  )
       203           N   tau( 203) = (   0.5000001   0.4041451   0.9374535  )
       204           N   tau( 204) = (   0.4000001   0.5773502   0.2855019  )
       205           N   tau( 205) = (   0.4000001   0.5773502   0.6114777  )
       206           N   tau( 206) = (   0.4000001   0.5773502   0.9374535  )
       207           N   tau( 207) = (   0.3000001   0.7505553   0.2855019  )
       208           N   tau( 208) = (   0.3000001   0.7505553   0.6114777  )
       209           N   tau( 209) = (   0.3000001   0.7505553   0.9374535  )
       210           N   tau( 210) = (   0.9000001   0.0577350   0.2855019  )
       211           N   tau( 211) = (   0.9000001   0.0577350   0.6114777  )
       212           N   tau( 212) = (   0.9000001   0.0577350   0.9374535  )
       213           N   tau( 213) = (   0.8000001   0.2309401   0.2855019  )
       214           N   tau( 214) = (   0.8000001   0.2309401   0.6114777  )
       215           N   tau( 215) = (   0.8000001   0.2309401   0.9374535  )
       216           N   tau( 216) = (   0.7000001   0.4041451   0.2855019  )
       217           N   tau( 217) = (   0.7000001   0.4041451   0.6114777  )
       218           N   tau( 218) = (   0.7000001   0.4041451   0.9374535  )
       219           N   tau( 219) = (   0.6000001   0.5773502   0.2855019  )
       220           N   tau( 220) = (   0.6000001   0.5773502   0.6114777  )
       221           N   tau( 221) = (   0.6000001   0.5773502   0.9374535  )
       222           N   tau( 222) = (   0.5000001   0.7505553   0.2855019  )
       223           N   tau( 223) = (   0.5000001   0.7505553   0.6114777  )
       224           N   tau( 224) = (   0.5000001   0.7505553   0.9374535  )
       225           N   tau( 225) = (  -0.0000001   0.1154701   0.1225140  )
       226           N   tau( 226) = (  -0.0000001   0.1154701   0.4484898  )
       227           N   tau( 227) = (  -0.0000001   0.1154701   0.7744656  )
       228           N   tau( 228) = (  -0.1000001   0.2886752   0.1225140  )
       229           N   tau( 229) = (  -0.1000001   0.2886752   0.4484898  )
       230           N   tau( 230) = (  -0.1000001   0.2886752   0.7744656  )
       231           N   tau( 231) = (  -0.2000001   0.4618803   0.1225140  )
       232           N   tau( 232) = (  -0.2000001   0.4618803   0.4484898  )
       233           N   tau( 233) = (  -0.2000001   0.4618803   0.7744656  )
       234           N   tau( 234) = (  -0.3000001   0.6350854   0.1225140  )
       235           N   tau( 235) = (  -0.3000001   0.6350854   0.4484898  )
       236           N   tau( 236) = (  -0.3000001   0.6350854   0.7744656  )
       237           N   tau( 237) = (  -0.4000001   0.8082905   0.1225140  )
       238           N   tau( 238) = (  -0.4000001   0.8082905   0.4484898  )
       239           N   tau( 239) = (  -0.4000001   0.8082905   0.7744656  )
       240           N   tau( 240) = (   0.1999999   0.1154701   0.1225140  )
       241           N   tau( 241) = (   0.1999999   0.1154701   0.4484898  )
       242           N   tau( 242) = (   0.1999999   0.1154701   0.7744656  )
       243           N   tau( 243) = (   0.0999999   0.2886752   0.1225140  )
       244           N   tau( 244) = (   0.0999999   0.2886752   0.4484898  )
       245           N   tau( 245) = (   0.0999999   0.2886752   0.7744656  )
       246           N   tau( 246) = (  -0.0000001   0.4618803   0.1225140  )
       247           N   tau( 247) = (  -0.0000001   0.4618803   0.4484898  )
       248           N   tau( 248) = (  -0.0000001   0.4618803   0.7744656  )
       249           N   tau( 249) = (  -0.1000001   0.6350854   0.1225140  )
       250           N   tau( 250) = (  -0.1000001   0.6350854   0.4484898  )
       251           N   tau( 251) = (  -0.1000001   0.6350854   0.7744656  )
       252           N   tau( 252) = (  -0.2000001   0.8082905   0.1225140  )
       253           N   tau( 253) = (  -0.2000001   0.8082905   0.4484898  )
       254           N   tau( 254) = (  -0.2000001   0.8082905   0.7744656  )
       255           N   tau( 255) = (   0.3999999   0.1154701   0.1225140  )
       256           N   tau( 256) = (   0.3999999   0.1154701   0.4484898  )
       257           N   tau( 257) = (   0.3999999   0.1154701   0.7744656  )
       258           N   tau( 258) = (   0.2999999   0.2886752   0.1225140  )
       259           N   tau( 259) = (   0.2999999   0.2886752   0.4484898  )
       260           N   tau( 260) = (   0.2999999   0.2886752   0.7744656  )
       261           N   tau( 261) = (   0.1999999   0.4618803   0.1225140  )
       262           N   tau( 262) = (   0.1999999   0.4618803   0.4484898  )
       263           N   tau( 263) = (   0.1999999   0.4618803   0.7744656  )
       264           N   tau( 264) = (   0.0999999   0.6350854   0.1225140  )
       265           N   tau( 265) = (   0.0999999   0.6350854   0.4484898  )
       266           N   tau( 266) = (   0.0999999   0.6350854   0.7744656  )
       267           N   tau( 267) = (  -0.0000001   0.8082905   0.1225140  )
       268           N   tau( 268) = (  -0.0000001   0.8082905   0.4484898  )
       269           N   tau( 269) = (  -0.0000001   0.8082905   0.7744656  )
       270           N   tau( 270) = (   0.5999999   0.1154701   0.1225140  )
       271           N   tau( 271) = (   0.5999999   0.1154701   0.4484898  )
       272           N   tau( 272) = (   0.5999999   0.1154701   0.7744656  )
       273           N   tau( 273) = (   0.4999999   0.2886752   0.1225140  )
       274           N   tau( 274) = (   0.4999999   0.2886752   0.4484898  )
       275           N   tau( 275) = (   0.4999999   0.2886752   0.7744656  )
       276           N   tau( 276) = (   0.3999999   0.4618803   0.1225140  )
       277           N   tau( 277) = (   0.3999999   0.4618803   0.4484898  )
       278           N   tau( 278) = (   0.3999999   0.4618803   0.7744656  )
       279           N   tau( 279) = (   0.2999999   0.6350854   0.1225140  )
       280           N   tau( 280) = (   0.2999999   0.6350854   0.4484898  )
       281           N   tau( 281) = (   0.2999999   0.6350854   0.7744656  )
       282           N   tau( 282) = (   0.1999999   0.8082905   0.1225140  )
       283           N   tau( 283) = (   0.1999999   0.8082905   0.4484898  )
       284           N   tau( 284) = (   0.1999999   0.8082905   0.7744656  )
       285           N   tau( 285) = (   0.7999999   0.1154701   0.1225140  )
       286           N   tau( 286) = (   0.7999999   0.1154701   0.4484898  )
       287           N   tau( 287) = (   0.7999999   0.1154701   0.7744656  )
       288           N   tau( 288) = (   0.6999999   0.2886752   0.1225140  )
       289           N   tau( 289) = (   0.6999999   0.2886752   0.4484898  )
       290           N   tau( 290) = (   0.6999999   0.2886752   0.7744656  )
       291           N   tau( 291) = (   0.5999999   0.4618803   0.1225140  )
       292           N   tau( 292) = (   0.5999999   0.4618803   0.4484898  )
       293           N   tau( 293) = (   0.5999999   0.4618803   0.7744656  )
       294           N   tau( 294) = (   0.4999999   0.6350854   0.1225140  )
       295           N   tau( 295) = (   0.4999999   0.6350854   0.4484898  )
       296           N   tau( 296) = (   0.4999999   0.6350854   0.7744656  )
       297           N   tau( 297) = (   0.3999999   0.8082905   0.1225140  )
       298           N   tau( 298) = (   0.3999999   0.8082905   0.4484898  )
       299           N   tau( 299) = (   0.3999999   0.8082905   0.7744656  )
       300           Ga  tau( 300) = (   0.1000001   0.0577350   0.2855019  )

   Crystallographic axes

     site n.     atom                  positions (cryst. coord.)
         1           Ga  tau(   1) = (  0.1333334  0.0666666  0.1663874  )
         2           Ga  tau(   2) = (  0.1333334  0.0666666  0.4997208  )
         3           Ga  tau(   3) = (  0.1333334  0.0666666  0.8330541  )
         4           Ga  tau(   4) = (  0.1333334  0.2666666  0.1663874  )
         5           Ga  tau(   5) = (  0.1333334  0.2666666  0.4997208  )
         6           Ga  tau(   6) = (  0.1333334  0.2666666  0.8330541  )
         7           Ga  tau(   7) = (  0.1333334  0.4666666  0.1663874  )
         8           Ga  tau(   8) = (  0.1333334  0.4666666  0.4997208  )
         9           Ga  tau(   9) = (  0.1333334  0.4666666  0.8330541  )
        10           Ga  tau(  10) = (  0.1333334  0.6666666  0.1663874  )
        11           Ga  tau(  11) = (  0.1333334  0.6666666  0.4997208  )
        12           Ga  tau(  12) = (  0.1333334  0.6666666  0.8330541  )
        13           Ga  tau(  13) = (  0.1333334  0.8666666  0.1663874  )
        14           Ga  tau(  14) = (  0.1333334  0.8666666  0.4997208  )
        15           Ga  tau(  15) = (  0.1333334  0.8666666  0.8330541  )
        16           Ga  tau(  16) = (  0.3333334  0.0666666  0.1663874  )
        17           Ga  tau(  17) = (  0.3333334  0.0666666  0.4997208  )
        18           Ga  tau(  18) = (  0.3333334  0.0666666  0.8330541  )
        19           Ga  tau(  19) = (  0.3333334  0.2666666  0.1663874  )
        20           Ga  tau(  20) = (  0.3333334  0.2666666  0.4997208  )
        21           Ga  tau(  21) = (  0.3333334  0.2666666  0.8330541  )
        22           Ga  tau(  22) = (  0.3333334  0.4666666  0.1663874  )
        23           Ga  tau(  23) = (  0.3333334  0.4666666  0.4997208  )
        24           Ga  tau(  24) = (  0.3333334  0.4666666  0.8330541  )
        25           Ga  tau(  25) = (  0.3333334  0.6666666  0.1663874  )
        26           Ga  tau(  26) = (  0.3333334  0.6666666  0.4997208  )
        27           Ga  tau(  27) = (  0.3333334  0.6666666  0.8330541  )
        28           Ga  tau(  28) = (  0.3333334  0.8666666  0.1663874  )
        29           Ga  tau(  29) = (  0.3333334  0.8666666  0.4997208  )
        30           Ga  tau(  30) = (  0.3333334  0.8666666  0.8330541  )
        31           Ga  tau(  31) = (  0.5333334  0.0666666  0.1663874  )
        32           Ga  tau(  32) = (  0.5333334  0.0666666  0.4997208  )
        33           Ga  tau(  33) = (  0.5333334  0.0666666  0.8330541  )
        34           Ga  tau(  34) = (  0.5333334  0.2666666  0.1663874  )
        35           Ga  tau(  35) = (  0.5333334  0.2666666  0.4997208  )
        36           Ga  tau(  36) = (  0.5333334  0.2666666  0.8330541  )
        37           Ga  tau(  37) = (  0.5333334  0.4666666  0.1663874  )
        38           Ga  tau(  38) = (  0.5333334  0.4666666  0.4997208  )
        39           Ga  tau(  39) = (  0.5333334  0.4666666  0.8330541  )
        40           Ga  tau(  40) = (  0.5333334  0.6666666  0.1663874  )
        41           Ga  tau(  41) = (  0.5333334  0.6666666  0.4997208  )
        42           Ga  tau(  42) = (  0.5333334  0.6666666  0.8330541  )
        43           Ga  tau(  43) = (  0.5333334  0.8666666  0.1663874  )
        44           Ga  tau(  44) = (  0.5333334  0.8666666  0.4997208  )
        45           Ga  tau(  45) = (  0.5333334  0.8666666  0.8330541  )
        46           Ga  tau(  46) = (  0.7333334  0.0666666  0.1663874  )
        47           Ga  tau(  47) = (  0.7333334  0.0666666  0.4997208  )
        48           Ga  tau(  48) = (  0.7333334  0.0666666  0.8330541  )
        49           Ga  tau(  49) = (  0.7333334  0.2666666  0.1663874  )
        50           Ga  tau(  50) = (  0.7333334  0.2666666  0.4997208  )
        51           Ga  tau(  51) = (  0.7333334  0.2666666  0.8330541  )
        52           Ga  tau(  52) = (  0.7333334  0.4666666  0.1663874  )
        53           Ga  tau(  53) = (  0.7333334  0.4666666  0.4997208  )
        54           Ga  tau(  54) = (  0.7333334  0.4666666  0.8330541  )
        55           Ga  tau(  55) = (  0.7333334  0.6666666  0.1663874  )
        56           Ga  tau(  56) = (  0.7333334  0.6666666  0.4997208  )
        57           Ga  tau(  57) = (  0.7333334  0.6666666  0.8330541  )
        58           Ga  tau(  58) = (  0.7333334  0.8666666  0.1663874  )
        59           Ga  tau(  59) = (  0.7333334  0.8666666  0.4997208  )
        60           Ga  tau(  60) = (  0.7333334  0.8666666  0.8330541  )
        61           Ga  tau(  61) = (  0.9333334  0.0666666  0.1663874  )
        62           Ga  tau(  62) = (  0.9333334  0.0666666  0.4997208  )
        63           Ga  tau(  63) = (  0.9333334  0.0666666  0.8330541  )
        64           Ga  tau(  64) = (  0.9333334  0.2666666  0.1663874  )
        65           Ga  tau(  65) = (  0.9333334  0.2666666  0.4997208  )
        66           Ga  tau(  66) = (  0.9333334  0.2666666  0.8330541  )
        67           Ga  tau(  67) = (  0.9333334  0.4666666  0.1663874  )
        68           Ga  tau(  68) = (  0.9333334  0.4666666  0.4997208  )
        69           Ga  tau(  69) = (  0.9333334  0.4666666  0.8330541  )
        70           Ga  tau(  70) = (  0.9333334  0.6666666  0.1663874  )
        71           Ga  tau(  71) = (  0.9333334  0.6666666  0.4997208  )
        72           Ga  tau(  72) = (  0.9333334  0.6666666  0.8330541  )
        73           Ga  tau(  73) = (  0.9333334  0.8666666  0.1663874  )
        74           Ga  tau(  74) = (  0.9333334  0.8666666  0.4997208  )
        75           Ga  tau(  75) = (  0.9333334  0.8666666  0.8330541  )
        76           Ga  tau(  76) = (  0.0666666  0.1333334  0.3330541  )
        77           Ga  tau(  77) = (  0.0666666  0.1333334  0.6663874  )
        78           Ga  tau(  78) = (  0.0666666  0.1333334  0.9997208  )
        79           Ga  tau(  79) = (  0.0666666  0.3333334  0.3330541  )
        80           Ga  tau(  80) = (  0.0666666  0.3333334  0.6663874  )
        81           Ga  tau(  81) = (  0.0666666  0.3333334  0.9997208  )
        82           Ga  tau(  82) = (  0.0666666  0.5333334  0.3330541  )
        83           Ga  tau(  83) = (  0.0666666  0.5333334  0.6663874  )
        84           Ga  tau(  84) = (  0.0666666  0.5333334  0.9997208  )
        85           Ga  tau(  85) = (  0.0666666  0.7333334  0.3330541  )
        86           Ga  tau(  86) = (  0.0666666  0.7333334  0.6663874  )
        87           Ga  tau(  87) = (  0.0666666  0.7333334  0.9997208  )
        88           Ga  tau(  88) = (  0.0666666  0.9333334  0.3330541  )
        89           Ga  tau(  89) = (  0.0666666  0.9333334  0.6663874  )
        90           Ga  tau(  90) = (  0.0666666  0.9333334  0.9997208  )
        91           Ga  tau(  91) = (  0.2666666  0.1333334  0.3330541  )
        92           Ga  tau(  92) = (  0.2666666  0.1333334  0.6663874  )
        93           Ga  tau(  93) = (  0.2666666  0.1333334  0.9997208  )
        94           Ga  tau(  94) = (  0.2666666  0.3333334  0.3330541  )
        95           Ga  tau(  95) = (  0.2666666  0.3333334  0.6663874  )
        96           Ga  tau(  96) = (  0.2666666  0.3333334  0.9997208  )
        97           Ga  tau(  97) = (  0.2666666  0.5333334  0.3330541  )
        98           Ga  tau(  98) = (  0.2666666  0.5333334  0.6663874  )
        99           Ga  tau(  99) = (  0.2666666  0.5333334  0.9997208  )
       100           Ga  tau( 100) = (  0.2666666  0.7333334  0.3330541  )
       101           Ga  tau( 101) = (  0.2666666  0.7333334  0.6663874  )
       102           Ga  tau( 102) = (  0.2666666  0.7333334  0.9997208  )
       103           Ga  tau( 103) = (  0.2666666  0.9333334  0.3330541  )
       104           Ga  tau( 104) = (  0.2666666  0.9333334  0.6663874  )
       105           Ga  tau( 105) = (  0.2666666  0.9333334  0.9997208  )
       106           Ga  tau( 106) = (  0.4666666  0.1333334  0.3330541  )
       107           Ga  tau( 107) = (  0.4666666  0.1333334  0.6663874  )
       108           Ga  tau( 108) = (  0.4666666  0.1333334  0.9997208  )
       109           Ga  tau( 109) = (  0.4666666  0.3333334  0.3330541  )
       110           Ga  tau( 110) = (  0.4666666  0.3333334  0.6663874  )
       111           Ga  tau( 111) = (  0.4666666  0.3333334  0.9997208  )
       112           Ga  tau( 112) = (  0.4666666  0.5333334  0.3330541  )
       113           Ga  tau( 113) = (  0.4666666  0.5333334  0.6663874  )
       114           Ga  tau( 114) = (  0.4666666  0.5333334  0.9997208  )
       115           Ga  tau( 115) = (  0.4666666  0.7333334  0.3330541  )
       116           Ga  tau( 116) = (  0.4666666  0.7333334  0.6663874  )
       117           Ga  tau( 117) = (  0.4666666  0.7333334  0.9997208  )
       118           Ga  tau( 118) = (  0.4666666  0.9333334  0.3330541  )
       119           Ga  tau( 119) = (  0.4666666  0.9333334  0.6663874  )
       120           Ga  tau( 120) = (  0.4666666  0.9333334  0.9997208  )
       121           Ga  tau( 121) = (  0.6666666  0.1333334  0.3330541  )
       122           Ga  tau( 122) = (  0.6666666  0.1333334  0.6663874  )
       123           Ga  tau( 123) = (  0.6666666  0.1333334  0.9997208  )
       124           Ga  tau( 124) = (  0.6666666  0.3333334  0.3330541  )
       125           Ga  tau( 125) = (  0.6666666  0.3333334  0.6663874  )
       126           Ga  tau( 126) = (  0.6666666  0.3333334  0.9997208  )
       127           Ga  tau( 127) = (  0.6666666  0.5333334  0.3330541  )
       128           Ga  tau( 128) = (  0.6666666  0.5333334  0.6663874  )
       129           Ga  tau( 129) = (  0.6666666  0.5333334  0.9997208  )
       130           Ga  tau( 130) = (  0.6666666  0.7333334  0.3330541  )
       131           Ga  tau( 131) = (  0.6666666  0.7333334  0.6663874  )
       132           Ga  tau( 132) = (  0.6666666  0.7333334  0.9997208  )
       133           Ga  tau( 133) = (  0.6666666  0.9333334  0.3330541  )
       134           Ga  tau( 134) = (  0.6666666  0.9333334  0.6663874  )
       135           Ga  tau( 135) = (  0.6666666  0.9333334  0.9997208  )
       136           Ga  tau( 136) = (  0.8666666  0.1333334  0.3330541  )
       137           Ga  tau( 137) = (  0.8666666  0.1333334  0.6663874  )
       138           Ga  tau( 138) = (  0.8666666  0.1333334  0.9997208  )
       139           Ga  tau( 139) = (  0.8666666  0.3333334  0.3330541  )
       140           Ga  tau( 140) = (  0.8666666  0.3333334  0.6663874  )
       141           Ga  tau( 141) = (  0.8666666  0.3333334  0.9997208  )
       142           Ga  tau( 142) = (  0.8666666  0.5333334  0.3330541  )
       143           Ga  tau( 143) = (  0.8666666  0.5333334  0.6663874  )
       144           Ga  tau( 144) = (  0.8666666  0.5333334  0.9997208  )
       145           Ga  tau( 145) = (  0.8666666  0.7333334  0.3330541  )
       146           Ga  tau( 146) = (  0.8666666  0.7333334  0.6663874  )
       147           Ga  tau( 147) = (  0.8666666  0.7333334  0.9997208  )
       148           Ga  tau( 148) = (  0.8666666  0.9333334  0.3330541  )
       149           Ga  tau( 149) = (  0.8666666  0.9333334  0.6663874  )
       150           Ga  tau( 150) = (  0.8666666  0.9333334  0.9997208  )
       151           N   tau( 151) = (  0.1333334  0.0666666  0.6252792  )
       152           N   tau( 152) = (  0.1333334  0.0666666  0.9586126  )
       153           N   tau( 153) = (  0.1333334  0.2666666  0.2919459  )
       154           N   tau( 154) = (  0.1333334  0.2666666  0.6252792  )
       155           N   tau( 155) = (  0.1333334  0.2666666  0.9586126  )
       156           N   tau( 156) = (  0.1333334  0.4666666  0.2919459  )
       157           N   tau( 157) = (  0.1333334  0.4666666  0.6252792  )
       158           N   tau( 158) = (  0.1333334  0.4666666  0.9586126  )
       159           N   tau( 159) = (  0.1333334  0.6666666  0.2919459  )
       160           N   tau( 160) = (  0.1333334  0.6666666  0.6252792  )
       161           N   tau( 161) = (  0.1333334  0.6666666  0.9586126  )
       162           N   tau( 162) = (  0.1333334  0.8666666  0.2919459  )
       163           N   tau( 163) = (  0.1333334  0.8666666  0.6252792  )
       164           N   tau( 164) = (  0.1333334  0.8666666  0.9586126  )
       165           N   tau( 165) = (  0.3333334  0.0666666  0.2919459  )
       166           N   tau( 166) = (  0.3333334  0.0666666  0.6252792  )
       167           N   tau( 167) = (  0.3333334  0.0666666  0.9586126  )
       168           N   tau( 168) = (  0.3333334  0.2666666  0.2919459  )
       169           N   tau( 169) = (  0.3333334  0.2666666  0.6252792  )
       170           N   tau( 170) = (  0.3333334  0.2666666  0.9586126  )
       171           N   tau( 171) = (  0.3333334  0.4666666  0.2919459  )
       172           N   tau( 172) = (  0.3333334  0.4666666  0.6252792  )
       173           N   tau( 173) = (  0.3333334  0.4666666  0.9586126  )
       174           N   tau( 174) = (  0.3333334  0.6666666  0.2919459  )
       175           N   tau( 175) = (  0.3333334  0.6666666  0.6252792  )
       176           N   tau( 176) = (  0.3333334  0.6666666  0.9586126  )
       177           N   tau( 177) = (  0.3333334  0.8666666  0.2919459  )
       178           N   tau( 178) = (  0.3333334  0.8666666  0.6252792  )
       179           N   tau( 179) = (  0.3333334  0.8666666  0.9586126  )
       180           N   tau( 180) = (  0.5333334  0.0666666  0.2919459  )
       181           N   tau( 181) = (  0.5333334  0.0666666  0.6252792  )
       182           N   tau( 182) = (  0.5333334  0.0666666  0.9586126  )
       183           N   tau( 183) = (  0.5333334  0.2666666  0.2919459  )
       184           N   tau( 184) = (  0.5333334  0.2666666  0.6252792  )
       185           N   tau( 185) = (  0.5333334  0.2666666  0.9586126  )
       186           N   tau( 186) = (  0.5333334  0.4666666  0.2919459  )
       187           N   tau( 187) = (  0.5333334  0.4666666  0.6252792  )
       188           N   tau( 188) = (  0.5333334  0.4666666  0.9586126  )
       189           N   tau( 189) = (  0.5333334  0.6666666  0.2919459  )
       190           N   tau( 190) = (  0.5333334  0.6666666  0.6252792  )
       191           N   tau( 191) = (  0.5333334  0.6666666  0.9586126  )
       192           N   tau( 192) = (  0.5333334  0.8666666  0.2919459  )
       193           N   tau( 193) = (  0.5333334  0.8666666  0.6252792  )
       194           N   tau( 194) = (  0.5333334  0.8666666  0.9586126  )
       195           N   tau( 195) = (  0.7333334  0.0666666  0.2919459  )
       196           N   tau( 196) = (  0.7333334  0.0666666  0.6252792  )
       197           N   tau( 197) = (  0.7333334  0.0666666  0.9586126  )
       198           N   tau( 198) = (  0.7333334  0.2666666  0.2919459  )
       199           N   tau( 199) = (  0.7333334  0.2666666  0.6252792  )
       200           N   tau( 200) = (  0.7333334  0.2666666  0.9586126  )
       201           N   tau( 201) = (  0.7333334  0.4666666  0.2919459  )
       202           N   tau( 202) = (  0.7333334  0.4666666  0.6252792  )
       203           N   tau( 203) = (  0.7333334  0.4666666  0.9586126  )
       204           N   tau( 204) = (  0.7333334  0.6666666  0.2919459  )
       205           N   tau( 205) = (  0.7333334  0.6666666  0.6252792  )
       206           N   tau( 206) = (  0.7333334  0.6666666  0.9586126  )
       207           N   tau( 207) = (  0.7333334  0.8666666  0.2919459  )
       208           N   tau( 208) = (  0.7333334  0.8666666  0.6252792  )
       209           N   tau( 209) = (  0.7333334  0.8666666  0.9586126  )
       210           N   tau( 210) = (  0.9333334  0.0666666  0.2919459  )
       211           N   tau( 211) = (  0.9333334  0.0666666  0.6252792  )
       212           N   tau( 212) = (  0.9333334  0.0666666  0.9586126  )
       213           N   tau( 213) = (  0.9333334  0.2666666  0.2919459  )
       214           N   tau( 214) = (  0.9333334  0.2666666  0.6252792  )
       215           N   tau( 215) = (  0.9333334  0.2666666  0.9586126  )
       216           N   tau( 216) = (  0.9333334  0.4666666  0.2919459  )
       217           N   tau( 217) = (  0.9333334  0.4666666  0.6252792  )
       218           N   tau( 218) = (  0.9333334  0.4666666  0.9586126  )
       219           N   tau( 219) = (  0.9333334  0.6666666  0.2919459  )
       220           N   tau( 220) = (  0.9333334  0.6666666  0.6252792  )
       221           N   tau( 221) = (  0.9333334  0.6666666  0.9586126  )
       222           N   tau( 222) = (  0.9333334  0.8666666  0.2919459  )
       223           N   tau( 223) = (  0.9333334  0.8666666  0.6252792  )
       224           N   tau( 224) = (  0.9333334  0.8666666  0.9586126  )
       225           N   tau( 225) = (  0.0666666  0.1333334  0.1252792  )
       226           N   tau( 226) = (  0.0666666  0.1333334  0.4586126  )
       227           N   tau( 227) = (  0.0666666  0.1333334  0.7919459  )
       228           N   tau( 228) = (  0.0666666  0.3333334  0.1252792  )
       229           N   tau( 229) = (  0.0666666  0.3333334  0.4586126  )
       230           N   tau( 230) = (  0.0666666  0.3333334  0.7919459  )
       231           N   tau( 231) = (  0.0666666  0.5333334  0.1252792  )
       232           N   tau( 232) = (  0.0666666  0.5333334  0.4586126  )
       233           N   tau( 233) = (  0.0666666  0.5333334  0.7919459  )
       234           N   tau( 234) = (  0.0666666  0.7333334  0.1252792  )
       235           N   tau( 235) = (  0.0666666  0.7333334  0.4586126  )
       236           N   tau( 236) = (  0.0666666  0.7333334  0.7919459  )
       237           N   tau( 237) = (  0.0666666  0.9333334  0.1252792  )
       238           N   tau( 238) = (  0.0666666  0.9333334  0.4586126  )
       239           N   tau( 239) = (  0.0666666  0.9333334  0.7919459  )
       240           N   tau( 240) = (  0.2666666  0.1333334  0.1252792  )
       241           N   tau( 241) = (  0.2666666  0.1333334  0.4586126  )
       242           N   tau( 242) = (  0.2666666  0.1333334  0.7919459  )
       243           N   tau( 243) = (  0.2666666  0.3333334  0.1252792  )
       244           N   tau( 244) = (  0.2666666  0.3333334  0.4586126  )
       245           N   tau( 245) = (  0.2666666  0.3333334  0.7919459  )
       246           N   tau( 246) = (  0.2666666  0.5333334  0.1252792  )
       247           N   tau( 247) = (  0.2666666  0.5333334  0.4586126  )
       248           N   tau( 248) = (  0.2666666  0.5333334  0.7919459  )
       249           N   tau( 249) = (  0.2666666  0.7333334  0.1252792  )
       250           N   tau( 250) = (  0.2666666  0.7333334  0.4586126  )
       251           N   tau( 251) = (  0.2666666  0.7333334  0.7919459  )
       252           N   tau( 252) = (  0.2666666  0.9333334  0.1252792  )
       253           N   tau( 253) = (  0.2666666  0.9333334  0.4586126  )
       254           N   tau( 254) = (  0.2666666  0.9333334  0.7919459  )
       255           N   tau( 255) = (  0.4666666  0.1333334  0.1252792  )
       256           N   tau( 256) = (  0.4666666  0.1333334  0.4586126  )
       257           N   tau( 257) = (  0.4666666  0.1333334  0.7919459  )
       258           N   tau( 258) = (  0.4666666  0.3333334  0.1252792  )
       259           N   tau( 259) = (  0.4666666  0.3333334  0.4586126  )
       260           N   tau( 260) = (  0.4666666  0.3333334  0.7919459  )
       261           N   tau( 261) = (  0.4666666  0.5333334  0.1252792  )
       262           N   tau( 262) = (  0.4666666  0.5333334  0.4586126  )
       263           N   tau( 263) = (  0.4666666  0.5333334  0.7919459  )
       264           N   tau( 264) = (  0.4666666  0.7333334  0.1252792  )
       265           N   tau( 265) = (  0.4666666  0.7333334  0.4586126  )
       266           N   tau( 266) = (  0.4666666  0.7333334  0.7919459  )
       267           N   tau( 267) = (  0.4666666  0.9333334  0.1252792  )
       268           N   tau( 268) = (  0.4666666  0.9333334  0.4586126  )
       269           N   tau( 269) = (  0.4666666  0.9333334  0.7919459  )
       270           N   tau( 270) = (  0.6666666  0.1333334  0.1252792  )
       271           N   tau( 271) = (  0.6666666  0.1333334  0.4586126  )
       272           N   tau( 272) = (  0.6666666  0.1333334  0.7919459  )
       273           N   tau( 273) = (  0.6666666  0.3333334  0.1252792  )
       274           N   tau( 274) = (  0.6666666  0.3333334  0.4586126  )
       275           N   tau( 275) = (  0.6666666  0.3333334  0.7919459  )
       276           N   tau( 276) = (  0.6666666  0.5333334  0.1252792  )
       277           N   tau( 277) = (  0.6666666  0.5333334  0.4586126  )
       278           N   tau( 278) = (  0.6666666  0.5333334  0.7919459  )
       279           N   tau( 279) = (  0.6666666  0.7333334  0.1252792  )
       280           N   tau( 280) = (  0.6666666  0.7333334  0.4586126  )
       281           N   tau( 281) = (  0.6666666  0.7333334  0.7919459  )
       282           N   tau( 282) = (  0.6666666  0.9333334  0.1252792  )
       283           N   tau( 283) = (  0.6666666  0.9333334  0.4586126  )
       284           N   tau( 284) = (  0.6666666  0.9333334  0.7919459  )
       285           N   tau( 285) = (  0.8666666  0.1333334  0.1252792  )
       286           N   tau( 286) = (  0.8666666  0.1333334  0.4586126  )
       287           N   tau( 287) = (  0.8666666  0.1333334  0.7919459  )
       288           N   tau( 288) = (  0.8666666  0.3333334  0.1252792  )
       289           N   tau( 289) = (  0.8666666  0.3333334  0.4586126  )
       290           N   tau( 290) = (  0.8666666  0.3333334  0.7919459  )
       291           N   tau( 291) = (  0.8666666  0.5333334  0.1252792  )
       292           N   tau( 292) = (  0.8666666  0.5333334  0.4586126  )
       293           N   tau( 293) = (  0.8666666  0.5333334  0.7919459  )
       294           N   tau( 294) = (  0.8666666  0.7333334  0.1252792  )
       295           N   tau( 295) = (  0.8666666  0.7333334  0.4586126  )
       296           N   tau( 296) = (  0.8666666  0.7333334  0.7919459  )
       297           N   tau( 297) = (  0.8666666  0.9333334  0.1252792  )
       298           N   tau( 298) = (  0.8666666  0.9333334  0.4586126  )
       299           N   tau( 299) = (  0.8666666  0.9333334  0.7919459  )
       300           Ga  tau( 300) = (  0.1333334  0.0666666  0.2919459  )

     number of k points=     6  Gaussian smearing, width (Ry)=  0.0100
                       cart. coord. in units 2pi/alat
        k(    1) = (   0.0000000   0.0000000   0.0000000), wk =   0.2500000
        k(    2) = (   0.0000000   0.0000000  -0.5112854), wk =   0.2500000
        k(    3) = (   0.0000000  -0.5773503   0.0000000), wk =   0.5000000
        k(    4) = (   0.0000000  -0.5773503  -0.5112854), wk =   0.5000000
        k(    5) = (  -0.5000000  -0.2886751   0.0000000), wk =   0.2500000
        k(    6) = (  -0.5000000  -0.2886751  -0.5112854), wk =   0.2500000

                       cryst. coord.
        k(    1) = (   0.0000000   0.0000000   0.0000000), wk =   0.2500000
        k(    2) = (   0.0000000   0.0000000  -0.5000000), wk =   0.2500000
        k(    3) = (   0.0000000  -0.5000000   0.0000000), wk =   0.5000000
        k(    4) = (   0.0000000  -0.5000000  -0.5000000), wk =   0.5000000
        k(    5) = (  -0.5000000  -0.0000000   0.0000000), wk =   0.2500000
        k(    6) = (  -0.5000000  -0.0000000  -0.5000000), wk =   0.2500000

     Dense  grid:  2698283 G-vectors     FFT dimensions: ( 192, 192, 180)

     Smooth grid:  1930731 G-vectors     FFT dimensions: ( 180, 180, 160)

     Dynamical RAM for                 wfc:      93.54 MB

     Dynamical RAM for     wfc (w. buffer):     280.61 MB

     Dynamical RAM for           str. fact:       1.29 MB

     Dynamical RAM for           local pot:       0.00 MB

     Dynamical RAM for          nlocal pot:     224.93 MB

     Dynamical RAM for                qrad:       3.00 MB

     Dynamical RAM for          rho,v,vnew:       4.46 MB

     Dynamical RAM for               rhoin:       1.49 MB

     Dynamical RAM for            rho*nmix:      10.29 MB

     Dynamical RAM for           G-vectors:       2.64 MB

     Dynamical RAM for          h,s,v(r/c):    1936.43 MB

     Dynamical RAM for          <psi|beta>:      97.01 MB

     Dynamical RAM for                 psi:     374.15 MB

     Dynamical RAM for                hpsi:     374.15 MB

     Dynamical RAM for                spsi:     374.15 MB

     Dynamical RAM for      wfcinit/wfcrot:     247.60 MB

     Dynamical RAM for           addusdens:      54.68 MB

     Dynamical RAM for          addusforce:     103.36 MB

     Dynamical RAM for         addusstress:      32.57 MB

     Estimated static dynamical RAM per process >     524.56 MB

     Estimated max dynamical RAM per process >       3.60 GB

     Estimated total dynamical RAM >     920.76 GB

     Atomic positions and unit cell read from directory:
     ./GaN.save/
     Atomic positions from file used, from input discarded
 

     Check: negative core charge=   -0.000003

     The initial density is read from file :
     ./GaN.save/charge-density



     %%%%%%%%%%%%%%%%%%%%%%%%%%%%%%%%%%%%%%%%%%%%%%%%%%%%%%%%%%%%%%%%%%%%%%%%
     %                                                                      %
     % You are using vdW-DF, which was implemented by the Thonhauser group. %
     % Please cite the following two papers that made this development      %
     % possible and the two reviews that describe the various versions:     %
     %                                                                      %
     %   T. Thonhauser et al., PRL 115, 136402 (2015).                      %
     %   T. Thonhauser et al., PRB 76, 125112 (2007).                       %
     %   K. Berland et al., Rep. Prog. Phys. 78, 066501 (2015).             %
     %   D.C. Langreth et al., J. Phys.: Condens. Matter 21, 084203 (2009). %
     %                                                                      %
     % If you are calculating stress with vdW-DF, please also cite:         %
     %                                                                      %
     %   R. Sabatini et al., J. Phys.: Condens. Matter 24, 424209 (2012).   %
     %                                                                      %
     %%%%%%%%%%%%%%%%%%%%%%%%%%%%%%%%%%%%%%%%%%%%%%%%%%%%%%%%%%%%%%%%%%%%%%%%

     %%%%%%%%%%%%%%%%%%%%%%%%%%%%%%%%%%%%%%%%%%%%%%%%%%%%%%%%%%%%%%%%%%%%%%%%
     %                                                                      %
     %  vdW-DF NEWS:                                                        %
     %                                                                      %
     %  * vdW-DF3 is now available. DOI: 10.1021/acs.jctc.0c00471           %
     %    use with input_dft = 'vdW-DF3-opt1' or 'vdW-DF3-opt2'             %
     %                                                                      %
     %  * Unscreened and range-separated vdW-DF hybrid functionals          %
     %    DOI: 10.1063/1.4986522 and 10.1088/1361-648X/ac2ad2               %
     %    use with input_dft = 'vdW-DF-cx0' (etc) and 'vdW-DF-ahcx'         %
     %                                                                      %
     %%%%%%%%%%%%%%%%%%%%%%%%%%%%%%%%%%%%%%%%%%%%%%%%%%%%%%%%%%%%%%%%%%%%%%%%


     Carrying out vdW-DF run using the following parameters:
     Nqs    =  20  Npoints =  1024  r_max =  100.000
     q_mesh =  0.00001000  0.04494208  0.09755937  0.15916263
               0.23128650  0.31572767  0.41458969  0.53033537
               0.66584808  0.82450364  1.01025438  1.22772762
               1.48234092  1.78043706  2.12944203  2.53805004
               3.01644009  3.57652955  4.23227104  5.00000000


     -----------------------------------------------
     Non-local corr. energy    =      82.11290690 Ry
     -----------------------------------------------

     Starting wfcs from file
     Checking if some PAW data can be deallocated... 
       PAW data deallocated on  149 nodes for type:  1
       PAW data deallocated on  107 nodes for type:  2
     Calculation restarted from scf iteration #    10

     total cpu time spent up to now is        9.2 secs

     Self-consistent Calculation

     iteration # 10     ecut=    70.00 Ry     beta= 0.70
     Calculation restarted from kpoint #     2
     Davidson diagonalization with overlap

---- Real-time Memory Report at c_bands before calling an iterative solver
           457 MiB given to the printing process from OS
             0 MiB allocation reported by mallinfo(arena+hblkhd)
       1968379 MiB available memory on the node where the printing process lives
------------------
     ethr =  2.22E-12,  avg # of iterations = 13.5


     -----------------------------------------------
     Non-local corr. energy    =      82.11291359 Ry
     -----------------------------------------------


     total cpu time spent up to now is     1676.1 secs

     End of self-consistent calculation

          k = 0.0000 0.0000 0.0000 (241213 PWs)   bands (ev):

    -6.8575  -6.6506  -6.6437  -6.6405  -6.6387  -6.6385  -6.6128  -6.6126
    -6.5701  -6.5062  -6.5008  -6.5007  -6.4997  -6.4927  -6.4925  -6.4697
    -6.4696  -6.4536  -6.4532  -6.4462  -6.4441  -6.4420  -6.4412  -6.4411
    -6.4370  -6.4348  -6.4346  -6.4233  -6.4203  -6.4186  -6.4178  -6.4093
    -6.4083  -6.4045  -6.4014  -6.3969  -6.3965  -6.3961  -6.3863  -6.3854
    -6.3839  -6.3834  -6.3831  -6.3818  -6.3800  -6.3794  -6.3777  -6.3776
    -6.3757  -6.3750  -6.3728  -6.3726  -6.3725  -6.3714  -6.3685  -6.3679
    -6.3673  -6.3670  -6.3664  -6.3644  -6.3638  -6.3627  -6.3625  -6.3589
    -6.3585  -6.3582  -6.3575  -6.3574  -6.3570  -6.3555  -6.3552  -6.3529
    -6.3529  -6.3518  -6.3481  -6.3480  -6.3469  -6.3467  -6.3448  -6.3443
    -6.3441  -6.3439  -6.3431  -6.3426  -6.3426  -6.3382  -6.3356  -6.3348
    -6.3330  -6.3309  -6.3305  -6.3290  -6.3287  -6.3245  -6.3229  -6.3225
    -6.3215  -6.3210  -6.3194  -6.3185  -6.3182  -6.3166  -6.3145  -6.3107
    -6.3106  -6.3097  -6.3066  -6.3064  -6.3033  -6.3012  -6.3009  -6.2942
    -6.2885  -6.2869  -6.2868  -6.2832  -6.2816  -6.2773  -6.2761  -6.2758
    -6.2753  -6.2669  -6.2666  -6.2563  -6.2531  -6.2529  -6.2509  -6.2506
    -6.2457  -6.2402  -6.2289  -6.2282  -6.2196  -6.2078  -6.2067  -6.2065
    -6.1786  -6.1748  -6.1514  -6.1507  -6.1308  -6.0960  -6.0953  -6.0902
    -6.0685  -6.0683  -6.0418  -6.0320  -6.0318  -5.2867  -5.2867  -5.2784
    -5.2708  -5.2700  -5.2693  -5.2693  -5.2687  -5.2687  -5.2659  -5.2649
    -5.2648  -5.2579  -5.2579  -5.2570  -5.2570  -5.2541  -5.2518  -5.2511
    -5.2498  -5.2498  -5.2492  -5.2492  -5.2481  -5.2443  -5.2443  -5.2437
    -5.2437  -5.2418  -5.2418  -5.2414  -5.2390  -5.2390  -5.2383  -5.2373
    -5.2373  -5.2353  -5.2352  -5.2335  -5.2334  -5.2324  -5.2323  -5.2301
    -5.2291  -5.2287  -5.2287  -5.2261  -5.2252  -5.2244  -5.2242  -5.2241
    -5.2227  -5.2227  -5.2217  -5.2191  -5.2191  -5.2174  -5.2174  -5.2158
    -5.2157  -5.2155  -5.2150  -5.2150  -5.2149  -5.2137  -5.2137  -5.2119
    -5.2119  -5.2109  -5.2092  -5.2091  -5.2086  -5.2069  -5.2069  -5.2067
    -5.2046  -5.2041  -5.2040  -5.2037  -5.2031  -5.2024  -5.2024  -5.2007
    -5.2000  -5.2000  -5.1997  -5.1996  -5.1980  -5.1979  -5.1967  -5.1967
    -5.1966  -5.1965  -5.1965  -5.1962  -5.1962  -5.1943  -5.1943  -5.1935
    -5.1917  -5.1900  -5.1900  -5.1892  -5.1892  -5.1885  -5.1879  -5.1879
    -5.1868  -5.1857  -5.1857  -5.1856  -5.1834  -5.1831  -5.1831  -5.1823
    -5.1820  -5.1816  -5.1815  -5.1810  -5.1809  -5.1804  -5.1804  -5.1787
    -5.1778  -5.1777  -5.1774  -5.1774  -5.1742  -5.1742  -5.1736  -5.1726
    -5.1725  -5.1718  -5.1713  -5.1699  -5.1699  -5.1689  -5.1684  -5.1683
    -5.1680  -5.1676  -5.1665  -5.1649  -5.1649  -5.1648  -5.1645  -5.1644
    -5.1637  -5.1628  -5.1627  -5.1617  -5.1616  -5.1615  -5.1575  -5.1575
    -5.1571  -5.1563  -5.1551  -5.1551  -5.1544  -5.1543  -5.1538  -5.1537
    -5.1522  -5.1522  -5.1515  -5.1514  -5.1514  -5.1513  -5.1498  -5.1474
    -5.1474  -5.1459  -5.1452  -5.1444  -5.1444  -5.1442  -5.1432  -5.1431
    -5.1429  -5.1418  -5.1418  -5.1409  -5.1407  -5.1407  -5.1397  -5.1363
    -5.1363  -5.1350  -5.1345  -5.1345  -5.1327  -5.1326  -5.1321  -5.1313
    -5.1313  -5.1302  -5.1301  -5.1292  -5.1274  -5.1274  -5.1269  -5.1269
    -5.1259  -5.1250  -5.1249  -5.1248  -5.1241  -5.1240  -5.1240  -5.1210
    -5.1210  -5.1199  -5.1199  -5.1196  -5.1190  -5.1190  -5.1187  -5.1172
    -5.1170  -5.1169  -5.1161  -5.1161  -5.1144  -5.1131  -5.1125  -5.1123
    -5.1123  -5.1112  -5.1112  -5.1106  -5.1095  -5.1088  -5.1088  -5.1081
    -5.1079  -5.1078  -5.1052  -5.1050  -5.1050  -5.1042  -5.1037  -5.1035
    -5.1035  -5.1026  -5.1017  -5.1017  -5.1011  -5.1006  -5.1006  -5.1001
    -5.1001  -5.0997  -5.0990  -5.0990  -5.0984  -5.0962  -5.0962  -5.0957
    -5.0954  -5.0954  -5.0947  -5.0947  -5.0934  -5.0926  -5.0926  -5.0918
    -5.0917  -5.0916  -5.0905  -5.0904  -5.0904  -5.0900  -5.0877  -5.0877
    -5.0873  -5.0873  -5.0871  -5.0868  -5.0865  -5.0865  -5.0848  -5.0843
    -5.0843  -5.0834  -5.0828  -5.0822  -5.0822  -5.0819  -5.0818  -5.0812
    -5.0811  -5.0806  -5.0798  -5.0798  -5.0793  -5.0780  -5.0780  -5.0761
    -5.0757  -5.0754  -5.0754  -5.0746  -5.0745  -5.0736  -5.0733  -5.0730
    -5.0719  -5.0719  -5.0718  -5.0718  -5.0701  -5.0700  -5.0700  -5.0691
    -5.0691  -5.0686  -5.0685  -5.0668  -5.0664  -5.0664  -5.0663  -5.0659
    -5.0649  -5.0649  -5.0637  -5.0636  -5.0635  -5.0632  -5.0629  -5.0629
    -5.0612  -5.0612  -5.0598  -5.0597  -5.0596  -5.0592  -5.0592  -5.0578
    -5.0577  -5.0577  -5.0562  -5.0562  -5.0552  -5.0548  -5.0548  -5.0539
    -5.0537  -5.0536  -5.0535  -5.0528  -5.0522  -5.0522  -5.0521  -5.0509
    -5.0509  -5.0499  -5.0488  -5.0488  -5.0487  -5.0479  -5.0479  -5.0468
    -5.0466  -5.0466  -5.0458  -5.0446  -5.0445  -5.0441  -5.0440  -5.0440
    -5.0433  -5.0432  -5.0410  -5.0409  -5.0408  -5.0405  -5.0397  -5.0397
    -5.0387  -5.0387  -5.0386  -5.0381  -5.0378  -5.0377  -5.0369  -5.0366
    -5.0366  -5.0349  -5.0326  -5.0325  -5.0321  -5.0319  -5.0319  -5.0318
    -5.0316  -5.0305  -5.0304  -5.0295  -5.0295  -5.0280  -5.0279  -5.0270
    -5.0262  -5.0262  -5.0260  -5.0251  -5.0251  -5.0247  -5.0245  -5.0245
    -5.0235  -5.0234  -5.0224  -5.0223  -5.0214  -5.0212  -5.0211  -5.0201
    -5.0186  -5.0186  -5.0173  -5.0173  -5.0164  -5.0164  -5.0163  -5.0162
    -5.0139  -5.0138  -5.0137  -5.0135  -5.0134  -5.0134  -5.0124  -5.0123
    -5.0123  -5.0107  -5.0104  -5.0104  -5.0104  -5.0087  -5.0087  -5.0081
    -5.0081  -5.0075  -5.0074  -5.0067  -5.0067  -5.0061  -5.0060  -5.0046
    -5.0025  -5.0025  -5.0014  -5.0012  -5.0011  -5.0011  -4.9999  -4.9999
    -4.9985  -4.9982  -4.9972  -4.9972  -4.9957  -4.9952  -4.9951  -4.9936
    -4.9936  -4.9933  -4.9917  -4.9911  -4.9910  -4.9910  -4.9907  -4.9907
    -4.9901  -4.9892  -4.9892  -4.9883  -4.9874  -4.9867  -4.9867  -4.9858
    -4.9857  -4.9834  -4.9819  -4.9819  -4.9815  -4.9791  -4.9791  -4.9783
    -4.9782  -4.9776  -4.9760  -4.9755  -4.9748  -4.9748  -4.9742  -4.9742
    -4.9725  -4.9724  -4.9719  -4.9702  -4.9699  -4.9699  -4.9690  -4.9690
    -4.9669  -4.9668  -4.9668  -4.9651  -4.9651  -4.9650  -4.9631  -4.9606
    -4.9606  -4.9590  -4.9589  -4.9582  -4.9582  -4.9546  -4.9546  -4.9543
    -4.9543  -4.9538  -4.9490  -4.9489  -4.9473  -4.9473  -4.9457  -4.9457
    -4.9431  -4.9410  -4.9369  -4.9368  -4.9367  -4.9346  -4.9324  -4.9319
    -4.9318  -4.9276  -4.9276  -4.9271  -4.9235  -4.9204  -4.9203  -4.9196
    -4.9158  -4.9157  -4.9127  -4.9089  -4.9089  -4.9056  -4.9049  -4.9047
    -4.8997  -4.8994  -4.8979  -4.8978  -4.8903  -4.8901  -4.8900  -4.8899
    -4.8899  -4.8873  -4.8873  -4.8791  -4.8791  -4.8769  -4.8769  -4.8768
    -4.8748  -4.8721  -4.8655  -4.8654  -4.8642  -4.8614  -4.8614  -4.8599
    -4.8598  -4.8560  -4.8521  -4.8521  -4.8485  -4.8478  -4.8476  -4.8401
    -4.8400  -4.8267  -4.8259  -4.7734  -4.7636  -4.7578  -4.7578  -4.7522
    -4.7522  -4.7388  -4.7388  -4.7308  -4.7308  -4.7246  -4.6421  -4.5343
    -4.5332  -4.5209  -4.4855  -4.4852  -4.4802  -4.4788  -4.4772  -4.4764
    -4.4365  -4.4364  -4.4049  -4.3203  -4.3197  -4.3179  -4.2983  -4.2982
    -4.2896  -4.2863  -4.2860  -4.2764  -4.2764  -4.2686  -4.2616  -4.2525
    -4.2469  -4.2466  -4.2292  -4.0561  -4.0558  -4.0551  -4.0511  -4.0509
    -4.0429  -4.0358  -4.0356  -4.0283  -4.0281  -4.0204  -4.0184  -3.9930
    -3.9773  -3.9773  -3.9581  -3.9576  -3.9575  -3.9542  -3.9402  -3.9402
    -3.9332  -3.9331  -3.9278  -3.8936  -3.8936  -3.8724  -3.8723  -3.8182
    -3.7982  -3.7882  -3.7850  -3.7848  -3.7705  -3.7683  -3.7681  -3.7422
    -3.7419  -3.7164  -3.7019  -3.7018  -3.5342  -3.4768  -3.3763  -3.3763
    -3.3679  -3.3677  -3.3631  -3.3620  -3.3618  -3.3597  -3.3587  -3.3586
    -3.3518  -3.3518  -3.3507  -3.3496  -3.3494  -3.3461  -3.3411  -3.3236
    -3.2787  -3.2786  -3.2717  -3.2717  -3.2601  -3.2585  -3.2581  -3.2580
    -3.2496  -3.2481  -3.2481  -3.2458  -3.2435  -3.2435  -3.2416  -3.2380
    -3.2380  -3.2330  -3.2329  -3.2221  -3.2157  -3.2152  -3.2077  -3.2077
    -3.1995  -3.1994  -3.1683  -3.1682  -3.1338  -3.1301  -3.1300  -3.0840
    -3.0691  -3.0691  -3.0367  -3.0366  -3.0316  -3.0315  -3.0314  -3.0145
    -2.9928  -2.9927  -2.9880  -2.9872  -2.9203  -2.9201  -2.9200  -2.9049
    -2.9049  -2.9031  -2.8881  -2.8879  -2.8852  -2.8777  -2.8747  -2.8747
    -2.8691  -2.8691  -2.7970  -2.7936  -2.7765  -2.7762  -2.7377  -2.7376
     2.0941   2.2741   2.5414   2.5505   2.5507   2.6021   2.6022   2.6086
     2.6089   2.6105   2.6127   2.6130   2.6195   2.6240   2.6262   2.6280
     2.6285   2.6322   2.6322   2.6355   2.6359   2.6434   2.6436   2.6563
     2.6581   2.6837   2.6913   2.6985   2.6987   2.7178   2.7186   2.7549
     2.8113   2.8122   2.8368   2.8390   2.8394   2.8435   2.9581   2.9638
     2.9640   2.9893   2.9895   3.0022   3.0093   3.0094   3.0137   3.0138
     3.0148   3.0276   3.0278   3.0472   3.0554   3.0766   3.1217   3.1217
     3.1380   3.1452   3.1452   3.1805   3.1805   3.2051   3.2554   3.2555
     3.2592   3.2593   3.2635   3.2761   3.2827   3.2843   3.2845   3.2902
     3.2905   3.3042   3.3108   3.3192   3.3236   3.3241   3.3276   3.3277
     3.3731   3.3737   3.4618   3.5180   3.5389   3.5392   3.6062   3.6148
     3.6973   3.7005   3.7096   3.7098   3.7148   3.7149   3.7219   3.7222
     3.7416   3.7431   3.7675   3.7675   3.7795   3.7796   3.8091   3.8093
     3.8961   3.9231   3.9622   3.9629   3.9874   3.9957   3.9960   4.0084
     4.0167   4.0167   4.0191   4.0371   4.0371   4.0389   4.0551   4.0553
     4.1482   4.1506   4.1506   4.4232   4.5644   4.5651   4.5738   4.5768
     4.5768   4.6014   4.6030   4.6065   4.6072   4.6308   4.6384   4.6391
     4.6707   4.6710   4.6897   4.6906   4.7065   4.7345   4.7384   4.7385
     4.8121   4.8124   4.8663   4.9548   5.0116   5.0148   5.0148   5.0381
     5.0552   5.0552   5.0570   5.0571   5.0573   5.1238   5.1638   5.1638
     5.4878   5.4879   5.4882   5.4964   5.5069   5.5071   5.5075   5.5145
     5.5146   5.5196   5.5197   5.5555   5.5556   5.5595   5.5595   5.5607
     5.6062   5.6620   5.7092   5.7094   5.7384   5.7535   5.7539   5.8662
     5.8807   5.8958   5.8959   5.9024   5.9025   5.9178   5.9227   5.9230
     5.9301   5.9303   5.9303   5.9419   5.9559   5.9562   5.9595   5.9596
     5.9661   6.0012   6.0037   6.0115   6.0219   6.0222   6.0246   6.0273
     6.0276   6.0309   6.0309   6.0350   6.0392   6.0395   6.0436   6.0490
     6.0491   6.0614   6.0617   6.0674   6.0676   6.0684   6.0726   6.0728
     6.0736   6.0828   6.0928   6.1011   6.1014   6.1103   6.1328   6.1332
     6.1494   6.1495   6.2038   6.2406   6.2411   6.2733   6.3072   6.3120
     6.3125   6.3680   6.3687   6.3688   6.3697   6.3698   6.3746   6.3809
     6.4048   6.4051   6.4135   6.4135   6.4675   6.4800   6.4801   6.5088
     6.5225   6.5231   6.5231   6.5344   6.5459   6.5506   6.5508   6.5843
     6.5931   6.5976   6.5978   6.6288   6.6291   6.6546   6.6620   6.6653
     6.6657   6.6696   6.6698   6.6709   6.6712   6.6770   6.6825   6.6831
     6.7053   6.7108   6.7109   6.7286   6.7290   6.7294   6.7493   6.7654
     6.7655   6.7708   6.7842   6.7853   6.7854   6.8173   6.8199   6.8202
     6.8350   6.8353   6.8895   6.8993   6.9116   6.9119   6.9120   6.9234
     6.9388   6.9388   6.9391   6.9485   6.9487   7.0892   7.0894   7.1535
     7.1548   7.1572   7.1574   7.1794   7.1822   7.1826   7.1980   7.1981
     7.2294   7.2334   7.2335   7.2743   7.3125   7.3127   7.3255   7.3256
     7.3379   7.3382   7.3382   7.3522   7.3586   7.3589   7.3690   7.4120
     7.4132   7.4132   7.4190   7.4203   7.4206   7.4268   7.4408   7.4454
     7.4477   7.4479   7.4510   7.4514   7.4526   7.4555   7.4556   7.4568
     7.4572   7.4610   7.4681   7.4770   7.4782   7.4783   7.4830   7.4841
     7.4846   7.4920   7.4953   7.4954   7.5095   7.5096   7.5150   7.5151
     7.5338   7.5384   7.5391   7.5396   7.5548   7.5553   7.5946   7.5966
     7.6032   7.6032   7.6231   7.6267   7.6268   7.6464   7.6647   7.6649
     7.6668   7.6807   7.6809   7.6916   7.6917   7.6935   7.6938   7.7197
     7.7199   7.7322   7.7341   7.7341   7.7536   7.7536   7.7628   7.7687
     7.7689   7.7998   7.7999   7.8055   7.8352   7.8356   7.9087   7.9135
     7.9139   7.9300   7.9305   7.9531   8.0169   8.0521   8.0523   8.0631
     8.0632   8.0876   8.0879   8.1141   8.1193   8.1321   8.1334   8.1335
     8.1593   8.1595   8.1610   8.1611   8.1630   8.3351   8.3448   8.3575
     8.3575   8.4003   8.4004   8.4379   8.4380   8.4818   8.5061   8.5065
     8.5099   8.5396   8.5397   8.5799   8.5803   8.7511   8.7956   8.7958
    10.3687  10.4409  10.6124  10.6127  12.0813  12.0832  12.2381  12.2617
    12.2618  12.3313  12.3313  12.3597  12.6938  12.8338  12.8726  12.9107
    12.9169  12.9173  12.9262  12.9263  12.9320  12.9444  12.9636  12.9638
    12.9756  12.9759  12.9979  13.0093  13.0254  13.0287  13.0291  13.0511
    13.0515  13.0555  13.0558  13.0774  13.0779  13.1552  13.2757  13.6707
    13.6913  13.6919  13.7198  13.7208  13.7312  13.8654  13.8659  13.8677
    13.8737  13.8740  13.8842  13.8849  13.8914  13.8956  13.8958  13.9051
    13.9206  13.9210  13.9219  13.9317  13.9406  13.9408  13.9414  13.9415
    13.9446  13.9578  13.9578  13.9611  13.9855  14.0262  14.0263  14.0333
    14.0337  14.0371  14.0399  14.0531  14.0536  14.0560  14.0814  14.0891
    14.0894  14.0908  14.0992  14.0994  14.1021  14.1242  14.1330  14.1331
    14.1739  14.1879  14.1880  14.1923  14.1937  14.1943  14.2049  14.2051
    14.2104  14.2106  14.2138  14.2241  14.2416  14.2420  14.2534  14.2534
    14.2959  14.3200  14.3303  14.3307  14.4184  14.4186  14.5161  14.5164
    14.5165  14.5184  14.5731  14.5739  14.8095  14.8668  14.8670  14.9306
    14.9313  14.9338  14.9510  14.9512  14.9578  14.9743  14.9749  14.9769
    14.9876  15.0456  15.0460  15.0804  15.1020  15.1020  15.1101  15.1255
    15.1261  15.1471  15.1488  15.1566  15.1694  15.1710  15.1712  15.1759
    15.2058  15.2061  15.2390  15.2390  15.2717  15.2994  15.3233  15.3235
    15.4153  15.4154  15.4376  15.4489  15.4494  15.5191  15.6254  15.6526
    15.6960  15.6962  15.7810  15.7890  15.7899  15.8007  15.8620  15.8622
    15.8987  15.8990  15.9317  15.9373  15.9664  15.9789  15.9794  15.9829
    15.9834  16.0226  16.0229  16.0332  16.0356  16.0397  16.0399  16.0945
    16.1311  16.1491  16.1492  16.1514  16.1517  16.1576  16.1751  16.1751
    16.1756  16.1759  16.1817  16.1824  16.1825  16.1883  16.1896  16.1934
    16.1937  16.1945  16.2020  16.2021  16.2076  16.2082  16.2100  16.2443
    16.2443  16.2458  16.2462  16.2472  16.2562  16.2616  16.2622  16.2876
    16.2883  16.2914  16.2924  16.3083  16.3085  16.3288  16.3292  16.3301
    16.3309  16.3510  16.3635  16.3639  16.3720  16.3727  16.3886  16.3887
    16.3922  16.4047  16.4049  16.4054  16.4117  16.4328  16.4329  16.4377
    16.4383  16.4511  16.4810  16.4812  16.4826  16.4833  16.4835  16.4874
    16.4935  16.4939  16.5109  16.5208  16.5208  16.5300  16.5300  16.5404
    16.5609  16.5772  16.6074  16.6077  16.6085  16.6379  16.6383  16.6599
    16.6722  16.6851  16.6854  16.6966  16.7145  16.7147  16.7268  16.7270
    16.7510  16.7511

     occupation numbers 
     1.0000   1.0000   1.0000   1.0000   1.0000   1.0000   1.0000   1.0000
     1.0000   1.0000   1.0000   1.0000   1.0000   1.0000   1.0000   1.0000
     1.0000   1.0000   1.0000   1.0000   1.0000   1.0000   1.0000   1.0000
     1.0000   1.0000   1.0000   1.0000   1.0000   1.0000   1.0000   1.0000
     1.0000   1.0000   1.0000   1.0000   1.0000   1.0000   1.0000   1.0000
     1.0000   1.0000   1.0000   1.0000   1.0000   1.0000   1.0000   1.0000
     1.0000   1.0000   1.0000   1.0000   1.0000   1.0000   1.0000   1.0000
     1.0000   1.0000   1.0000   1.0000   1.0000   1.0000   1.0000   1.0000
     1.0000   1.0000   1.0000   1.0000   1.0000   1.0000   1.0000   1.0000
     1.0000   1.0000   1.0000   1.0000   1.0000   1.0000   1.0000   1.0000
     1.0000   1.0000   1.0000   1.0000   1.0000   1.0000   1.0000   1.0000
     1.0000   1.0000   1.0000   1.0000   1.0000   1.0000   1.0000   1.0000
     1.0000   1.0000   1.0000   1.0000   1.0000   1.0000   1.0000   1.0000
     1.0000   1.0000   1.0000   1.0000   1.0000   1.0000   1.0000   1.0000
     1.0000   1.0000   1.0000   1.0000   1.0000   1.0000   1.0000   1.0000
     1.0000   1.0000   1.0000   1.0000   1.0000   1.0000   1.0000   1.0000
     1.0000   1.0000   1.0000   1.0000   1.0000   1.0000   1.0000   1.0000
     1.0000   1.0000   1.0000   1.0000   1.0000   1.0000   1.0000   1.0000
     1.0000   1.0000   1.0000   1.0000   1.0000   1.0000   1.0000   1.0000
     1.0000   1.0000   1.0000   1.0000   1.0000   1.0000   1.0000   1.0000
     1.0000   1.0000   1.0000   1.0000   1.0000   1.0000   1.0000   1.0000
     1.0000   1.0000   1.0000   1.0000   1.0000   1.0000   1.0000   1.0000
     1.0000   1.0000   1.0000   1.0000   1.0000   1.0000   1.0000   1.0000
     1.0000   1.0000   1.0000   1.0000   1.0000   1.0000   1.0000   1.0000
     1.0000   1.0000   1.0000   1.0000   1.0000   1.0000   1.0000   1.0000
     1.0000   1.0000   1.0000   1.0000   1.0000   1.0000   1.0000   1.0000
     1.0000   1.0000   1.0000   1.0000   1.0000   1.0000   1.0000   1.0000
     1.0000   1.0000   1.0000   1.0000   1.0000   1.0000   1.0000   1.0000
     1.0000   1.0000   1.0000   1.0000   1.0000   1.0000   1.0000   1.0000
     1.0000   1.0000   1.0000   1.0000   1.0000   1.0000   1.0000   1.0000
     1.0000   1.0000   1.0000   1.0000   1.0000   1.0000   1.0000   1.0000
     1.0000   1.0000   1.0000   1.0000   1.0000   1.0000   1.0000   1.0000
     1.0000   1.0000   1.0000   1.0000   1.0000   1.0000   1.0000   1.0000
     1.0000   1.0000   1.0000   1.0000   1.0000   1.0000   1.0000   1.0000
     1.0000   1.0000   1.0000   1.0000   1.0000   1.0000   1.0000   1.0000
     1.0000   1.0000   1.0000   1.0000   1.0000   1.0000   1.0000   1.0000
     1.0000   1.0000   1.0000   1.0000   1.0000   1.0000   1.0000   1.0000
     1.0000   1.0000   1.0000   1.0000   1.0000   1.0000   1.0000   1.0000
     1.0000   1.0000   1.0000   1.0000   1.0000   1.0000   1.0000   1.0000
     1.0000   1.0000   1.0000   1.0000   1.0000   1.0000   1.0000   1.0000
     1.0000   1.0000   1.0000   1.0000   1.0000   1.0000   1.0000   1.0000
     1.0000   1.0000   1.0000   1.0000   1.0000   1.0000   1.0000   1.0000
     1.0000   1.0000   1.0000   1.0000   1.0000   1.0000   1.0000   1.0000
     1.0000   1.0000   1.0000   1.0000   1.0000   1.0000   1.0000   1.0000
     1.0000   1.0000   1.0000   1.0000   1.0000   1.0000   1.0000   1.0000
     1.0000   1.0000   1.0000   1.0000   1.0000   1.0000   1.0000   1.0000
     1.0000   1.0000   1.0000   1.0000   1.0000   1.0000   1.0000   1.0000
     1.0000   1.0000   1.0000   1.0000   1.0000   1.0000   1.0000   1.0000
     1.0000   1.0000   1.0000   1.0000   1.0000   1.0000   1.0000   1.0000
     1.0000   1.0000   1.0000   1.0000   1.0000   1.0000   1.0000   1.0000
     1.0000   1.0000   1.0000   1.0000   1.0000   1.0000   1.0000   1.0000
     1.0000   1.0000   1.0000   1.0000   1.0000   1.0000   1.0000   1.0000
     1.0000   1.0000   1.0000   1.0000   1.0000   1.0000   1.0000   1.0000
     1.0000   1.0000   1.0000   1.0000   1.0000   1.0000   1.0000   1.0000
     1.0000   1.0000   1.0000   1.0000   1.0000   1.0000   1.0000   1.0000
     1.0000   1.0000   1.0000   1.0000   1.0000   1.0000   1.0000   1.0000
     1.0000   1.0000   1.0000   1.0000   1.0000   1.0000   1.0000   1.0000
     1.0000   1.0000   1.0000   1.0000   1.0000   1.0000   1.0000   1.0000
     1.0000   1.0000   1.0000   1.0000   1.0000   1.0000   1.0000   1.0000
     1.0000   1.0000   1.0000   1.0000   1.0000   1.0000   1.0000   1.0000
     1.0000   1.0000   1.0000   1.0000   1.0000   1.0000   1.0000   1.0000
     1.0000   1.0000   1.0000   1.0000   1.0000   1.0000   1.0000   1.0000
     1.0000   1.0000   1.0000   1.0000   1.0000   1.0000   1.0000   1.0000
     1.0000   1.0000   1.0000   1.0000   1.0000   1.0000   1.0000   1.0000
     1.0000   1.0000   1.0000   1.0000   1.0000   1.0000   1.0000   1.0000
     1.0000   1.0000   1.0000   1.0000   1.0000   1.0000   1.0000   1.0000
     1.0000   1.0000   1.0000   1.0000   1.0000   1.0000   1.0000   1.0000
     1.0000   1.0000   1.0000   1.0000   1.0000   1.0000   1.0000   1.0000
     1.0000   1.0000   1.0000   1.0000   1.0000   1.0000   1.0000   1.0000
     1.0000   1.0000   1.0000   1.0000   1.0000   1.0000   1.0000   1.0000
[...]
Ga            6.4951444407       13.1161805805       15.8576946621
N             1.6220868906        0.9365108320        9.8846936929
N             1.6212706806        0.9360395929       15.1682608254
N            -0.0713504623        3.8531577669        4.6307753421
N            -0.0026113672        3.7702769199        9.9527664353
N            -0.0017323960        3.7726087321       15.1651793630
N            -1.6363449188        6.5910050002        4.6268203415
N            -1.6230236206        6.5639054822        9.9257627237
N            -1.6219147601        6.5609956960       15.2096264332
N            -3.2215644617        9.3366857898        4.6268203415
N            -3.2383726836        9.3617721313        9.9257627237
N            -3.2403382022        9.3641873259       15.2096264332
N            -4.8101124890       12.0609343625        4.6307753421
N            -4.8475198606       12.1619045886        9.9527664353
N            -4.8450609664       12.1614998939       15.1651793630
N             4.9950128541        0.9455645731        4.6308952628
N             4.8886858652        0.9270459077        9.9523531319
N             4.8899787703        0.9256860436       15.1651204419
N             3.3163906421        3.8530235310        4.6308952628
N             3.2471895130        3.7702009901        9.9523531319
N             3.2466582887        3.7720006109       15.1651204419
N             1.6223930155        6.5579443897        4.6382973020
N             1.6224137489        6.5685829196        9.9143153418
N             1.6226304994        6.5604532411       15.2144850536
N             0.0036522154        9.3683116468        4.6328890364
N             0.0016693860        9.3671668597        9.9185635051
N             0.0007880948        9.3666580460       15.2117596443
N            -1.6208268232       12.1753659304        4.6382973020
N            -1.6116032193       12.1700646211        9.9143153418
N            -1.6185353522       12.1743171718       15.2144850536
N             8.1487408423        0.9319020966        4.6265987235
N             8.1182145112        0.9338845996        9.9258088274
N             8.1150481649        0.9347354020       15.2097092998
N             6.5121328721        3.7597801958        4.6353658838
N             6.4938074604        3.7492000145        9.9254487340
N             6.4907929919        3.7474596103       15.2073413846
N             4.8814225845        6.5910633238        4.6265987235
N             4.8678763170        6.5636354941        9.9258088274
N             4.8670299603        6.5604679566       15.2097092998
N             3.2406166725        9.3680460683        4.6329708246
N             3.2429192349        9.3669256259        9.9187547336
N             3.2442984284        9.3664345364       15.2120282877
N             1.6219044462       12.1717378872        4.6329708246
N             1.6220853958       12.1742921859        9.9187547336
N             1.6223496966       12.1757321473       15.2120282877
N            11.3180962539        0.9313469965        4.6264182018
N            11.3490141286        0.9339251497        9.9260794193
N            11.3521594029        0.9347459039       15.2095983764
N             9.7346468716        3.7484559804        4.6316657863
N             9.7340253291        3.7463581630        9.9242170267
N             9.7340711790        3.7475301037       15.2088357947
N             8.1135828135        6.5562212913        4.6316657863
N             8.1114552791        6.5567319284        9.9242170267
N             8.1124931345        6.5561856653       15.2088357947
N             6.4656195595        9.3360831739        4.6264182018
N             6.4833112430        9.3615697622        9.9260794193
N             6.4855946742        9.3638832726       15.2095983764
N             4.8644441965       12.1746912056        4.6381263956
N             4.8560709877       12.1698569313        9.9148628241
N             4.8632395242       12.1739956878       15.2146447120
N            14.4719617425        0.9448781087        4.6312611058
N            14.5782402795        0.9268048117        9.9524752724
N            14.5765868315        0.9251970117       15.1650514886
N            12.9565436728        3.7586004455        4.6352376717
N            12.9737863504        3.7492020254        9.9250959069
N            12.9770160241        3.7475892705       15.2071873550
N            11.3549841614        6.5558016915        4.6313998314
N            11.3564945610        6.5566737211        9.9239002707
N            11.3556513436        6.5561868893       15.2086548844
N             9.7333165787        9.3413935371        4.6352376717
N             9.7337986469        9.3610253439        9.9250959069
N             9.7340167971        9.3646287008       15.2071873550
N             8.0542705907       12.0606452511        4.6312611058
N             8.0917579248       12.1617218125        9.9524752724
N             8.0895388052       12.1610937846       15.1650514886
N            -0.0719548890        1.9142061965        1.8498748327
N            -0.0778465631        1.9167219035        7.3941298442
N            -0.0055820794        1.8763204774       12.5425999791
N            -1.6282921547        4.6909245981        1.9805909648
N            -1.6382692257        4.7019505349        7.2882969755
N            -1.6341655984        4.6915717432       12.5639036666
N            -3.2461186720        7.4920597000        1.9833830530
N            -3.2480627387        7.4909372925        7.2804741181
N            -3.2449236622        7.4927496392       12.5681225793
N            -4.8630595709       10.2937061137        1.9805909648
N            -4.8584993651       10.2795527484        7.2882969755
N            -4.8654358487       10.2882959897       12.5639036666
N            -6.4895996129       13.0298929235        1.8498748327
N            -6.4903667838       13.0235327306        7.3941298442
N            -6.4892232032       13.1063163224       12.5425999791
N             3.3142715558        1.9134982538        1.8499872213
N             3.3202859191        1.9169706481        7.3939261485
N             3.2499187328        1.8763441341       12.5428994728
N             1.6226752690        4.6729155876        1.9853659046
N             1.6220939642        4.6824530300        7.2873306519
N             1.6225162270        4.6990851370       12.5600169799
N             0.0020244456        7.4923526481        1.9921846520
N            -0.0024579528        7.4952122575        7.2746591340
N             0.0005696880        7.4952774047       12.5661391246
N            -1.6217934126       10.3048876809        1.9921846520
N            -1.6215581174       10.2995760052        7.2746591340
N            -1.6199878779       10.3021654456       12.5661391246
N            -3.2531721196       13.1181309949        1.9853659046
N            -3.2452031047       13.1128588490        7.2873306519
N            -3.2305881461       13.1049084859       12.5600169799
N             6.4986512830        1.8753879963        1.9809002133
N             6.5133718162        1.8779712881        7.2883165109
N             6.5025534778        1.8798587598       12.5640339538
N             4.8734569683        4.6903071217        1.9809002133
N             4.8830544312        4.7017638315        7.2883165109
N             4.8792798604        4.6914511399       12.5640339538
N             3.2427509626        7.4921428919        1.9922012243
N             3.2469435712        7.4950186771        7.2744286517
N             3.2446965906        7.4952673585       12.5660042188
N             1.6225305924       10.3029756634        1.9896196479
N             1.6222507345       10.3028140873        7.2752907174
N             1.6226206030       10.3030276311       12.5652842241
N            -0.0016118083       13.1115440495        1.9922012243
N             0.0029749990       13.1137370625        7.2744286517
N             0.0020668731       13.1116667795       12.5660042188
N             9.7333547738        1.8758291942        1.9834276563
N             9.7329835508        1.8776313542        7.2807679873
N             9.7335972754        1.8743761437       12.5684305577
N             8.1144778362        4.6848986421        1.9870194246
N             8.1168800773        4.6862855766        7.2786938442
N             8.1145641913        4.6849484992       12.5659226375
N             6.4911908022        7.4914219196        1.9834276563
N             6.4925659071        7.4901993511        7.2807679873
N             6.4900536744        7.4923584574       12.5684305577
N             4.8666607824       10.3048690206        1.9920767453
N             4.8656284774       10.2990614523        7.2745247047
N             4.8648525867       10.3018422659       12.5661114336
N             3.2462353828       13.1115281426        1.9920767453
N             3.2406897287       13.1135379244        7.2745247047
N             3.2427100385       13.1114755765       12.5661114336
N            12.9678519556        1.8753759999        1.9807581591
N            12.9524988647        1.8775200256        7.2886909677
N            12.9649224797        1.8798880319       12.5643295674
N            11.3538031621        4.6848883398        1.9872542403
N            11.3509475634        4.6863030952        7.2786963484
N            11.3532164680        4.6851172694       12.5659641173
N             9.7341315772        7.4902418167        1.9872542403
N             9.7339289920        7.4870614180        7.2786963484
N             9.7340364890        7.4896192599       12.5659641173
N             8.1080469155       10.2928052447        1.9807581591
N             8.1022271507       10.2784370651        7.2886909677
N             8.1104897118       10.2880122281       12.5643295674
N             6.4978477192       13.1177413191        1.9853975929
N             6.4878608994       13.1119754259        7.2872698557
N             6.4751498082       13.1046366740       12.5602141711
Ga            1.6219650093        0.9364404638        4.6094272788



     Writing config-only to output data dir ./GaN.save/
     NEW-OLD atomic charge density approx. for the potential

     Check: negative core charge=   -0.000003


     -----------------------------------------------
     Non-local corr. energy    =      82.11283654 Ry
     -----------------------------------------------


     total cpu time spent up to now is   111801.2 secs

     Self-consistent Calculation

     iteration #  1     ecut=    70.00 Ry     beta= 0.70
     Davidson diagonalization with overlap

---- Real-time Memory Report at c_bands before calling an iterative solver
          3540 MiB given to the printing process from OS
             0 MiB allocation reported by mallinfo(arena+hblkhd)
       1905837 MiB available memory on the node where the printing process lives
------------------
     ethr =  1.00E-06,  avg # of iterations =  3.0

     Threshold (ethr) on eigenvalues was too large:
     Diagonalizing with lowered threshold

     Davidson diagonalization with overlap

---- Real-time Memory Report at c_bands before calling an iterative solver
          3540 MiB given to the printing process from OS
             0 MiB allocation reported by mallinfo(arena+hblkhd)
       1912384 MiB available memory on the node where the printing process lives
------------------
     ethr =  6.73E-08,  avg # of iterations =  2.0


     -----------------------------------------------
     Non-local corr. energy    =      82.11272258 Ry
     -----------------------------------------------


     total cpu time spent up to now is   112769.8 secs

     total energy              =  -47095.95506319 Ry
     estimated scf accuracy    <       0.00185403 Ry

     iteration #  2     ecut=    70.00 Ry     beta= 0.70
     Davidson diagonalization with overlap

---- Real-time Memory Report at c_bands before calling an iterative solver
          3540 MiB given to the printing process from OS
             0 MiB allocation reported by mallinfo(arena+hblkhd)
       1895714 MiB available memory on the node where the printing process lives
------------------
     ethr =  6.84E-08,  avg # of iterations =  6.5


     -----------------------------------------------
     Non-local corr. energy    =      82.11274399 Ry
     -----------------------------------------------


     total cpu time spent up to now is   113680.0 secs

     total energy              =  -47095.95557317 Ry
     estimated scf accuracy    <       0.00040340 Ry

     iteration #  3     ecut=    70.00 Ry     beta= 0.70
     Davidson diagonalization with overlap

---- Real-time Memory Report at c_bands before calling an iterative solver
          3540 MiB given to the printing process from OS
             0 MiB allocation reported by mallinfo(arena+hblkhd)
       1895712 MiB available memory on the node where the printing process lives
------------------
     ethr =  1.49E-08,  avg # of iterations = 13.0


     -----------------------------------------------
     Non-local corr. energy    =      82.11274609 Ry
     -----------------------------------------------


     total cpu time spent up to now is   115142.2 secs

     total energy              =  -47095.95559798 Ry
     estimated scf accuracy    <       0.00022377 Ry

     iteration #  4     ecut=    70.00 Ry     beta= 0.70
     Davidson diagonalization with overlap

---- Real-time Memory Report at c_bands before calling an iterative solver
          3540 MiB given to the printing process from OS
             0 MiB allocation reported by mallinfo(arena+hblkhd)
       1895682 MiB available memory on the node where the printing process lives
------------------
     ethr =  8.26E-09,  avg # of iterations = 14.0


     -----------------------------------------------
     Non-local corr. energy    =      82.11275467 Ry
     -----------------------------------------------


     total cpu time spent up to now is   116669.0 secs

     total energy              =  -47095.95562178 Ry
     estimated scf accuracy    <       0.00015503 Ry

     iteration #  5     ecut=    70.00 Ry     beta= 0.70
     Davidson diagonalization with overlap

---- Real-time Memory Report at c_bands before calling an iterative solver
          3540 MiB given to the printing process from OS
             0 MiB allocation reported by mallinfo(arena+hblkhd)
       1895630 MiB available memory on the node where the printing process lives
------------------
     ethr =  5.72E-09,  avg # of iterations =  1.2


     -----------------------------------------------
     Non-local corr. energy    =      82.11277195 Ry
     -----------------------------------------------


     total cpu time spent up to now is   116962.8 secs

     total energy              =  -47095.95563853 Ry
     estimated scf accuracy    <       0.00010623 Ry

     iteration #  6     ecut=    70.00 Ry     beta= 0.70
     Davidson diagonalization with overlap

---- Real-time Memory Report at c_bands before calling an iterative solver
          3540 MiB given to the printing process from OS
             0 MiB allocation reported by mallinfo(arena+hblkhd)
       1895568 MiB available memory on the node where the printing process lives
------------------
     ethr =  3.92E-09,  avg # of iterations =  1.0


     -----------------------------------------------
     Non-local corr. energy    =      82.11280394 Ry
     -----------------------------------------------


     total cpu time spent up to now is   117231.7 secs

     total energy              =  -47095.95565399 Ry
     estimated scf accuracy    <       0.00005446 Ry

     iteration #  7     ecut=    70.00 Ry     beta= 0.70
     Davidson diagonalization with overlap

---- Real-time Memory Report at c_bands before calling an iterative solver
          3540 MiB given to the printing process from OS
             0 MiB allocation reported by mallinfo(arena+hblkhd)
       1895484 MiB available memory on the node where the printing process lives
------------------
     ethr =  2.01E-09,  avg # of iterations =  5.3


     -----------------------------------------------
     Non-local corr. energy    =      82.11281131 Ry
     -----------------------------------------------


     total cpu time spent up to now is   117763.1 secs

     total energy              =  -47095.95565631 Ry
     estimated scf accuracy    <       0.00000448 Ry

     iteration #  8     ecut=    70.00 Ry     beta= 0.70
     Davidson diagonalization with overlap

---- Real-time Memory Report at c_bands before calling an iterative solver
          3540 MiB given to the printing process from OS
             0 MiB allocation reported by mallinfo(arena+hblkhd)
       1895377 MiB available memory on the node where the printing process lives
------------------
     ethr =  1.65E-10,  avg # of iterations = 11.2


     -----------------------------------------------
     Non-local corr. energy    =      82.11282252 Ry
     -----------------------------------------------


     total cpu time spent up to now is   120490.6 secs

     total energy              =  -47095.95565803 Ry
     estimated scf accuracy    <       0.00000048 Ry

     iteration #  9     ecut=    70.00 Ry     beta= 0.70
     Davidson diagonalization with overlap

---- Real-time Memory Report at c_bands before calling an iterative solver
          3540 MiB given to the printing process from OS
             0 MiB allocation reported by mallinfo(arena+hblkhd)
       1895263 MiB available memory on the node where the printing process lives
------------------
     ethr =  1.75E-11,  avg # of iterations = 16.3


     -----------------------------------------------
     Non-local corr. energy    =      82.11282771 Ry
     -----------------------------------------------


     total cpu time spent up to now is   122096.1 secs

     total energy              =  -47095.95565805 Ry
     estimated scf accuracy    <       0.00000003 Ry

     iteration # 10     ecut=    70.00 Ry     beta= 0.70
     Davidson diagonalization with overlap

---- Real-time Memory Report at c_bands before calling an iterative solver
          3540 MiB given to the printing process from OS
             0 MiB allocation reported by mallinfo(arena+hblkhd)
       1895112 MiB available memory on the node where the printing process lives
------------------
     ethr =  1.01E-12,  avg # of iterations = 15.0


     -----------------------------------------------
     Non-local corr. energy    =      82.11283539 Ry
     -----------------------------------------------


     total cpu time spent up to now is   125022.6 secs

     total energy              =  -47095.95565805 Ry
     estimated scf accuracy    <       0.00000001 Ry

     iteration # 11     ecut=    70.00 Ry     beta= 0.70
     Davidson diagonalization with overlap

---- Real-time Memory Report at c_bands before calling an iterative solver
          3540 MiB given to the printing process from OS
             0 MiB allocation reported by mallinfo(arena+hblkhd)
       1895074 MiB available memory on the node where the printing process lives
------------------
     ethr =  4.89E-13,  avg # of iterations = 15.5


     -----------------------------------------------
     Non-local corr. energy    =      82.11283629 Ry
     -----------------------------------------------


     total cpu time spent up to now is   127203.2 secs

     total energy              =  -47095.95565806 Ry
     estimated scf accuracy    <          5.3E-09 Ry

     iteration # 12     ecut=    70.00 Ry     beta= 0.70
     Davidson diagonalization with overlap

---- Real-time Memory Report at c_bands before calling an iterative solver
          3540 MiB given to the printing process from OS
             0 MiB allocation reported by mallinfo(arena+hblkhd)
       1895053 MiB available memory on the node where the printing process lives
------------------
