
     Program PWSCF v.7.1 starts on 17Feb2024 at 19:56:55 

     This program is part of the open-source Quantum ESPRESSO suite
     for quantum simulation of materials; please cite
         "P. Giannozzi et al., J. Phys.:Condens. Matter 21 395502 (2009);
         "P. Giannozzi et al., J. Phys.:Condens. Matter 29 465901 (2017);
         "P. Giannozzi et al., J. Chem. Phys. 152 154105 (2020);
          URL http://www.quantum-espresso.org", 
     in publications or presentations arising from this work. More details at
     http://www.quantum-espresso.org/quote

     Parallel version (MPI & OpenMP), running on     256 processor cores
     Number of MPI processes:               256
     Threads/MPI process:                     1

     MPI processes distributed on     2 nodes
     1913349 MiB available memory on the printing compute node when the environment starts
 
     Reading input from espresso.pwi
Warning: card &CELL ignored
Warning: card    CELL_DYNAMICS    = 'BFGS' ignored
Warning: card / ignored

     Current dimensions of program PWSCF are:
     Max number of different atomic species (ntypx) = 10
     Max number of k-points (npk) =  40000
     Max angular momentum in pseudopotentials (lmaxx) =  4
     file Ga.pbe-dn-kjpaw_psl.1.0.0.UPF: wavefunction(s)  4S renormalized
     file N.pbe-n-kjpaw_psl.1.0.0.UPF: wavefunction(s)  2S renormalized

     **************************************************************************
     Initializing libbeef V0.1.2 with the BEEF-vdW functional.
     Citation: Wellendorff et al., PRB 85, 235149 (2012).
     **************************************************************************


     IMPORTANT: XC functional enforced from input :
     Exchange-correlation= BEEF-VDW
                           (   1   4  43  14   2   0   0)
     Any further DFT definition will be discarded
     Please, verify this is what you really want

 
     K-points division:     npool     =       4
     R & G space division:  proc/nbgrp/npool/nimage =      64
     Subspace diagonalization in iterative solution of the eigenvalue problem:
     a serial algorithm will be used

 
     Parallelization info
     --------------------
     sticks:   dense  smooth     PW     G-vecs:    dense   smooth      PW
     Min         226     181     47                26979    19303    2571
     Max         228     182     48                26983    19308    2576
     Sum       14527   11629   3037              1726709  1235535  164709
 
     Using Slab Decomposition
 


     bravais-lattice index     =            4
     lattice parameter (alat)  =      24.5252  a.u.
     unit-cell volume          =   15616.6055 (a.u.)^3
     number of atoms/cell      =          192
     number of atomic types    =            2
     number of electrons       =      1733.00
     number of Kohn-Sham states=         1040
     kinetic-energy cutoff     =      70.0000  Ry
     charge density cutoff     =     350.0000  Ry
     scf convergence threshold =      1.0E-07
     mixing beta               =       0.7000
     number of iterations used =            8  plain     mixing
     energy convergence thresh.=      1.0E-04
     force convergence thresh. =      1.0E-03
     Exchange-correlation= BEEF-VDW
                           (   1   4  43  14   2   0   0)
     nstep                     =           50


     celldm(1)=  24.525232  celldm(2)=   0.000000  celldm(3)=   1.222409
     celldm(4)=   0.000000  celldm(5)=   0.000000  celldm(6)=   0.000000

     crystal axes: (cart. coord. in units of alat)
               a(1) = (   1.000000   0.000000   0.000000 )  
               a(2) = (  -0.500000   0.866025   0.000000 )  
               a(3) = (   0.000000   0.000000   1.222409 )  

     reciprocal axes: (cart. coord. in units 2 pi/alat)
               b(1) = (  1.000000  0.577350 -0.000000 )  
               b(2) = (  0.000000  1.154701  0.000000 )  
               b(3) = (  0.000000 -0.000000  0.818057 )  


     PseudoPot. # 1 for Ga read from file:
     /trace/group/acmegroup/atimmins/packages/espresso/pseudo/psl_1.0.0/pslibrary.1.0.0/pbe/PSEUDOPOTENTIALS/Ga.pbe-dn-kjpaw_psl.1.0.0.UPF
     MD5 check sum: cd2a01e492f15b435d17032472d8505c
     Pseudo is Projector augmented-wave + core cor, Zval = 13.0
     Generated using 'atomic' code by A. Dal Corso  v.7.1
     Shape of augmentation charge: PSQ
     Using radial grid of 1205 points,  6 beta functions with: 
                l(1) =   0
                l(2) =   0
                l(3) =   1
                l(4) =   1
                l(5) =   2
                l(6) =   2
     Q(r) pseudized with 0 coefficients 


     PseudoPot. # 2 for N  read from file:
     /trace/group/acmegroup/atimmins/packages/espresso/pseudo/psl_1.0.0/pslibrary.1.0.0/pbe/PSEUDOPOTENTIALS/N.pbe-n-kjpaw_psl.1.0.0.UPF
     MD5 check sum: f77f775694dac7e2c3fe1c82443d1a16
     Pseudo is Projector augmented-wave + core cor, Zval =  5.0
     Generated using 'atomic' code by A. Dal Corso  v.7.1
     Shape of augmentation charge: PSQ
     Using radial grid of 1085 points,  4 beta functions with: 
                l(1) =   0
                l(2) =   0
                l(3) =   1
                l(4) =   1
     Q(r) pseudized with 0 coefficients 


     atomic species   valence    mass     pseudopotential
        Ga            13.00    69.72300     Ga( 1.00)
        N              5.00    14.00700     N ( 1.00)

      6 Sym. Ops. (no inversion) found ( 4 have fractional translation)


                                    s                        frac. trans.

      isym =  1     identity                                     

 cryst.   s( 1) = (     1          0          0      )
                  (     0          1          0      )
                  (     0          0          1      )

 cart.    s( 1) = (  1.0000000  0.0000000  0.0000000 )
                  (  0.0000000  1.0000000  0.0000000 )
                  (  0.0000000  0.0000000  1.0000000 )


      isym =  2     120 deg rotation - cryst. axis [0,0,1]       

 cryst.   s( 2) = (     0          1          0      )    f =( -0.2500000 )
                  (    -1         -1          0      )       (  0.0000002 )
                  (     0          0          1      )       (  0.0000000 )

 cart.    s( 2) = ( -0.5000000 -0.8660254  0.0000000 )    f =( -0.2500001 )
                  (  0.8660254 -0.5000000  0.0000000 )       (  0.0000002 )
                  (  0.0000000  0.0000000  1.0000000 )       (  0.0000000 )


      isym =  3     120 deg rotation - cryst. axis [0,0,-1]      

 cryst.   s( 3) = (    -1         -1          0      )    f =( -0.2500002 )
                  (     1          0          0      )       ( -0.2500000 )
                  (     0          0          1      )       (  0.0000000 )

 cart.    s( 3) = ( -0.5000000  0.8660254  0.0000000 )    f =( -0.1250002 )
                  ( -0.8660254 -0.5000000  0.0000000 )       ( -0.2165064 )
                  (  0.0000000  0.0000000  1.0000000 )       (  0.0000000 )


      isym =  4     inv. 180 deg rotation - cart. axis [1,0,0]   

 cryst.   s( 4) = (    -1          0          0      )    f =( -0.2500002 )
                  (     1          1          0      )       (  0.0000000 )
                  (     0          0          1      )       (  0.0000000 )

 cart.    s( 4) = ( -1.0000000  0.0000000  0.0000000 )    f =( -0.2500002 )
                  (  0.0000000  1.0000000  0.0000000 )       (  0.0000000 )
                  (  0.0000000  0.0000000  1.0000000 )       (  0.0000000 )


      isym =  5     inv. 180 deg rotation - cryst. axis [0,1,0]  

 cryst.   s( 5) = (     1          1          0      )
                  (     0         -1          0      )
                  (     0          0          1      )

 cart.    s( 5) = (  0.5000000  0.8660254  0.0000000 )
                  (  0.8660254 -0.5000000  0.0000000 )
                  (  0.0000000  0.0000000  1.0000000 )


      isym =  6     inv. 180 deg rotation - cryst. axis [1,1,0]  

 cryst.   s( 6) = (     0         -1          0      )    f =( -0.2500000 )
                  (    -1          0          0      )       ( -0.2500000 )
                  (     0          0          1      )       (  0.0000000 )

 cart.    s( 6) = (  0.5000000 -0.8660254  0.0000000 )    f =( -0.1250000 )
                  ( -0.8660254 -0.5000000  0.0000000 )       ( -0.2165064 )
                  (  0.0000000  0.0000000  1.0000000 )       (  0.0000000 )


     point group C_3v (3m)  
     there are  3 classes
     the character table:

       E     2C3   3s_v 
A_1    1.00  1.00  1.00
A_2    1.00  1.00 -1.00
E      2.00 -1.00  0.00

     the symmetry operations in each class and the name of the first element:

     E        1
          identity                                               
     2C3      2    3
          120 deg rotation - cryst. axis [0,0,1]                 
     3s_v     4    5    6
          inv. 180 deg rotation - cart. axis [1,0,0]             

   Cartesian axes

     site n.     atom                  positions (alat units)
         1           Ga  tau(   1) = (   0.1250001   0.0721687   0.2033935  )
         2           Ga  tau(   2) = (   0.1250001   0.0721687   0.6108633  )
         3           Ga  tau(   3) = (   0.1250001   0.0721687   1.0183331  )
         4           Ga  tau(   4) = (   0.0000001   0.2886751   0.2033935  )
         5           Ga  tau(   5) = (   0.0000001   0.2886751   0.6108633  )
         6           Ga  tau(   6) = (   0.0000001   0.2886751   1.0183331  )
         7           Ga  tau(   7) = (  -0.1249999   0.5051814   0.2033935  )
         8           Ga  tau(   8) = (  -0.1249999   0.5051814   0.6108633  )
         9           Ga  tau(   9) = (  -0.1249999   0.5051814   1.0183331  )
        10           Ga  tau(  10) = (  -0.2499999   0.7216878   0.2033935  )
        11           Ga  tau(  11) = (  -0.2499999   0.7216878   0.6108633  )
        12           Ga  tau(  12) = (  -0.2499999   0.7216878   1.0183331  )
        13           Ga  tau(  13) = (   0.3750001   0.0721687   0.2033935  )
        14           Ga  tau(  14) = (   0.3750001   0.0721687   0.6108633  )
        15           Ga  tau(  15) = (   0.3750001   0.0721687   1.0183331  )
        16           Ga  tau(  16) = (   0.2500001   0.2886751   0.2033935  )
        17           Ga  tau(  17) = (   0.2500001   0.2886751   0.6108633  )
        18           Ga  tau(  18) = (   0.2500001   0.2886751   1.0183331  )
        19           Ga  tau(  19) = (   0.1250001   0.5051814   0.2033935  )
        20           Ga  tau(  20) = (   0.1250001   0.5051814   0.6108633  )
        21           Ga  tau(  21) = (   0.1250001   0.5051814   1.0183331  )
        22           Ga  tau(  22) = (   0.0000001   0.7216878   0.2033935  )
        23           Ga  tau(  23) = (   0.0000001   0.7216878   0.6108633  )
        24           Ga  tau(  24) = (   0.0000001   0.7216878   1.0183331  )
        25           Ga  tau(  25) = (   0.6250001   0.0721687   0.2033935  )
        26           Ga  tau(  26) = (   0.6250001   0.0721687   0.6108633  )
        27           Ga  tau(  27) = (   0.6250001   0.0721687   1.0183331  )
        28           Ga  tau(  28) = (   0.5000001   0.2886751   0.2033935  )
        29           Ga  tau(  29) = (   0.5000001   0.2886751   0.6108633  )
        30           Ga  tau(  30) = (   0.5000001   0.2886751   1.0183331  )
        31           Ga  tau(  31) = (   0.3750001   0.5051814   0.2033935  )
        32           Ga  tau(  32) = (   0.3750001   0.5051814   0.6108633  )
        33           Ga  tau(  33) = (   0.3750001   0.5051814   1.0183331  )
        34           Ga  tau(  34) = (   0.2500001   0.7216878   0.2033935  )
        35           Ga  tau(  35) = (   0.2500001   0.7216878   0.6108633  )
        36           Ga  tau(  36) = (   0.2500001   0.7216878   1.0183331  )
        37           Ga  tau(  37) = (   0.8750001   0.0721687   0.2033935  )
        38           Ga  tau(  38) = (   0.8750001   0.0721687   0.6108633  )
        39           Ga  tau(  39) = (   0.8750001   0.0721687   1.0183331  )
        40           Ga  tau(  40) = (   0.7500001   0.2886751   0.2033935  )
        41           Ga  tau(  41) = (   0.7500001   0.2886751   0.6108633  )
        42           Ga  tau(  42) = (   0.7500001   0.2886751   1.0183331  )
        43           Ga  tau(  43) = (   0.6250001   0.5051814   0.2033935  )
        44           Ga  tau(  44) = (   0.6250001   0.5051814   0.6108633  )
        45           Ga  tau(  45) = (   0.6250001   0.5051814   1.0183331  )
        46           Ga  tau(  46) = (   0.5000001   0.7216878   0.2033935  )
        47           Ga  tau(  47) = (   0.5000001   0.7216878   0.6108633  )
        48           Ga  tau(  48) = (   0.5000001   0.7216878   1.0183331  )
        49           Ga  tau(  49) = (  -0.0000002   0.1443377   0.4071284  )
        50           Ga  tau(  50) = (  -0.0000002   0.1443377   0.8145982  )
        51           Ga  tau(  51) = (  -0.0000002   0.1443377   1.2220680  )
        52           Ga  tau(  52) = (  -0.1250002   0.3608440   0.4071284  )
        53           Ga  tau(  53) = (  -0.1250002   0.3608440   0.8145982  )
        54           Ga  tau(  54) = (  -0.1250002   0.3608440   1.2220680  )
        55           Ga  tau(  55) = (  -0.2500002   0.5773504   0.4071284  )
        56           Ga  tau(  56) = (  -0.2500002   0.5773504   0.8145982  )
        57           Ga  tau(  57) = (  -0.2500002   0.5773504   1.2220680  )
        58           Ga  tau(  58) = (  -0.3750001   0.7938567   0.4071284  )
        59           Ga  tau(  59) = (  -0.3750001   0.7938567   0.8145982  )
        60           Ga  tau(  60) = (  -0.3750001   0.7938567   1.2220680  )
        61           Ga  tau(  61) = (   0.2499998   0.1443377   0.4071284  )
        62           Ga  tau(  62) = (   0.2499998   0.1443377   0.8145982  )
        63           Ga  tau(  63) = (   0.2499998   0.1443377   1.2220680  )
        64           Ga  tau(  64) = (   0.1249998   0.3608440   0.4071284  )
        65           Ga  tau(  65) = (   0.1249998   0.3608440   0.8145982  )
        66           Ga  tau(  66) = (   0.1249998   0.3608440   1.2220680  )
        67           Ga  tau(  67) = (  -0.0000002   0.5773504   0.4071284  )
        68           Ga  tau(  68) = (  -0.0000002   0.5773504   0.8145982  )
        69           Ga  tau(  69) = (  -0.0000002   0.5773504   1.2220680  )
        70           Ga  tau(  70) = (  -0.1250002   0.7938567   0.4071284  )
        71           Ga  tau(  71) = (  -0.1250002   0.7938567   0.8145982  )
        72           Ga  tau(  72) = (  -0.1250002   0.7938567   1.2220680  )
        73           Ga  tau(  73) = (   0.4999998   0.1443377   0.4071284  )
        74           Ga  tau(  74) = (   0.4999998   0.1443377   0.8145982  )
        75           Ga  tau(  75) = (   0.4999998   0.1443377   1.2220680  )
        76           Ga  tau(  76) = (   0.3749998   0.3608440   0.4071284  )
        77           Ga  tau(  77) = (   0.3749998   0.3608440   0.8145982  )
        78           Ga  tau(  78) = (   0.3749998   0.3608440   1.2220680  )
        79           Ga  tau(  79) = (   0.2499998   0.5773504   0.4071284  )
        80           Ga  tau(  80) = (   0.2499998   0.5773504   0.8145982  )
        81           Ga  tau(  81) = (   0.2499998   0.5773504   1.2220680  )
        82           Ga  tau(  82) = (   0.1249998   0.7938567   0.4071284  )
        83           Ga  tau(  83) = (   0.1249998   0.7938567   0.8145982  )
        84           Ga  tau(  84) = (   0.1249998   0.7938567   1.2220680  )
        85           Ga  tau(  85) = (   0.7499998   0.1443377   0.4071284  )
        86           Ga  tau(  86) = (   0.7499998   0.1443377   0.8145982  )
        87           Ga  tau(  87) = (   0.7499998   0.1443377   1.2220680  )
        88           Ga  tau(  88) = (   0.6249998   0.3608440   0.4071284  )
        89           Ga  tau(  89) = (   0.6249998   0.3608440   0.8145982  )
        90           Ga  tau(  90) = (   0.6249998   0.3608440   1.2220680  )
        91           Ga  tau(  91) = (   0.4999998   0.5773504   0.4071284  )
        92           Ga  tau(  92) = (   0.4999998   0.5773504   0.8145982  )
        93           Ga  tau(  93) = (   0.4999998   0.5773504   1.2220680  )
        94           Ga  tau(  94) = (   0.3749998   0.7938567   0.4071284  )
        95           Ga  tau(  95) = (   0.3749998   0.7938567   0.8145982  )
        96           Ga  tau(  96) = (   0.3749998   0.7938567   1.2220680  )
        97           N   tau(  97) = (   0.1250001   0.0721687   0.7643472  )
        98           N   tau(  98) = (   0.1250001   0.0721687   1.1718169  )
        99           N   tau(  99) = (   0.0000001   0.2886751   0.3568774  )
       100           N   tau( 100) = (   0.0000001   0.2886751   0.7643472  )
       101           N   tau( 101) = (   0.0000001   0.2886751   1.1718169  )
       102           N   tau( 102) = (  -0.1249999   0.5051814   0.3568774  )
       103           N   tau( 103) = (  -0.1249999   0.5051814   0.7643472  )
       104           N   tau( 104) = (  -0.1249999   0.5051814   1.1718169  )
       105           N   tau( 105) = (  -0.2499999   0.7216878   0.3568774  )
       106           N   tau( 106) = (  -0.2499999   0.7216878   0.7643472  )
       107           N   tau( 107) = (  -0.2499999   0.7216878   1.1718169  )
       108           N   tau( 108) = (   0.3750001   0.0721687   0.3568774  )
       109           N   tau( 109) = (   0.3750001   0.0721687   0.7643472  )
       110           N   tau( 110) = (   0.3750001   0.0721687   1.1718169  )
       111           N   tau( 111) = (   0.2500001   0.2886751   0.3568774  )
       112           N   tau( 112) = (   0.2500001   0.2886751   0.7643472  )
       113           N   tau( 113) = (   0.2500001   0.2886751   1.1718169  )
       114           N   tau( 114) = (   0.1250001   0.5051814   0.3568774  )
       115           N   tau( 115) = (   0.1250001   0.5051814   0.7643472  )
       116           N   tau( 116) = (   0.1250001   0.5051814   1.1718169  )
       117           N   tau( 117) = (   0.0000001   0.7216878   0.3568774  )
       118           N   tau( 118) = (   0.0000001   0.7216878   0.7643472  )
       119           N   tau( 119) = (   0.0000001   0.7216878   1.1718169  )
       120           N   tau( 120) = (   0.6250001   0.0721687   0.3568774  )
       121           N   tau( 121) = (   0.6250001   0.0721687   0.7643472  )
       122           N   tau( 122) = (   0.6250001   0.0721687   1.1718169  )
       123           N   tau( 123) = (   0.5000001   0.2886751   0.3568774  )
       124           N   tau( 124) = (   0.5000001   0.2886751   0.7643472  )
       125           N   tau( 125) = (   0.5000001   0.2886751   1.1718169  )
       126           N   tau( 126) = (   0.3750001   0.5051814   0.3568774  )
       127           N   tau( 127) = (   0.3750001   0.5051814   0.7643472  )
       128           N   tau( 128) = (   0.3750001   0.5051814   1.1718169  )
       129           N   tau( 129) = (   0.2500001   0.7216878   0.3568774  )
       130           N   tau( 130) = (   0.2500001   0.7216878   0.7643472  )
       131           N   tau( 131) = (   0.2500001   0.7216878   1.1718169  )
       132           N   tau( 132) = (   0.8750001   0.0721687   0.3568774  )
       133           N   tau( 133) = (   0.8750001   0.0721687   0.7643472  )
       134           N   tau( 134) = (   0.8750001   0.0721687   1.1718169  )
       135           N   tau( 135) = (   0.7500001   0.2886751   0.3568774  )
       136           N   tau( 136) = (   0.7500001   0.2886751   0.7643472  )
       137           N   tau( 137) = (   0.7500001   0.2886751   1.1718169  )
       138           N   tau( 138) = (   0.6250001   0.5051814   0.3568774  )
       139           N   tau( 139) = (   0.6250001   0.5051814   0.7643472  )
       140           N   tau( 140) = (   0.6250001   0.5051814   1.1718169  )
       141           N   tau( 141) = (   0.5000001   0.7216878   0.3568774  )
       142           N   tau( 142) = (   0.5000001   0.7216878   0.7643472  )
       143           N   tau( 143) = (   0.5000001   0.7216878   1.1718169  )
       144           N   tau( 144) = (  -0.0000002   0.1443377   0.1531425  )
       145           N   tau( 145) = (  -0.0000002   0.1443377   0.5606123  )
       146           N   tau( 146) = (  -0.0000002   0.1443377   0.9680820  )
       147           N   tau( 147) = (  -0.1250002   0.3608440   0.1531425  )
       148           N   tau( 148) = (  -0.1250002   0.3608440   0.5606123  )
       149           N   tau( 149) = (  -0.1250002   0.3608440   0.9680820  )
       150           N   tau( 150) = (  -0.2500002   0.5773504   0.1531425  )
       151           N   tau( 151) = (  -0.2500002   0.5773504   0.5606123  )
       152           N   tau( 152) = (  -0.2500002   0.5773504   0.9680820  )
       153           N   tau( 153) = (  -0.3750001   0.7938567   0.1531425  )
       154           N   tau( 154) = (  -0.3750001   0.7938567   0.5606123  )
       155           N   tau( 155) = (  -0.3750001   0.7938567   0.9680820  )
       156           N   tau( 156) = (   0.2499998   0.1443377   0.1531425  )
       157           N   tau( 157) = (   0.2499998   0.1443377   0.5606123  )
       158           N   tau( 158) = (   0.2499998   0.1443377   0.9680820  )
       159           N   tau( 159) = (   0.1249998   0.3608440   0.1531425  )
       160           N   tau( 160) = (   0.1249998   0.3608440   0.5606123  )
       161           N   tau( 161) = (   0.1249998   0.3608440   0.9680820  )
       162           N   tau( 162) = (  -0.0000002   0.5773504   0.1531425  )
       163           N   tau( 163) = (  -0.0000002   0.5773504   0.5606123  )
       164           N   tau( 164) = (  -0.0000002   0.5773504   0.9680820  )
       165           N   tau( 165) = (  -0.1250002   0.7938567   0.1531425  )
       166           N   tau( 166) = (  -0.1250002   0.7938567   0.5606123  )
       167           N   tau( 167) = (  -0.1250002   0.7938567   0.9680820  )
       168           N   tau( 168) = (   0.4999998   0.1443377   0.1531425  )
       169           N   tau( 169) = (   0.4999998   0.1443377   0.5606123  )
       170           N   tau( 170) = (   0.4999998   0.1443377   0.9680820  )
       171           N   tau( 171) = (   0.3749998   0.3608440   0.1531425  )
       172           N   tau( 172) = (   0.3749998   0.3608440   0.5606123  )
       173           N   tau( 173) = (   0.3749998   0.3608440   0.9680820  )
       174           N   tau( 174) = (   0.2499998   0.5773504   0.1531425  )
       175           N   tau( 175) = (   0.2499998   0.5773504   0.5606123  )
       176           N   tau( 176) = (   0.2499998   0.5773504   0.9680820  )
       177           N   tau( 177) = (   0.1249998   0.7938567   0.1531425  )
       178           N   tau( 178) = (   0.1249998   0.7938567   0.5606123  )
       179           N   tau( 179) = (   0.1249998   0.7938567   0.9680820  )
       180           N   tau( 180) = (   0.7499998   0.1443377   0.1531425  )
       181           N   tau( 181) = (   0.7499998   0.1443377   0.5606123  )
       182           N   tau( 182) = (   0.7499998   0.1443377   0.9680820  )
       183           N   tau( 183) = (   0.6249998   0.3608440   0.1531425  )
       184           N   tau( 184) = (   0.6249998   0.3608440   0.5606123  )
       185           N   tau( 185) = (   0.6249998   0.3608440   0.9680820  )
       186           N   tau( 186) = (   0.4999998   0.5773504   0.1531425  )
       187           N   tau( 187) = (   0.4999998   0.5773504   0.5606123  )
       188           N   tau( 188) = (   0.4999998   0.5773504   0.9680820  )
       189           N   tau( 189) = (   0.3749998   0.7938567   0.1531425  )
       190           N   tau( 190) = (   0.3749998   0.7938567   0.5606123  )
       191           N   tau( 191) = (   0.3749998   0.7938567   0.9680820  )
       192           Ga  tau( 192) = (   0.1250001   0.0721687   0.3568774  )

   Crystallographic axes

     site n.     atom                  positions (cryst. coord.)
         1           Ga  tau(   1) = (  0.1666667  0.0833333  0.1663874  )
         2           Ga  tau(   2) = (  0.1666667  0.0833333  0.4997208  )
         3           Ga  tau(   3) = (  0.1666667  0.0833333  0.8330541  )
         4           Ga  tau(   4) = (  0.1666667  0.3333333  0.1663874  )
         5           Ga  tau(   5) = (  0.1666667  0.3333333  0.4997208  )
         6           Ga  tau(   6) = (  0.1666667  0.3333333  0.8330541  )
         7           Ga  tau(   7) = (  0.1666667  0.5833333  0.1663874  )
         8           Ga  tau(   8) = (  0.1666667  0.5833333  0.4997208  )
         9           Ga  tau(   9) = (  0.1666667  0.5833333  0.8330541  )
        10           Ga  tau(  10) = (  0.1666667  0.8333333  0.1663874  )
        11           Ga  tau(  11) = (  0.1666667  0.8333333  0.4997208  )
        12           Ga  tau(  12) = (  0.1666667  0.8333333  0.8330541  )
        13           Ga  tau(  13) = (  0.4166667  0.0833333  0.1663874  )
        14           Ga  tau(  14) = (  0.4166667  0.0833333  0.4997208  )
        15           Ga  tau(  15) = (  0.4166667  0.0833333  0.8330541  )
        16           Ga  tau(  16) = (  0.4166667  0.3333333  0.1663874  )
        17           Ga  tau(  17) = (  0.4166667  0.3333333  0.4997208  )
        18           Ga  tau(  18) = (  0.4166667  0.3333333  0.8330541  )
        19           Ga  tau(  19) = (  0.4166667  0.5833333  0.1663874  )
        20           Ga  tau(  20) = (  0.4166667  0.5833333  0.4997208  )
        21           Ga  tau(  21) = (  0.4166667  0.5833333  0.8330541  )
        22           Ga  tau(  22) = (  0.4166667  0.8333333  0.1663874  )
        23           Ga  tau(  23) = (  0.4166667  0.8333333  0.4997208  )
        24           Ga  tau(  24) = (  0.4166667  0.8333333  0.8330541  )
        25           Ga  tau(  25) = (  0.6666667  0.0833333  0.1663874  )
        26           Ga  tau(  26) = (  0.6666667  0.0833333  0.4997208  )
        27           Ga  tau(  27) = (  0.6666667  0.0833333  0.8330541  )
        28           Ga  tau(  28) = (  0.6666667  0.3333333  0.1663874  )
        29           Ga  tau(  29) = (  0.6666667  0.3333333  0.4997208  )
        30           Ga  tau(  30) = (  0.6666667  0.3333333  0.8330541  )
        31           Ga  tau(  31) = (  0.6666667  0.5833333  0.1663874  )
        32           Ga  tau(  32) = (  0.6666667  0.5833333  0.4997208  )
        33           Ga  tau(  33) = (  0.6666667  0.5833333  0.8330541  )
        34           Ga  tau(  34) = (  0.6666667  0.8333333  0.1663874  )
        35           Ga  tau(  35) = (  0.6666667  0.8333333  0.4997208  )
        36           Ga  tau(  36) = (  0.6666667  0.8333333  0.8330541  )
        37           Ga  tau(  37) = (  0.9166667  0.0833333  0.1663874  )
        38           Ga  tau(  38) = (  0.9166667  0.0833333  0.4997208  )
        39           Ga  tau(  39) = (  0.9166667  0.0833333  0.8330541  )
        40           Ga  tau(  40) = (  0.9166667  0.3333333  0.1663874  )
        41           Ga  tau(  41) = (  0.9166667  0.3333333  0.4997208  )
        42           Ga  tau(  42) = (  0.9166667  0.3333333  0.8330541  )
        43           Ga  tau(  43) = (  0.9166667  0.5833333  0.1663874  )
        44           Ga  tau(  44) = (  0.9166667  0.5833333  0.4997208  )
        45           Ga  tau(  45) = (  0.9166667  0.5833333  0.8330541  )
        46           Ga  tau(  46) = (  0.9166667  0.8333333  0.1663874  )
        47           Ga  tau(  47) = (  0.9166667  0.8333333  0.4997208  )
        48           Ga  tau(  48) = (  0.9166667  0.8333333  0.8330541  )
        49           Ga  tau(  49) = (  0.0833333  0.1666668  0.3330541  )
        50           Ga  tau(  50) = (  0.0833333  0.1666668  0.6663874  )
        51           Ga  tau(  51) = (  0.0833333  0.1666668  0.9997208  )
        52           Ga  tau(  52) = (  0.0833333  0.4166668  0.3330541  )
        53           Ga  tau(  53) = (  0.0833333  0.4166668  0.6663874  )
        54           Ga  tau(  54) = (  0.0833333  0.4166668  0.9997208  )
        55           Ga  tau(  55) = (  0.0833333  0.6666668  0.3330541  )
        56           Ga  tau(  56) = (  0.0833333  0.6666668  0.6663874  )
        57           Ga  tau(  57) = (  0.0833333  0.6666668  0.9997208  )
        58           Ga  tau(  58) = (  0.0833333  0.9166668  0.3330541  )
        59           Ga  tau(  59) = (  0.0833333  0.9166668  0.6663874  )
        60           Ga  tau(  60) = (  0.0833333  0.9166668  0.9997208  )
        61           Ga  tau(  61) = (  0.3333332  0.1666668  0.3330541  )
        62           Ga  tau(  62) = (  0.3333332  0.1666668  0.6663874  )
        63           Ga  tau(  63) = (  0.3333332  0.1666668  0.9997208  )
        64           Ga  tau(  64) = (  0.3333332  0.4166668  0.3330541  )
        65           Ga  tau(  65) = (  0.3333332  0.4166668  0.6663874  )
        66           Ga  tau(  66) = (  0.3333332  0.4166668  0.9997208  )
        67           Ga  tau(  67) = (  0.3333332  0.6666668  0.3330541  )
        68           Ga  tau(  68) = (  0.3333332  0.6666668  0.6663874  )
        69           Ga  tau(  69) = (  0.3333332  0.6666668  0.9997208  )
        70           Ga  tau(  70) = (  0.3333332  0.9166668  0.3330541  )
        71           Ga  tau(  71) = (  0.3333332  0.9166668  0.6663874  )
        72           Ga  tau(  72) = (  0.3333332  0.9166668  0.9997208  )
        73           Ga  tau(  73) = (  0.5833332  0.1666668  0.3330541  )
        74           Ga  tau(  74) = (  0.5833332  0.1666668  0.6663874  )
        75           Ga  tau(  75) = (  0.5833332  0.1666668  0.9997208  )
        76           Ga  tau(  76) = (  0.5833332  0.4166668  0.3330541  )
        77           Ga  tau(  77) = (  0.5833332  0.4166668  0.6663874  )
        78           Ga  tau(  78) = (  0.5833332  0.4166668  0.9997208  )
        79           Ga  tau(  79) = (  0.5833332  0.6666668  0.3330541  )
        80           Ga  tau(  80) = (  0.5833332  0.6666668  0.6663874  )
        81           Ga  tau(  81) = (  0.5833332  0.6666668  0.9997208  )
        82           Ga  tau(  82) = (  0.5833332  0.9166668  0.3330541  )
        83           Ga  tau(  83) = (  0.5833332  0.9166668  0.6663874  )
        84           Ga  tau(  84) = (  0.5833332  0.9166668  0.9997208  )
        85           Ga  tau(  85) = (  0.8333332  0.1666668  0.3330541  )
        86           Ga  tau(  86) = (  0.8333332  0.1666668  0.6663874  )
        87           Ga  tau(  87) = (  0.8333332  0.1666668  0.9997208  )
        88           Ga  tau(  88) = (  0.8333332  0.4166668  0.3330541  )
        89           Ga  tau(  89) = (  0.8333332  0.4166668  0.6663874  )
        90           Ga  tau(  90) = (  0.8333332  0.4166668  0.9997208  )
        91           Ga  tau(  91) = (  0.8333332  0.6666668  0.3330541  )
        92           Ga  tau(  92) = (  0.8333332  0.6666668  0.6663874  )
        93           Ga  tau(  93) = (  0.8333332  0.6666668  0.9997208  )
        94           Ga  tau(  94) = (  0.8333332  0.9166668  0.3330541  )
        95           Ga  tau(  95) = (  0.8333332  0.9166668  0.6663874  )
        96           Ga  tau(  96) = (  0.8333332  0.9166668  0.9997208  )
        97           N   tau(  97) = (  0.1666667  0.0833333  0.6252792  )
        98           N   tau(  98) = (  0.1666667  0.0833333  0.9586126  )
        99           N   tau(  99) = (  0.1666667  0.3333333  0.2919459  )
       100           N   tau( 100) = (  0.1666667  0.3333333  0.6252792  )
       101           N   tau( 101) = (  0.1666667  0.3333333  0.9586126  )
       102           N   tau( 102) = (  0.1666667  0.5833333  0.2919459  )
       103           N   tau( 103) = (  0.1666667  0.5833333  0.6252792  )
       104           N   tau( 104) = (  0.1666667  0.5833333  0.9586126  )
       105           N   tau( 105) = (  0.1666667  0.8333333  0.2919459  )
       106           N   tau( 106) = (  0.1666667  0.8333333  0.6252792  )
       107           N   tau( 107) = (  0.1666667  0.8333333  0.9586126  )
       108           N   tau( 108) = (  0.4166667  0.0833333  0.2919459  )
       109           N   tau( 109) = (  0.4166667  0.0833333  0.6252792  )
       110           N   tau( 110) = (  0.4166667  0.0833333  0.9586126  )
       111           N   tau( 111) = (  0.4166667  0.3333333  0.2919459  )
       112           N   tau( 112) = (  0.4166667  0.3333333  0.6252792  )
       113           N   tau( 113) = (  0.4166667  0.3333333  0.9586126  )
       114           N   tau( 114) = (  0.4166667  0.5833333  0.2919459  )
       115           N   tau( 115) = (  0.4166667  0.5833333  0.6252792  )
       116           N   tau( 116) = (  0.4166667  0.5833333  0.9586126  )
       117           N   tau( 117) = (  0.4166667  0.8333333  0.2919459  )
       118           N   tau( 118) = (  0.4166667  0.8333333  0.6252792  )
       119           N   tau( 119) = (  0.4166667  0.8333333  0.9586126  )
       120           N   tau( 120) = (  0.6666667  0.0833333  0.2919459  )
       121           N   tau( 121) = (  0.6666667  0.0833333  0.6252792  )
       122           N   tau( 122) = (  0.6666667  0.0833333  0.9586126  )
       123           N   tau( 123) = (  0.6666667  0.3333333  0.2919459  )
       124           N   tau( 124) = (  0.6666667  0.3333333  0.6252792  )
       125           N   tau( 125) = (  0.6666667  0.3333333  0.9586126  )
       126           N   tau( 126) = (  0.6666667  0.5833333  0.2919459  )
       127           N   tau( 127) = (  0.6666667  0.5833333  0.6252792  )
       128           N   tau( 128) = (  0.6666667  0.5833333  0.9586126  )
       129           N   tau( 129) = (  0.6666667  0.8333333  0.2919459  )
       130           N   tau( 130) = (  0.6666667  0.8333333  0.6252792  )
       131           N   tau( 131) = (  0.6666667  0.8333333  0.9586126  )
       132           N   tau( 132) = (  0.9166667  0.0833333  0.2919459  )
       133           N   tau( 133) = (  0.9166667  0.0833333  0.6252792  )
       134           N   tau( 134) = (  0.9166667  0.0833333  0.9586126  )
       135           N   tau( 135) = (  0.9166667  0.3333333  0.2919459  )
       136           N   tau( 136) = (  0.9166667  0.3333333  0.6252792  )
       137           N   tau( 137) = (  0.9166667  0.3333333  0.9586126  )
       138           N   tau( 138) = (  0.9166667  0.5833333  0.2919459  )
       139           N   tau( 139) = (  0.9166667  0.5833333  0.6252792  )
       140           N   tau( 140) = (  0.9166667  0.5833333  0.9586126  )
       141           N   tau( 141) = (  0.9166667  0.8333333  0.2919459  )
       142           N   tau( 142) = (  0.9166667  0.8333333  0.6252792  )
       143           N   tau( 143) = (  0.9166667  0.8333333  0.9586126  )
       144           N   tau( 144) = (  0.0833333  0.1666668  0.1252792  )
       145           N   tau( 145) = (  0.0833333  0.1666668  0.4586126  )
       146           N   tau( 146) = (  0.0833333  0.1666668  0.7919459  )
       147           N   tau( 147) = (  0.0833333  0.4166668  0.1252792  )
       148           N   tau( 148) = (  0.0833333  0.4166668  0.4586126  )
       149           N   tau( 149) = (  0.0833333  0.4166668  0.7919459  )
       150           N   tau( 150) = (  0.0833333  0.6666668  0.1252792  )
       151           N   tau( 151) = (  0.0833333  0.6666668  0.4586126  )
       152           N   tau( 152) = (  0.0833333  0.6666668  0.7919459  )
       153           N   tau( 153) = (  0.0833333  0.9166668  0.1252792  )
       154           N   tau( 154) = (  0.0833333  0.9166668  0.4586126  )
       155           N   tau( 155) = (  0.0833333  0.9166668  0.7919459  )
       156           N   tau( 156) = (  0.3333332  0.1666668  0.1252792  )
       157           N   tau( 157) = (  0.3333332  0.1666668  0.4586126  )
       158           N   tau( 158) = (  0.3333332  0.1666668  0.7919459  )
       159           N   tau( 159) = (  0.3333332  0.4166668  0.1252792  )
       160           N   tau( 160) = (  0.3333332  0.4166668  0.4586126  )
       161           N   tau( 161) = (  0.3333332  0.4166668  0.7919459  )
       162           N   tau( 162) = (  0.3333332  0.6666668  0.1252792  )
       163           N   tau( 163) = (  0.3333332  0.6666668  0.4586126  )
       164           N   tau( 164) = (  0.3333332  0.6666668  0.7919459  )
       165           N   tau( 165) = (  0.3333332  0.9166668  0.1252792  )
       166           N   tau( 166) = (  0.3333332  0.9166668  0.4586126  )
       167           N   tau( 167) = (  0.3333332  0.9166668  0.7919459  )
       168           N   tau( 168) = (  0.5833332  0.1666668  0.1252792  )
       169           N   tau( 169) = (  0.5833332  0.1666668  0.4586126  )
       170           N   tau( 170) = (  0.5833332  0.1666668  0.7919459  )
       171           N   tau( 171) = (  0.5833332  0.4166668  0.1252792  )
       172           N   tau( 172) = (  0.5833332  0.4166668  0.4586126  )
       173           N   tau( 173) = (  0.5833332  0.4166668  0.7919459  )
       174           N   tau( 174) = (  0.5833332  0.6666668  0.1252792  )
       175           N   tau( 175) = (  0.5833332  0.6666668  0.4586126  )
       176           N   tau( 176) = (  0.5833332  0.6666668  0.7919459  )
       177           N   tau( 177) = (  0.5833332  0.9166668  0.1252792  )
       178           N   tau( 178) = (  0.5833332  0.9166668  0.4586126  )
       179           N   tau( 179) = (  0.5833332  0.9166668  0.7919459  )
       180           N   tau( 180) = (  0.8333332  0.1666668  0.1252792  )
       181           N   tau( 181) = (  0.8333332  0.1666668  0.4586126  )
       182           N   tau( 182) = (  0.8333332  0.1666668  0.7919459  )
       183           N   tau( 183) = (  0.8333332  0.4166668  0.1252792  )
       184           N   tau( 184) = (  0.8333332  0.4166668  0.4586126  )
       185           N   tau( 185) = (  0.8333332  0.4166668  0.7919459  )
       186           N   tau( 186) = (  0.8333332  0.6666668  0.1252792  )
       187           N   tau( 187) = (  0.8333332  0.6666668  0.4586126  )
       188           N   tau( 188) = (  0.8333332  0.6666668  0.7919459  )
       189           N   tau( 189) = (  0.8333332  0.9166668  0.1252792  )
       190           N   tau( 190) = (  0.8333332  0.9166668  0.4586126  )
       191           N   tau( 191) = (  0.8333332  0.9166668  0.7919459  )
       192           Ga  tau( 192) = (  0.1666667  0.0833333  0.2919459  )

     number of k points=     4  Gaussian smearing, width (Ry)=  0.0100
                       cart. coord. in units 2pi/alat
        k(    1) = (   0.0000000   0.0000000   0.0000000), wk =   0.2500000
        k(    2) = (   0.0000000   0.0000000  -0.4090283), wk =   0.2500000
        k(    3) = (   0.0000000  -0.5773503   0.0000000), wk =   0.7500000
        k(    4) = (   0.0000000  -0.5773503  -0.4090283), wk =   0.7500000

                       cryst. coord.
        k(    1) = (   0.0000000   0.0000000   0.0000000), wk =   0.2500000
        k(    2) = (   0.0000000   0.0000000  -0.5000000), wk =   0.2500000
        k(    3) = (   0.0000000  -0.5000000   0.0000000), wk =   0.7500000
        k(    4) = (   0.0000000  -0.5000000  -0.5000000), wk =   0.7500000

     Dense  grid:  1726709 G-vectors     FFT dimensions: ( 160, 160, 180)

     Smooth grid:  1235535 G-vectors     FFT dimensions: ( 144, 144, 160)

     Dynamical RAM for                 wfc:      38.29 MB

     Dynamical RAM for     wfc (w. buffer):      38.29 MB

     Dynamical RAM for           str. fact:       0.82 MB

     Dynamical RAM for           local pot:       0.00 MB

     Dynamical RAM for          nlocal pot:      92.27 MB

     Dynamical RAM for                qrad:       3.00 MB

     Dynamical RAM for          rho,v,vnew:       2.99 MB

     Dynamical RAM for               rhoin:       1.00 MB

     Dynamical RAM for            rho*nmix:       6.59 MB

     Dynamical RAM for           G-vectors:       1.69 MB

     Dynamical RAM for          h,s,v(r/c):     792.19 MB

     Dynamical RAM for          <psi|beta>:      39.77 MB

     Dynamical RAM for                 psi:     153.17 MB

     Dynamical RAM for                hpsi:     153.17 MB

     Dynamical RAM for                spsi:     153.17 MB

     Dynamical RAM for      wfcinit/wfcrot:     101.35 MB

     Dynamical RAM for           addusdens:      29.44 MB

     Dynamical RAM for          addusforce:      49.47 MB

     Dynamical RAM for         addusstress:      20.84 MB

     Estimated static dynamical RAM per process >     144.23 MB

     Estimated max dynamical RAM per process >       1.41 GB

     Estimated total dynamical RAM >     359.34 GB

     Atomic positions and unit cell read from directory:
     ./GaN.save/
     Atomic positions from file used, from input discarded
 

     Check: negative core charge=   -0.000003

     The initial density is read from file :
     ./GaN.save/charge-density



     %%%%%%%%%%%%%%%%%%%%%%%%%%%%%%%%%%%%%%%%%%%%%%%%%%%%%%%%%%%%%%%%%%%%%%%%
     %                                                                      %
     % You are using vdW-DF, which was implemented by the Thonhauser group. %
     % Please cite the following two papers that made this development      %
     % possible and the two reviews that describe the various versions:     %
     %                                                                      %
     %   T. Thonhauser et al., PRL 115, 136402 (2015).                      %
     %   T. Thonhauser et al., PRB 76, 125112 (2007).                       %
     %   K. Berland et al., Rep. Prog. Phys. 78, 066501 (2015).             %
     %   D.C. Langreth et al., J. Phys.: Condens. Matter 21, 084203 (2009). %
     %                                                                      %
     % If you are calculating stress with vdW-DF, please also cite:         %
     %                                                                      %
     %   R. Sabatini et al., J. Phys.: Condens. Matter 24, 424209 (2012).   %
     %                                                                      %
     %%%%%%%%%%%%%%%%%%%%%%%%%%%%%%%%%%%%%%%%%%%%%%%%%%%%%%%%%%%%%%%%%%%%%%%%

     %%%%%%%%%%%%%%%%%%%%%%%%%%%%%%%%%%%%%%%%%%%%%%%%%%%%%%%%%%%%%%%%%%%%%%%%
     %                                                                      %
     %  vdW-DF NEWS:                                                        %
     %                                                                      %
     %  * vdW-DF3 is now available. DOI: 10.1021/acs.jctc.0c00471           %
     %    use with input_dft = 'vdW-DF3-opt1' or 'vdW-DF3-opt2'             %
     %                                                                      %
     %  * Unscreened and range-separated vdW-DF hybrid functionals          %
     %    DOI: 10.1063/1.4986522 and 10.1088/1361-648X/ac2ad2               %
     %    use with input_dft = 'vdW-DF-cx0' (etc) and 'vdW-DF-ahcx'         %
     %                                                                      %
     %%%%%%%%%%%%%%%%%%%%%%%%%%%%%%%%%%%%%%%%%%%%%%%%%%%%%%%%%%%%%%%%%%%%%%%%


     Carrying out vdW-DF run using the following parameters:
     Nqs    =  20  Npoints =  1024  r_max =  100.000
     q_mesh =  0.00001000  0.04494208  0.09755937  0.15916263
               0.23128650  0.31572767  0.41458969  0.53033537
               0.66584808  0.82450364  1.01025438  1.22772762
               1.48234092  1.78043706  2.12944203  2.53805004
               3.01644009  3.57652955  4.23227104  5.00000000


     -----------------------------------------------
     Non-local corr. energy    =      52.70319905 Ry
     -----------------------------------------------

     Wavefunctions not found or not readable, recomputing them from scratch
     Starting wfcs are 1253 randomized atomic wfcs
     Checking if some PAW data can be deallocated... 
       PAW data deallocated on   95 nodes for type:  1
       PAW data deallocated on  161 nodes for type:  2

     total cpu time spent up to now is       30.1 secs

     Self-consistent Calculation

     iteration #  1     ecut=    70.00 Ry     beta= 0.70
     Davidson diagonalization with overlap

---- Real-time Memory Report at c_bands before calling an iterative solver
           581 MiB given to the printing process from OS
             0 MiB allocation reported by mallinfo(arena+hblkhd)
       1883337 MiB available memory on the node where the printing process lives
------------------
     ethr =  1.00E-05,  avg # of iterations = 28.8

     Threshold (ethr) on eigenvalues was too large:
     Diagonalizing with lowered threshold

     Davidson diagonalization with overlap

---- Real-time Memory Report at c_bands before calling an iterative solver
          1540 MiB given to the printing process from OS
             0 MiB allocation reported by mallinfo(arena+hblkhd)
       1884814 MiB available memory on the node where the printing process lives
------------------
     c_bands:  5 eigenvalues not converged
     ethr =  2.23E-08,  avg # of iterations = 30.0


     -----------------------------------------------
     Non-local corr. energy    =      52.70313622 Ry
     -----------------------------------------------


     total cpu time spent up to now is     1051.1 secs

     End of self-consistent calculation

          k = 0.0000 0.0000 0.0000 (154543 PWs)   bands (ev):

    -6.9772  -6.8659  -6.8318  -6.8318  -6.7735  -6.7546  -6.7546  -6.7098
    -6.7098  -6.7037  -6.6845  -6.6844  -6.6715  -6.6429  -6.6428  -6.6349
    -6.6237  -6.6237  -6.5617  -6.5116  -6.4706  -6.4705  -6.4602  -6.4516
    -6.4515  -6.4391  -6.3988  -6.3988  -6.3948  -6.3833  -6.3833  -6.3692
    -6.3524  -6.3524  -6.3506  -6.3463  -6.3463  -6.3407  -6.3372  -6.3321
    -6.3255  -6.3255  -6.3138  -6.3003  -6.3002  -6.2933  -6.2933  -6.2906
    -6.2806  -6.2806  -6.2782  -6.2739  -6.2732  -6.2732  -6.2697  -6.2697
    -6.2667  -6.2612  -6.2611  -6.2562  -6.2449  -6.2322  -6.2321  -6.2248
    -6.2248  -6.2238  -6.2160  -6.2152  -6.2117  -6.2005  -6.2005  -6.1989
    -6.1988  -6.1951  -6.1951  -6.1921  -6.1856  -6.1744  -6.1680  -6.1680
    -6.1668  -6.1625  -6.1625  -6.1556  -6.1556  -6.1505  -6.1425  -6.1425
    -6.1343  -6.1343  -6.1303  -6.1293  -6.1293  -6.1267  -6.1229  -6.1205
    -6.1205  -6.0955  -6.0945  -6.0945  -6.0668  -6.0668  -5.8679  -5.8026
    -5.7994  -5.7994  -5.7929  -5.7851  -5.7851  -5.7626  -5.7114  -5.7114
    -5.6528  -5.6528  -5.5475  -5.5474  -5.5363  -5.5167  -5.5167  -5.5082
    -5.3374  -5.3322  -5.3322  -5.3174  -5.3174  -5.2833  -5.2833  -5.2806
    -5.2678  -5.2678  -5.2620  -5.2586  -5.2586  -5.2586  -5.2542  -5.2542
    -5.2373  -5.2373  -5.2365  -5.2264  -5.2264  -5.2223  -5.2223  -5.2209
    -5.2162  -5.2156  -5.2156  -5.2142  -5.2039  -5.2027  -5.2027  -5.2002
    -5.1982  -5.1982  -5.1947  -5.1947  -5.1938  -5.1914  -5.1903  -5.1903
    -5.1895  -5.1848  -5.1848  -5.1846  -5.1758  -5.1758  -5.1730  -5.1697
    -5.1697  -5.1673  -5.1673  -5.1649  -5.1592  -5.1592  -5.1566  -5.1566
    -5.1517  -5.1517  -5.1456  -5.1455  -5.1455  -5.1441  -5.1438  -5.1438
    -5.1418  -5.1386  -5.1386  -5.1337  -5.1337  -5.1304  -5.1303  -5.1281
    -5.1281  -5.1258  -5.1243  -5.1236  -5.1236  -5.1174  -5.1174  -5.1118
    -5.1095  -5.1095  -5.1054  -5.1047  -5.1047  -5.1025  -5.1025  -5.0979
    -5.0955  -5.0941  -5.0938  -5.0938  -5.0918  -5.0881  -5.0881  -5.0831
    -5.0831  -5.0763  -5.0747  -5.0698  -5.0697  -5.0697  -5.0656  -5.0656
    -5.0605  -5.0571  -5.0571  -5.0553  -5.0553  -5.0535  -5.0472  -5.0456
    -5.0456  -5.0452  -5.0452  -5.0445  -5.0431  -5.0371  -5.0362  -5.0362
    -5.0321  -5.0321  -5.0280  -5.0271  -5.0271  -5.0248  -5.0248  -5.0231
    -5.0224  -5.0215  -5.0215  -5.0172  -5.0172  -5.0159  -5.0138  -5.0138
    -5.0131  -5.0126  -5.0126  -5.0121  -5.0080  -5.0080  -5.0079  -5.0048
    -5.0048  -5.0047  -5.0042  -5.0005  -5.0005  -4.9969  -4.9969  -4.9964
    -4.9952  -4.9952  -4.9931  -4.9931  -4.9930  -4.9905  -4.9905  -4.9902
    -4.9902  -4.9891  -4.9887  -4.9880  -4.9880  -4.9854  -4.9844  -4.9811
    -4.9811  -4.9811  -4.9788  -4.9788  -4.9757  -4.9757  -4.9721  -4.9721
    -4.9709  -4.9706  -4.9693  -4.9693  -4.9669  -4.9660  -4.9660  -4.9659
    -4.9640  -4.9640  -4.9617  -4.9617  -4.9614  -4.9608  -4.9602  -4.9602
    -4.9564  -4.9548  -4.9521  -4.9521  -4.9506  -4.9506  -4.9499  -4.9489
    -4.9489  -4.9462  -4.9451  -4.9451  -4.9446  -4.9414  -4.9412  -4.9412
    -4.9389  -4.9389  -4.9381  -4.9350  -4.9349  -4.9349  -4.9344  -4.9326
    -4.9317  -4.9317  -4.9280  -4.9271  -4.9267  -4.9267  -4.9252  -4.9251
    -4.9238  -4.9210  -4.9210  -4.9165  -4.9164  -4.9160  -4.9157  -4.9157
    -4.9151  -4.9151  -4.9143  -4.9129  -4.9112  -4.9112  -4.9107  -4.9107
    -4.9082  -4.9069  -4.9069  -4.9055  -4.9045  -4.9045  -4.9023  -4.9023
    -4.9012  -4.8987  -4.8987  -4.8965  -4.8947  -4.8947  -4.8937  -4.8932
    -4.8932  -4.8888  -4.8883  -4.8883  -4.8867  -4.8856  -4.8851  -4.8842
    -4.8831  -4.8831  -4.8812  -4.8805  -4.8805  -4.8786  -4.8786  -4.8785
    -4.8737  -4.8730  -4.8730  -4.8715  -4.8715  -4.8704  -4.8686  -4.8686
    -4.8675  -4.8633  -4.8633  -4.8622  -4.8622  -4.8621  -4.8609  -4.8570
    -4.8570  -4.8544  -4.8522  -4.8522  -4.8512  -4.8512  -4.8496  -4.8496
    -4.8493  -4.8490  -4.8483  -4.8479  -4.8479  -4.8436  -4.8436  -4.8413
    -4.8393  -4.8393  -4.8393  -4.8385  -4.8385  -4.8379  -4.8372  -4.8347
    -4.8347  -4.8292  -4.8291  -4.8291  -4.8252  -4.8252  -4.8227  -4.8222
    -4.8186  -4.8186  -4.8138  -4.8138  -4.8117  -4.8105  -4.8105  -4.8087
    -4.8087  -4.8066  -4.8047  -4.7991  -4.7991  -4.7991  -4.7977  -4.7977
    -4.7929  -4.7929  -4.7904  -4.7904  -4.7893  -4.7876  -4.7876  -4.7825
    -4.7798  -4.7798  -4.7736  -4.7736  -4.7724  -4.7715  -4.7715  -4.7709
    -4.7686  -4.7664  -4.7664  -4.7596  -4.7596  -4.7587  -4.7584  -4.7503
    -4.7493  -4.7493  -4.7453  -4.7430  -4.7430  -4.7408  -4.7368  -4.7368
    -4.7254  -4.7254  -4.7246  -4.7211  -4.7211  -4.6905  -4.5621  -4.5320
    -4.5320  -4.4985  -4.4985  -4.4566  -4.4566  -4.4381  -4.4381  -4.4199
    -4.4170  -4.4070  -4.2132  -4.1879  -3.8382  -3.8382  -3.8312  -3.8227
    -3.7613  -3.7612  -3.7447  -3.7447  -3.7235  -3.6922  -3.6922  -3.6562
    -3.6562  -3.6332  -3.6332  -3.6162  -3.5989  -3.5876  -3.5780  -3.5780
    -3.5434  -3.5434  -3.5413  -3.5366  -3.4880  -3.4728  -3.4668  -3.4668
    -3.4392  -3.4392  -3.4380  -3.4286  -3.4286  -3.3616  -3.3616  -3.3520
    -3.3419  -3.3419  -3.3369  -3.2566  -3.2143  -3.2143  -3.1229  -3.0968
    -3.0967  -3.0788  -3.0659  -3.0608  -3.0608  -3.0148  -3.0102  -3.0102
    -3.0082  -2.9997  -2.9997  -2.9757  -2.9757  -2.9729  -2.9728  -2.9617
    -2.9486  -2.9486  -2.9475  -2.8831  -2.8737  -2.8736  -2.7144  -2.6992
    -2.6959  -2.6959  -2.6605  -2.6605   1.3344   2.0756   2.1566   2.3407
     2.3436   2.3436   2.4099   2.4100   2.6267   2.6511   2.6511   2.6744
     2.7307   2.7307   2.8512   2.8808   2.8808   2.9016   2.9106   2.9106
     2.9285   2.9286   2.9325   2.9392   2.9392   2.9412   2.9615   2.9713
     2.9713   3.0314   3.0319   3.0319   3.0402   3.0402   3.0906   3.2662
     3.2753   3.2875   3.2875   3.3403   3.3404   3.3734   3.3735   3.3870
     3.4095   3.4216   3.4284   3.4319   3.4319   3.4636   3.4636   3.4870
     3.4871   3.6397   3.6485   3.6485   3.6669   3.6669   3.6907   3.7206
     3.7206   3.7270   3.7270   3.7325   3.7345   3.7345   3.7545   3.7649
     3.7757   3.8859   3.9135   3.9135   3.9360   3.9757   3.9758   4.2650
     4.8077   4.8191   4.8191   4.8642   4.8642   4.9185   4.9185   4.9411
     4.9662   4.9965   4.9965   5.0095   5.0160   5.0160   5.0282   5.0319
     5.0320   5.0519   5.0562   5.0562   5.0596   5.0656   5.0702   5.0703
     5.0934   5.0934   5.1113   5.1191   5.1191   5.1420   5.1420   5.1811
     5.2077   5.2077   5.2542   5.2644   5.2881   5.2881   5.3091   5.3094
     5.3095   5.3353   5.3893   5.3893   5.5182   5.8736   5.8737   5.8765
     5.9377   5.9378   6.0005   6.0005   6.0106   6.0286   6.0287   6.0415
     6.0416   6.0493   6.0494   6.0576   6.0806   6.0986   6.0986   6.1000
     6.1390   6.1390   6.1423   6.1776   6.1927   6.2003   6.2003   6.2011
     6.2111   6.2111   6.2407   6.2408   6.2420   6.2420   6.2440   6.2757
     6.3101   6.3576   6.3751   6.3751   6.3770   6.4776   6.4776   6.4859
     6.4951   6.5027   6.5027   6.5149   6.5370   6.5370   6.5571   6.5571
     6.6078   6.6079   6.6207   6.6267   6.6609   6.6839   6.6840   6.7980
     6.7980   6.8104   6.8296   6.8296   6.8375   6.9164   6.9176   6.9297
     6.9297   6.9718   6.9718   6.9738   7.0239   7.0267   7.0290   7.0290
     7.0789   7.0789   7.1055   7.1055   7.1585   7.1989   7.2477   7.2478
     7.2620   7.2908   7.2995   7.2996   7.3311   7.3311   7.3467   7.3470
     7.3471   7.3563   7.3586   7.3587   7.3902   7.3903   7.4329   7.4349
     7.4463   7.4463   7.4634   7.5333   7.5333   7.5516   7.5517   7.5581
     7.5581   7.5618   7.5853   7.5853   7.5938   7.5938   7.6299   7.6299
     7.6570   7.6949   7.6949   7.7045   7.7311   7.7311   7.7449   7.7449
     7.7661   7.7661   7.7783   7.7816   7.8379   7.8380   7.8753   7.9135
     7.9235   7.9235   7.9555   7.9634   7.9634   7.9962   7.9962   8.0082
     8.0232   8.0333   8.0333   8.0517   8.0935   8.0936   8.1166   8.1167
     8.1772   8.1773   8.2301   8.2301   8.2680   8.3173   8.3173   8.3530
     8.4143   8.4144   8.4378   8.5359   8.5360   8.6177   8.6178   8.7973
     8.8794   8.8794   9.9987   9.9988  10.0528  10.4050  12.0583  12.1349
    12.5134  12.5765  12.6584  12.6585  12.7531  12.8101  12.8102  12.8537
    12.8658  12.8821  12.8821  12.9537  12.9542  12.9542  13.0601  13.1040
    13.1040  13.1768  13.1772  13.1772  13.2558  13.2558  13.2585  13.2807
    13.2807  13.2961  13.3913  13.7078  13.7079  13.7904  13.7914  13.7915
    13.8259  13.9380  13.9756  13.9756  14.0201  14.0349  14.0350  14.1195
    14.1196  14.2533  14.3475  14.3494  14.3495  14.3730  14.3981  14.3981
    14.4274  14.4442  14.4507  14.4508  14.4698  14.4699  14.4909  14.4909
    14.4923  14.5008  14.5008  14.5044  14.5584  14.5607  14.5607  14.5810
    14.5811  14.6084  14.6085  14.6130  14.7429  14.7429  14.7999  14.8172
    14.8173  14.8432  14.8699  14.9171  14.9171  14.9239  14.9475  14.9738
    14.9738  14.9778  14.9779  14.9898  15.0015  15.0015  15.0323  15.0323
    15.0465  15.0742  15.0890  15.0890  15.1460  15.1460  15.2085  15.4966
    15.7622  15.8087  15.8087  15.8292  15.9524  15.9585  15.9585  15.9984
    15.9984  16.0256  16.0256  16.0787  16.0986  16.1167  16.1462  16.1462
    16.1719  16.1722  16.1722  16.1851  16.1852  16.2141  16.2178  16.2178
    16.2336  16.2336  16.2393  16.2972  16.3014  16.3014  16.3982  16.3982
    16.4087  16.4153  16.4153  16.4377  16.4612  16.4612  16.4769  16.4787
    16.5197  16.5197  16.5410  16.5410  16.5437  16.5770  16.5770  16.5864
    16.5998  16.6041  16.6042  16.6082  16.6221  16.6277  16.6277  16.6448
    16.6448  16.6573  16.6573  16.6761  16.6815  16.6816  16.6865  16.6875
    16.7039  16.7039  16.7200  16.7200  16.7358  16.7358  16.7394  16.7411

     occupation numbers 
     1.0000   1.0000   1.0000   1.0000   1.0000   1.0000   1.0000   1.0000
     1.0000   1.0000   1.0000   1.0000   1.0000   1.0000   1.0000   1.0000
     1.0000   1.0000   1.0000   1.0000   1.0000   1.0000   1.0000   1.0000
     1.0000   1.0000   1.0000   1.0000   1.0000   1.0000   1.0000   1.0000
     1.0000   1.0000   1.0000   1.0000   1.0000   1.0000   1.0000   1.0000
     1.0000   1.0000   1.0000   1.0000   1.0000   1.0000   1.0000   1.0000
     1.0000   1.0000   1.0000   1.0000   1.0000   1.0000   1.0000   1.0000
     1.0000   1.0000   1.0000   1.0000   1.0000   1.0000   1.0000   1.0000
     1.0000   1.0000   1.0000   1.0000   1.0000   1.0000   1.0000   1.0000
     1.0000   1.0000   1.0000   1.0000   1.0000   1.0000   1.0000   1.0000
     1.0000   1.0000   1.0000   1.0000   1.0000   1.0000   1.0000   1.0000
     1.0000   1.0000   1.0000   1.0000   1.0000   1.0000   1.0000   1.0000
     1.0000   1.0000   1.0000   1.0000   1.0000   1.0000   1.0000   1.0000
     1.0000   1.0000   1.0000   1.0000   1.0000   1.0000   1.0000   1.0000
     1.0000   1.0000   1.0000   1.0000   1.0000   1.0000   1.0000   1.0000
     1.0000   1.0000   1.0000   1.0000   1.0000   1.0000   1.0000   1.0000
     1.0000   1.0000   1.0000   1.0000   1.0000   1.0000   1.0000   1.0000
     1.0000   1.0000   1.0000   1.0000   1.0000   1.0000   1.0000   1.0000
     1.0000   1.0000   1.0000   1.0000   1.0000   1.0000   1.0000   1.0000
     1.0000   1.0000   1.0000   1.0000   1.0000   1.0000   1.0000   1.0000
     1.0000   1.0000   1.0000   1.0000   1.0000   1.0000   1.0000   1.0000
     1.0000   1.0000   1.0000   1.0000   1.0000   1.0000   1.0000   1.0000
     1.0000   1.0000   1.0000   1.0000   1.0000   1.0000   1.0000   1.0000
     1.0000   1.0000   1.0000   1.0000   1.0000   1.0000   1.0000   1.0000
     1.0000   1.0000   1.0000   1.0000   1.0000   1.0000   1.0000   1.0000
     1.0000   1.0000   1.0000   1.0000   1.0000   1.0000   1.0000   1.0000
     1.0000   1.0000   1.0000   1.0000   1.0000   1.0000   1.0000   1.0000
     1.0000   1.0000   1.0000   1.0000   1.0000   1.0000   1.0000   1.0000
     1.0000   1.0000   1.0000   1.0000   1.0000   1.0000   1.0000   1.0000
     1.0000   1.0000   1.0000   1.0000   1.0000   1.0000   1.0000   1.0000
     1.0000   1.0000   1.0000   1.0000   1.0000   1.0000   1.0000   1.0000
     1.0000   1.0000   1.0000   1.0000   1.0000   1.0000   1.0000   1.0000
     1.0000   1.0000   1.0000   1.0000   1.0000   1.0000   1.0000   1.0000
     1.0000   1.0000   1.0000   1.0000   1.0000   1.0000   1.0000   1.0000
     1.0000   1.0000   1.0000   1.0000   1.0000   1.0000   1.0000   1.0000
     1.0000   1.0000   1.0000   1.0000   1.0000   1.0000   1.0000   1.0000
     1.0000   1.0000   1.0000   1.0000   1.0000   1.0000   1.0000   1.0000
     1.0000   1.0000   1.0000   1.0000   1.0000   1.0000   1.0000   1.0000
     1.0000   1.0000   1.0000   1.0000   1.0000   1.0000   1.0000   1.0000
     1.0000   1.0000   1.0000   1.0000   1.0000   1.0000   1.0000   1.0000
     1.0000   1.0000   1.0000   1.0000   1.0000   1.0000   1.0000   1.0000
     1.0000   1.0000   1.0000   1.0000   1.0000   1.0000   1.0000   1.0000
     1.0000   1.0000   1.0000   1.0000   1.0000   1.0000   1.0000   1.0000
     1.0000   1.0000   1.0000   1.0000   1.0000   1.0000   1.0000   1.0000
     1.0000   1.0000   1.0000   1.0000   1.0000   1.0000   1.0000   1.0000
     1.0000   1.0000   1.0000   1.0000   1.0000   1.0000   1.0000   1.0000
     1.0000   1.0000   1.0000   1.0000   1.0000   1.0000   1.0000   1.0000
     1.0000   1.0000   1.0000   1.0000   1.0000   1.0000   1.0000   1.0000
     1.0000   1.0000   1.0000   1.0000   1.0000   1.0000   1.0000   1.0000
     1.0000   1.0000   1.0000   1.0000   1.0000   1.0000   1.0000   1.0000
     1.0000   1.0000   1.0000   1.0000   1.0000   1.0000   1.0000   1.0000
     1.0000   1.0000   1.0000   1.0000   1.0000   1.0000   1.0000   1.0000
     1.0000   1.0000   1.0000   1.0000   1.0000   1.0000   1.0000   1.0000
     1.0000   1.0000   1.0000   1.0000   1.0000   1.0000   1.0000   1.0000
     1.0000   1.0000   1.0000   1.0000   1.0000   1.0000   1.0000   1.0000
     1.0000   1.0000   1.0000   1.0000   1.0000   1.0000   1.0000   1.0000
     1.0000   1.0000   1.0000   1.0000   1.0000   1.0000   1.0000   1.0000
     1.0000   1.0000   1.0000   1.0000   1.0000   1.0000   1.0000   1.0000
     1.0000   1.0000   1.0000   1.0000   1.0000   1.0000   1.0000   1.0000
     1.0000   1.0000   1.0000   1.0000   1.0000   1.0000   1.0000   1.0000
     1.0000   1.0000   1.0000   1.0000   1.0000   1.0000   1.0000   1.0000
     1.0000   1.0000   1.0000   1.0000   1.0000   1.0000   1.0000   1.0000
     1.0000   1.0000   1.0000   1.0000   1.0000   1.0000   1.0000   1.0000
     1.0000   1.0000   1.0000   1.0000   1.0000   1.0000   1.0000   1.0000
     1.0000   1.0000   1.0000   1.0000   1.0000   1.0000   1.0000   1.0000
     1.0000   1.0000   1.0000   1.0000   1.0000   1.0000   1.0000   1.0000
     1.0000   1.0000   1.0000   1.0000   1.0000   1.0000   1.0000   1.0000
     1.0000   1.0000   1.0000   1.0000   1.0000   1.0000   1.0000   1.0000
     1.0000   1.0000   1.0000   1.0000   1.0000   1.0000   1.0000   1.0000
     1.0000   1.0000   1.0000   1.0000   1.0000   1.0000   1.0000   1.0000
     1.0000   1.0000   1.0000   1.0000   1.0000   1.0000   1.0000   1.0000
     1.0000   1.0000   1.0000   1.0000   1.0000   1.0000   1.0000   1.0000
     1.0000   1.0000   1.0000   1.0000   1.0000   1.0000   1.0000   1.0000
     1.0000   1.0000   1.0000   1.0000   1.0000   1.0000   1.0000   1.0000
     1.0000   1.0000   1.0000   1.0000   1.0000   1.0000   1.0000   1.0000
     1.0000   1.0000   1.0000   1.0000   1.0000   1.0000   1.0000   1.0000
     1.0000   1.0000   1.0000   1.0000   1.0000   1.0000   1.0000   1.0000
     1.0000   1.0000   1.0000   1.0000   1.0000   1.0000   1.0000   1.0000
     1.0000   1.0000   1.0000   1.0000   1.0000   1.0000   1.0000   1.0000
     1.0000   1.0000   1.0000   1.0000   1.0000   1.0000   1.0000   1.0000
     1.0000   1.0000   1.0000   1.0000   1.0000   1.0000   1.0000   1.0000
     1.0000   1.0000   1.0000   1.0000   1.0000   1.0000   1.0000   1.0000
     1.0000   1.0000   1.0000   1.0000   1.0000   1.0000   1.0000   1.0000
     1.0000   1.0000   1.0000   1.0000   1.0000   1.0000   1.0000   1.0000
     1.0000   1.0000   1.0000   1.0000   1.0000   1.0000   1.0000   1.0000
     1.0000   1.0000   1.0000   1.0000   1.0000   1.0000   1.0000   1.0000
     1.0000   1.0000   1.0000   1.0000   1.0000   1.0000   1.0000   1.0000
     1.0000   1.0000   1.0000   1.0000   1.0000   1.0000   1.0000   1.0000
     1.0000   1.0000   1.0000   1.0000   1.0000   1.0000   1.0000   1.0000
     1.0000   1.0000   1.0000   1.0000   1.0000   1.0000   1.0000   1.0000
     1.0000   1.0000   1.0000   1.0000   1.0000   1.0000   1.0000   1.0000
     1.0000   1.0000   1.0000   1.0000   1.0000   1.0000   1.0000   1.0000
     1.0000   1.0000   1.0000   1.0000   1.0000   1.0000   1.0000   1.0000
     1.0000   1.0000   1.0000   1.0000   1.0000   1.0000   1.0000   1.0000
     1.0000   1.0000   1.0000   1.0000   1.0000   1.0000   1.0000   1.0000
     1.0000   1.0000   1.0000   1.0000   1.0000   1.0000   1.0000   1.0000
     1.0000   1.0000   1.0000   1.0000   1.0000   1.0000   1.0000   1.0000
     1.0000   1.0000   1.0000   1.0000   1.0000   1.0000   1.0000   1.0000
     1.0000   1.0000   1.0000   1.0000   1.0000   1.0000   1.0000   1.0000
     1.0000   1.0000   1.0000   1.0000   1.0000   1.0000   1.0000   1.0000
     1.0000   1.0000   1.0000   1.0000   1.0000   1.0000   1.0000   1.0000
     1.0000   1.0000   1.0000   1.0000   1.0000   1.0000   1.0000   1.0000
     1.0000   1.0000   1.0000   1.0000   1.0000   1.0000   1.0000   1.0000
     1.0000   1.0000   1.0000   1.0000   1.0000   1.0000   1.0000   1.0000
     1.0000   1.0000   1.0000   1.0000   1.0000   1.0000   1.0000   1.0000
     1.0000   1.0000   1.0000   1.0000   1.0000   1.0000   1.0000   1.0000
     1.0000   1.0000   1.0000   1.0000   1.0000   1.0000   1.0000   1.0000
     1.0000   1.0000   1.0000   1.0000   1.0000   1.0000   1.0000   1.0000
     1.0000   1.0000   0.0086   0.0086   0.0016   0.0000   0.0000   0.0000
     0.0000   0.0000   0.0000   0.0000   0.0000   0.0000   0.0000   0.0000
     0.0000   0.0000   0.0000   0.0000   0.0000   0.0000   0.0000   0.0000
     0.0000   0.0000   0.0000   0.0000   0.0000   0.0000   0.0000   0.0000
     0.0000   0.0000   0.0000   0.0000   0.0000   0.0000   0.0000   0.0000
     0.0000   0.0000   0.0000   0.0000   0.0000   0.0000   0.0000   0.0000
     0.0000   0.0000   0.0000   0.0000   0.0000   0.0000   0.0000   0.0000
     0.0000   0.0000   0.0000   0.0000   0.0000   0.0000   0.0000   0.0000
     0.0000   0.0000   0.0000   0.0000   0.0000   0.0000   0.0000   0.0000
     0.0000   0.0000   0.0000   0.0000   0.0000   0.0000   0.0000   0.0000
     0.0000   0.0000   0.0000   0.0000   0.0000   0.0000   0.0000   0.0000
     0.0000   0.0000   0.0000   0.0000   0.0000   0.0000   0.0000   0.0000
     0.0000   0.0000   0.0000   0.0000   0.0000   0.0000   0.0000   0.0000
     0.0000   0.0000   0.0000   0.0000   0.0000   0.0000   0.0000   0.0000
     0.0000   0.0000   0.0000   0.0000   0.0000   0.0000   0.0000   0.0000
     0.0000   0.0000   0.0000   0.0000   0.0000   0.0000   0.0000   0.0000
     0.0000   0.0000   0.0000   0.0000   0.0000   0.0000   0.0000   0.0000
     0.0000   0.0000   0.0000   0.0000   0.0000   0.0000   0.0000   0.0000
     0.0000   0.0000   0.0000   0.0000   0.0000   0.0000   0.0000   0.0000
     0.0000   0.0000   0.0000   0.0000   0.0000   0.0000   0.0000   0.0000
     0.0000   0.0000   0.0000   0.0000   0.0000   0.0000   0.0000   0.0000
     0.0000   0.0000   0.0000   0.0000   0.0000   0.0000   0.0000   0.0000

          k = 0.0000 0.0000-0.4090 (154532 PWs)   bands (ev):

    -6.9721  -6.8664  -6.8312  -6.8312  -6.7771  -6.7551  -6.7551  -6.7240
    -6.7095  -6.7095  -6.6844  -6.6843  -6.6455  -6.6433  -6.6432  -6.6349
    -6.6236  -6.6236  -6.5922  -6.4971  -6.4648  -6.4648  -6.4500  -6.4499
    -6.4375  -6.4283  -6.4080  -6.4080  -6.4058  -6.3939  -6.3939  -6.3764
    -6.3634  -6.3504  -6.3504  -6.3409  -6.3409  -6.3409  -6.3371  -6.3296
    -6.3232  -6.3232  -6.3181  -6.2994  -6.2994  -6.2960  -6.2959  -6.2915
    -6.2791  -6.2790  -6.2776  -6.2726  -6.2726  -6.2698  -6.2667  -6.2663
    -6.2662  -6.2625  -6.2624  -6.2515  -6.2454  -6.2316  -6.2316  -6.2254
    -6.2254  -6.2227  -6.2174  -6.2151  -6.2058  -6.2058  -6.2014  -6.1986
    -6.1981  -6.1981  -6.1899  -6.1899  -6.1863  -6.1798  -6.1692  -6.1692
    -6.1643  -6.1643  -6.1634  -6.1536  -6.1536  -6.1509  -6.1430  -6.1430
    -6.1338  -6.1338  -6.1302  -6.1291  -6.1291  -6.1265  -6.1231  -6.1205
    -6.1204  -6.0954  -6.0945  -6.0945  -6.0668  -6.0668  -5.8682  -5.8027
    -5.7994  -5.7994  -5.7929  -5.7851  -5.7851  -5.7624  -5.7114  -5.7114
    -5.6528  -5.6528  -5.5474  -5.5474  -5.5363  -5.5168  -5.5167  -5.5085
    -5.3373  -5.3324  -5.3324  -5.3172  -5.3172  -5.2836  -5.2836  -5.2800
    -5.2678  -5.2678  -5.2620  -5.2590  -5.2586  -5.2586  -5.2542  -5.2542
    -5.2371  -5.2371  -5.2365  -5.2267  -5.2267  -5.2226  -5.2226  -5.2219
    -5.2161  -5.2149  -5.2149  -5.2141  -5.2039  -5.2033  -5.2027  -5.2027
    -5.1984  -5.1984  -5.1955  -5.1948  -5.1948  -5.1914  -5.1902  -5.1902
    -5.1897  -5.1846  -5.1846  -5.1757  -5.1757  -5.1737  -5.1728  -5.1699
    -5.1696  -5.1696  -5.1674  -5.1674  -5.1603  -5.1593  -5.1593  -5.1567
    -5.1511  -5.1511  -5.1458  -5.1458  -5.1454  -5.1454  -5.1428  -5.1428
    -5.1402  -5.1381  -5.1381  -5.1340  -5.1340  -5.1330  -5.1330  -5.1279
    -5.1279  -5.1264  -5.1245  -5.1234  -5.1234  -5.1176  -5.1176  -5.1113
    -5.1099  -5.1099  -5.1057  -5.1046  -5.1046  -5.1018  -5.1018  -5.0981
    -5.0957  -5.0940  -5.0940  -5.0939  -5.0929  -5.0880  -5.0880  -5.0832
    -5.0832  -5.0763  -5.0754  -5.0695  -5.0695  -5.0680  -5.0647  -5.0647
    -5.0606  -5.0570  -5.0570  -5.0564  -5.0553  -5.0553  -5.0511  -5.0511
    -5.0509  -5.0456  -5.0455  -5.0392  -5.0392  -5.0368  -5.0368  -5.0363
    -5.0358  -5.0316  -5.0316  -5.0278  -5.0278  -5.0271  -5.0256  -5.0256
    -5.0239  -5.0199  -5.0199  -5.0173  -5.0173  -5.0169  -5.0161  -5.0161
    -5.0124  -5.0119  -5.0119  -5.0118  -5.0086  -5.0086  -5.0080  -5.0056
    -5.0055  -5.0045  -5.0045  -5.0020  -5.0006  -5.0006  -4.9986  -4.9986
    -4.9979  -4.9968  -4.9968  -4.9928  -4.9923  -4.9923  -4.9915  -4.9913
    -4.9913  -4.9890  -4.9890  -4.9873  -4.9849  -4.9849  -4.9814  -4.9814
    -4.9801  -4.9769  -4.9762  -4.9762  -4.9762  -4.9753  -4.9753  -4.9725
    -4.9720  -4.9720  -4.9690  -4.9678  -4.9678  -4.9661  -4.9661  -4.9656
    -4.9653  -4.9647  -4.9647  -4.9623  -4.9611  -4.9584  -4.9584  -4.9570
    -4.9570  -4.9552  -4.9552  -4.9529  -4.9529  -4.9525  -4.9475  -4.9471
    -4.9471  -4.9447  -4.9443  -4.9443  -4.9418  -4.9418  -4.9418  -4.9384
    -4.9382  -4.9382  -4.9362  -4.9362  -4.9355  -4.9344  -4.9344  -4.9341
    -4.9340  -4.9299  -4.9299  -4.9283  -4.9274  -4.9273  -4.9273  -4.9244
    -4.9216  -4.9216  -4.9178  -4.9178  -4.9170  -4.9169  -4.9167  -4.9163
    -4.9152  -4.9142  -4.9142  -4.9120  -4.9120  -4.9100  -4.9100  -4.9092
    -4.9088  -4.9088  -4.9068  -4.9043  -4.9043  -4.9038  -4.9014  -4.9014
    -4.9010  -4.8973  -4.8973  -4.8943  -4.8932  -4.8931  -4.8925  -4.8925
    -4.8902  -4.8885  -4.8885  -4.8872  -4.8858  -4.8856  -4.8856  -4.8849
    -4.8815  -4.8807  -4.8807  -4.8801  -4.8789  -4.8789  -4.8775  -4.8739
    -4.8720  -4.8720  -4.8701  -4.8701  -4.8690  -4.8675  -4.8675  -4.8662
    -4.8644  -4.8636  -4.8636  -4.8607  -4.8607  -4.8602  -4.8562  -4.8561
    -4.8543  -4.8518  -4.8518  -4.8509  -4.8509  -4.8490  -4.8490  -4.8490
    -4.8487  -4.8472  -4.8472  -4.8437  -4.8437  -4.8436  -4.8422  -4.8401
    -4.8401  -4.8391  -4.8391  -4.8378  -4.8378  -4.8361  -4.8348  -4.8348
    -4.8296  -4.8296  -4.8296  -4.8254  -4.8254  -4.8231  -4.8219  -4.8183
    -4.8183  -4.8133  -4.8133  -4.8120  -4.8104  -4.8103  -4.8091  -4.8091
    -4.8064  -4.8049  -4.7993  -4.7993  -4.7991  -4.7965  -4.7965  -4.7920
    -4.7920  -4.7897  -4.7897  -4.7893  -4.7841  -4.7841  -4.7821  -4.7794
    -4.7794  -4.7724  -4.7721  -4.7721  -4.7715  -4.7707  -4.7707  -4.7688
    -4.7688  -4.7633  -4.7633  -4.7595  -4.7595  -4.7587  -4.7563  -4.7497
    -4.7497  -4.7454  -4.7435  -4.7435  -4.7408  -4.7369  -4.7369  -4.7248
    -4.7248  -4.7247  -4.7025  -4.7025  -4.6946  -4.6648  -4.6436  -4.6432
    -4.6432  -4.6226  -4.5934  -4.5934  -4.5710  -4.2066  -4.2066  -4.2061
    -4.1944  -4.1943  -4.1295  -4.1295  -4.1208  -4.0950  -4.0950  -4.0709
    -4.0651  -3.8288  -3.7984  -3.7947  -3.7947  -3.6604  -3.6604  -3.6556
    -3.6460  -3.6459  -3.5915  -3.5871  -3.5575  -3.5519  -3.5519  -3.5318
    -3.5318  -3.4952  -3.4414  -3.4414  -3.4187  -3.4187  -3.4097  -3.3707
    -3.3678  -3.3677  -3.3598  -3.2994  -3.2994  -3.2627  -3.2560  -3.2560
    -3.2254  -3.2254  -3.2241  -3.2234  -3.2234  -3.2161  -3.2032  -3.1924
    -3.1923  -3.1908  -3.1809  -3.1784  -3.1784  -3.1707  -3.1707  -3.1267
    -3.1267  -3.1008  -3.0609  -3.0302  -3.0302  -2.8993  -2.8924  -2.8924
    -2.8924  -2.8517  -2.8487  -2.8487  -2.8078  -2.8078  -2.7435  -2.7293
    -2.7293  -2.7291  -2.6992  -2.6992   1.3286   2.1742   2.2543   2.4147
     2.4147   2.5028   2.5029   2.5307   2.5521   2.5522   2.5718   2.5960
     2.6082   2.6082   2.6754   2.8126   2.8126   2.8848   2.9491   2.9927
     2.9927   3.0015   3.0069   3.0552   3.0552   3.0792   3.0792   3.0952
     3.0952   3.1158   3.1277   3.1277   3.1410   3.1439   3.1615   3.1616
     3.1751   3.1751   3.1835   3.1835   3.1925   3.1931   3.2004   3.2004
     3.2152   3.2152   3.2358   3.2410   3.2410   3.2546   3.3189   3.3954
     3.3955   3.4720   3.5060   3.5061   3.5161   3.6760   3.6760   3.7309
     3.8008   3.8008   3.8190   3.8364   3.8367   3.8368   3.8636   3.8636
     3.8870   4.2584   4.3033   4.3034   4.3215   4.3216   4.3860   4.3861
     4.3897   4.3897   4.3983   4.4309   4.7084   4.9260   4.9260   4.9604
     4.9723   5.0219   5.0394   5.0394   5.0594   5.0594   5.0909   5.0909
     5.0947   5.1144   5.1244   5.1245   5.1301   5.1902   5.2133   5.2133
     5.2200   5.2434   5.2434   5.2677   5.2704   5.2704   5.2774   5.2774
     5.3274   5.3560   5.3560   5.3708   5.3792   5.4473   5.4614   5.4614
     5.4837   5.4837   5.5539   5.5539   5.5539   5.5751   5.6088   5.6088
     5.6347   5.6348   5.6435   5.6630   5.6631   5.6893   5.7158   5.7159
     5.7168   5.7264   5.7283   5.7283   5.7416   5.7416   5.7580   5.7687
     5.8350   5.8351   5.8419   5.8525   5.8526   5.8727   5.9189   5.9189
     6.3089   6.3246   6.3246   6.3270   6.4086   6.4086   6.4104   6.5269
     6.5269   6.6281   6.6720   6.6720   6.6885   6.6885   6.7160   6.7751
     6.7788   6.7788   6.7866   6.7951   6.7951   6.8105   6.8304   6.8304
     6.8351   6.8817   6.8817   6.9101   6.9175   6.9175   6.9408   6.9595
     6.9596   6.9613   6.9757   6.9757   6.9885   7.0083   7.0124   7.0125
     7.0194   7.0333   7.0334   7.0429   7.0429   7.0665   7.0705   7.0799
     7.0940   7.0941   7.1132   7.1264   7.1334   7.1334   7.1425   7.1425
     7.1576   7.1750   7.1750   7.1792   7.1793   7.1804   7.2328   7.2328
     7.2379   7.2612   7.2612   7.2733   7.3054   7.3055   7.3267   7.3291
     7.3316   7.3317   7.3661   7.3661   7.3787   7.3787   7.3956   7.3994
     7.3994   7.4009   7.4196   7.4196   7.5301   7.5931   7.5964   7.5964
     7.6340   7.6341   7.6565   7.6676   7.6676   7.6778   7.6793   7.6793
     7.6895   7.7176   7.7976   7.7977   7.8353   7.8357   7.8357   7.9819
     7.9820   7.9949   8.0123   8.0124   8.0342   8.0453   8.0454   8.1116
     8.1116   8.1313   8.1467   8.1699   8.1729   8.1729   8.1967   8.1967
     8.2355   8.2421   8.2421   8.2701   8.2968   8.2969   8.3086   8.3349
     8.3350   8.3592   8.3592   8.3668   8.3669   8.3745   8.7024   8.7025
     8.8626   8.8627   9.9953   9.9955   9.9993  11.0838  11.2016  12.5035
    12.5857  12.6361  12.6361  12.6951  12.7688  12.8024  12.8263  12.8264
    12.8714  12.8973  12.9169  12.9170  12.9800  12.9800  12.9872  13.1206
    13.1239  13.1239  13.1870  13.1870  13.3344  13.4350  13.4350  13.4396
    13.4835  13.4836  13.5059  13.6321  13.6321  13.7348  13.8104  13.8104
    13.8793  13.8841  13.8842  13.9137  13.9137  13.9520  13.9521  13.9567
    13.9759  14.0083  14.0224  14.0225  14.1816  14.2416  14.2417  14.3340
    14.4109  14.4444  14.4577  14.4578  14.5146  14.5146  14.5448  14.5525
    14.5577  14.5577  14.5783  14.5783  14.5997  14.5997  14.5997  14.6101
    14.6102  14.6323  14.6670  14.6670  14.6684  14.7474  14.7474  14.7538
    14.7987  14.7987  14.8356  14.8642  14.8642  14.8975  14.8975  14.9112
    14.9349  14.9349  14.9553  14.9596  14.9596  14.9957  15.0339  15.0339
    15.0830  15.0838  15.0838  15.1013  15.4059  15.6197  15.6793  15.6794
    15.7761  15.7806  15.7806  15.8544  15.8544  15.8634  15.9381  15.9629
    16.0633  16.0633  16.1280  16.1283  16.1283  16.1619  16.1619  16.1852
    16.2197  16.2197  16.2230  16.2413  16.2413  16.2524  16.2524  16.2610
    16.2610  16.2751  16.3015  16.3015  16.3027  16.3093  16.3477  16.3477
    16.3495  16.3495  16.3525  16.3677  16.3853  16.3866  16.3866  16.3978
    16.3978  16.4111  16.4391  16.4391  16.4444  16.4894  16.4894  16.5092
    16.5428  16.5633  16.5634  16.5862  16.6044  16.6045  16.6321  16.6370
    16.6406  16.6406  16.6563  16.6563  16.6655  16.6655  16.7038  16.7127
    16.7127  16.7152  16.7334  16.7404  16.7404  16.7615  16.7615  16.8173

     occupation numbers 
     1.0000   1.0000   1.0000   1.0000   1.0000   1.0000   1.0000   1.0000
     1.0000   1.0000   1.0000   1.0000   1.0000   1.0000   1.0000   1.0000
     1.0000   1.0000   1.0000   1.0000   1.0000   1.0000   1.0000   1.0000
     1.0000   1.0000   1.0000   1.0000   1.0000   1.0000   1.0000   1.0000
     1.0000   1.0000   1.0000   1.0000   1.0000   1.0000   1.0000   1.0000
     1.0000   1.0000   1.0000   1.0000   1.0000   1.0000   1.0000   1.0000
     1.0000   1.0000   1.0000   1.0000   1.0000   1.0000   1.0000   1.0000
     1.0000   1.0000   1.0000   1.0000   1.0000   1.0000   1.0000   1.0000
     1.0000   1.0000   1.0000   1.0000   1.0000   1.0000   1.0000   1.0000
     1.0000   1.0000   1.0000   1.0000   1.0000   1.0000   1.0000   1.0000
     1.0000   1.0000   1.0000   1.0000   1.0000   1.0000   1.0000   1.0000
     1.0000   1.0000   1.0000   1.0000   1.0000   1.0000   1.0000   1.0000
     1.0000   1.0000   1.0000   1.0000   1.0000   1.0000   1.0000   1.0000
     1.0000   1.0000   1.0000   1.0000   1.0000   1.0000   1.0000   1.0000
     1.0000   1.0000   1.0000   1.0000   1.0000   1.0000   1.0000   1.0000
     1.0000   1.0000   1.0000   1.0000   1.0000   1.0000   1.0000   1.0000
     1.0000   1.0000   1.0000   1.0000   1.0000   1.0000   1.0000   1.0000
     1.0000   1.0000   1.0000   1.0000   1.0000   1.0000   1.0000   1.0000
     1.0000   1.0000   1.0000   1.0000   1.0000   1.0000   1.0000   1.0000
     1.0000   1.0000   1.0000   1.0000   1.0000   1.0000   1.0000   1.0000
     1.0000   1.0000   1.0000   1.0000   1.0000   1.0000   1.0000   1.0000
     1.0000   1.0000   1.0000   1.0000   1.0000   1.0000   1.0000   1.0000
     1.0000   1.0000   1.0000   1.0000   1.0000   1.0000   1.0000   1.0000
     1.0000   1.0000   1.0000   1.0000   1.0000   1.0000   1.0000   1.0000
     1.0000   1.0000   1.0000   1.0000   1.0000   1.0000   1.0000   1.0000
     1.0000   1.0000   1.0000   1.0000   1.0000   1.0000   1.0000   1.0000
     1.0000   1.0000   1.0000   1.0000   1.0000   1.0000   1.0000   1.0000
     1.0000   1.0000   1.0000   1.0000   1.0000   1.0000   1.0000   1.0000
     1.0000   1.0000   1.0000   1.0000   1.0000   1.0000   1.0000   1.0000
     1.0000   1.0000   1.0000   1.0000   1.0000   1.0000   1.0000   1.0000
     1.0000   1.0000   1.0000   1.0000   1.0000   1.0000   1.0000   1.0000
     1.0000   1.0000   1.0000   1.0000   1.0000   1.0000   1.0000   1.0000
     1.0000   1.0000   1.0000   1.0000   1.0000   1.0000   1.0000   1.0000
     1.0000   1.0000   1.0000   1.0000   1.0000   1.0000   1.0000   1.0000
     1.0000   1.0000   1.0000   1.0000   1.0000   1.0000   1.0000   1.0000
     1.0000   1.0000   1.0000   1.0000   1.0000   1.0000   1.0000   1.0000
     1.0000   1.0000   1.0000   1.0000   1.0000   1.0000   1.0000   1.0000
     1.0000   1.0000   1.0000   1.0000   1.0000   1.0000   1.0000   1.0000
     1.0000   1.0000   1.0000   1.0000   1.0000   1.0000   1.0000   1.0000
     1.0000   1.0000   1.0000   1.0000   1.0000   1.0000   1.0000   1.0000
     1.0000   1.0000   1.0000   1.0000   1.0000   1.0000   1.0000   1.0000
     1.0000   1.0000   1.0000   1.0000   1.0000   1.0000   1.0000   1.0000
     1.0000   1.0000   1.0000   1.0000   1.0000   1.0000   1.0000   1.0000
     1.0000   1.0000   1.0000   1.0000   1.0000   1.0000   1.0000   1.0000
     1.0000   1.0000   1.0000   1.0000   1.0000   1.0000   1.0000   1.0000
     1.0000   1.0000   1.0000   1.0000   1.0000   1.0000   1.0000   1.0000
     1.0000   1.0000   1.0000   1.0000   1.0000   1.0000   1.0000   1.0000
     1.0000   1.0000   1.0000   1.0000   1.0000   1.0000   1.0000   1.0000
     1.0000   1.0000   1.0000   1.0000   1.0000   1.0000   1.0000   1.0000
     1.0000   1.0000   1.0000   1.0000   1.0000   1.0000   1.0000   1.0000
     1.0000   1.0000   1.0000   1.0000   1.0000   1.0000   1.0000   1.0000
     1.0000   1.0000   1.0000   1.0000   1.0000   1.0000   1.0000   1.0000
     1.0000   1.0000   1.0000   1.0000   1.0000   1.0000   1.0000   1.0000
     1.0000   1.0000   1.0000   1.0000   1.0000   1.0000   1.0000   1.0000
     1.0000   1.0000   1.0000   1.0000   1.0000   1.0000   1.0000   1.0000
     1.0000   1.0000   1.0000   1.0000   1.0000   1.0000   1.0000   1.0000
     1.0000   1.0000   1.0000   1.0000   1.0000   1.0000   1.0000   1.0000
     1.0000   1.0000   1.0000   1.0000   1.0000   1.0000   1.0000   1.0000
     1.0000   1.0000   1.0000   1.0000   1.0000   1.0000   1.0000   1.0000
     1.0000   1.0000   1.0000   1.0000   1.0000   1.0000   1.0000   1.0000
     1.0000   1.0000   1.0000   1.0000   1.0000   1.0000   1.0000   1.0000
     1.0000   1.0000   1.0000   1.0000   1.0000   1.0000   1.0000   1.0000
     1.0000   1.0000   1.0000   1.0000   1.0000   1.0000   1.0000   1.0000
     1.0000   1.0000   1.0000   1.0000   1.0000   1.0000   1.0000   1.0000
     1.0000   1.0000   1.0000   1.0000   1.0000   1.0000   1.0000   1.0000
     1.0000   1.0000   1.0000   1.0000   1.0000   1.0000   1.0000   1.0000
     1.0000   1.0000   1.0000   1.0000   1.0000   1.0000   1.0000   1.0000
     1.0000   1.0000   1.0000   1.0000   1.0000   1.0000   1.0000   1.0000
[...]
     Non-local corr. energy    =      52.70313622 Ry
     -----------------------------------------------

          total   stress  (Ry/bohr**3)                   (kbar)     P=      -15.40
  -0.00010231  -0.00000000   0.00000000          -15.05       -0.00        0.00
   0.00000000  -0.00010231  -0.00000000            0.00      -15.05       -0.00
   0.00000000   0.00000000  -0.00010942            0.00        0.00      -16.10

     kinetic stress (kbar)  18449.45      0.00      0.00
                                0.00  18449.45      0.00
                                0.00      0.00  18440.24

     local   stress (kbar)   5564.74     -0.07     -0.00
                               -0.07   5564.65      0.00
                               -0.00      0.00   3912.67

     nonloc. stress (kbar)     95.77     -0.00      0.00
                                0.00     95.77     -0.00
                                0.00     -0.00    106.12

     hartree stress (kbar)  19761.49     -0.00     -0.00
                               -0.00  19761.49      0.00
                               -0.00      0.00  20513.86

     exc-cor stress (kbar)   5300.37      0.00     -0.00
                                0.00   5300.37      0.00
                               -0.00      0.00   5300.50

     corecor stress (kbar) -14244.02     -0.00     -0.00
                               -0.00 -14244.02      0.00
                               -0.00      0.00 -14243.45

     ewald   stress (kbar) -35106.19      0.10      0.00
                                0.10 -35106.07     -0.00
                                0.00     -0.00 -34208.54

     hubbard stress (kbar)      0.00      0.00      0.00
                                0.00      0.00      0.00
                                0.00      0.00      0.00

     DFT-D   stress (kbar)      0.00      0.00      0.00
                                0.00      0.00      0.00
                                0.00      0.00      0.00

     XDM     stress (kbar)      0.00      0.00      0.00
                                0.00      0.00      0.00
                                0.00      0.00      0.00

     dft-nl  stress (kbar)    163.33     -0.00     -0.00
                               -0.00    163.33     -0.00
                               -0.00     -0.00    162.51

     TS-vdW  stress (kbar)      0.00      0.00      0.00
                                0.00      0.00      0.00
                                0.00      0.00      0.00

     MDB     stress (kbar)      0.00      0.00      0.00
                                0.00      0.00      0.00
                                0.00      0.00      0.00

     3D-RISM stress (kbar)      0.00      0.00      0.00
                                0.00      0.00      0.00
                                0.00      0.00      0.00


     BFGS Geometry Optimization
     Energy error            =      0.0E+00 Ry
     Gradient error          =      9.3E-04 Ry/Bohr

     bfgs converged in   1 scf cycles and   0 bfgs steps
     (criteria: energy <  1.0E-04 Ry, force <  1.0E-03 Ry/Bohr)

     End of BFGS Geometry Optimization

     Final energy             =  -30236.0120804447 Ry
Begin final coordinates

ATOMIC_POSITIONS (angstrom)
Ga            1.6222756606        0.9366198184        1.8673122885
Ga            1.6222756606        0.9366198184        7.9292330367
Ga            1.6222756606        0.9366198184       13.2113701385
Ga           -0.0047355214        3.7774801980        2.6179777431
Ga            0.0002870915        3.7871577011        7.9790507883
Ga           -0.0017692194        3.7639014198       13.1922945839
Ga           -1.6197257087        6.5578130633        2.6230826838
Ga           -1.6157153285        6.5601284574        7.9554334562
Ga           -1.6201015025        6.5575960987       13.2159460409
Ga           -3.2200695073        9.3466020250        2.6179777431
Ga           -3.2091772373        9.3461129838        7.9790507883
Ga           -3.2303459232        9.3559603070       13.1922945839
Ga            4.8960385089        0.9252226445        2.6179777431
Ga            4.9019081659        0.9160341826        7.9790507883
Ga            4.8827957910        0.9294431407       13.1922945839
Ga            3.2492868426        3.7774801980        2.6179777431
Ga            3.2442642297        3.7871577011        7.9790507883
Ga            3.2463205406        3.7639014198       13.1922945839
Ga            1.6222756606        6.5648460650        2.6379292054
Ga            1.6222756606        6.5710620271        7.9486635445
Ga            1.6222756606        6.5627450355       13.2216832063
Ga            0.0073657341        9.3619521074        2.6379292054
Ga            0.0127489152        9.3588441263        7.9486635445
Ga            0.0055461892        9.3630026222       13.2216832063
Ga            8.1113724947        0.9336787409        2.6230826838
Ga            8.1113724947        0.9290479528        7.9554334562
Ga            8.1113724947        0.9341126702       13.2159460409
Ga            6.4923289735        3.7483464097        2.6325003257
Ga            6.4942063156        3.7494302937        7.9530010959
Ga            6.4913363457        3.7477733158       13.2164510520
Ga            4.8642770299        6.5578130633        2.6230826838
Ga            4.8602666497        6.5601284574        7.9554334562
Ga            4.8646528237        6.5575960987       13.2159460409
Ga            3.2371855871        9.3619521074        2.6379292054
Ga            3.2318024060        9.3588441263        7.9486635445
Ga            3.2390051320        9.3630026222       13.2216832063
Ga           11.3267064806        0.9252226445        2.6179777431
Ga           11.3208368236        0.9160341826        7.9790507883
Ga           11.3399491985        0.9294431407       13.1922945839
Ga            9.7304160160        3.7483464097        2.6325003257
Ga            9.7285386739        3.7494302937        7.9530010959
Ga            9.7314086438        3.7477733158       13.2164510520
Ga            8.1113724947        6.5526120482        2.6325003257
Ga            8.1113724947        6.5504442803        7.9530010959
Ga            8.1113724947        6.5537582361       13.2164510520
Ga            6.4646208285        9.3466020250        2.6179777431
Ga            6.4537285585        9.3461129838        7.9790507883
Ga            6.4748972444        9.3559603070       13.1922945839
Ga           -0.3387416020        2.0688138672        5.4160890907
Ga            0.0017898830        1.8722079227       10.5840615424
Ga           -0.0823640651        1.9207942273       15.7465274128
Ga           -1.6662481897        4.7328226631        5.3068447799
Ga           -1.6308949312        4.6875576299       10.5875364161
Ga           -1.6365247001        4.6959434729       15.8478836933
Ga           -3.2234785913        7.4300248377        5.3068447799
Ga           -3.2450026307        7.4832741743       10.5875364161
Ga           -3.2405551620        7.4742057299       15.8478836933
Ga           -4.8668245904        9.9116836643        5.4160890907
Ga           -4.8668245904       10.3048955533       10.5840615424
Ga           -4.8668245904       10.2077229441       15.7465274128
Ga            3.5832860895        2.0688138672        5.4160890907
Ga            3.2427546045        1.8722079227       10.5840615424
Ga            3.3269085526        1.9207942273       15.7465274128
Ga            1.6222722437        4.7094834986        5.3168736227
Ga            1.6222722437        4.6953611086       10.5877943654
Ga            1.6222722437        4.6961344715       15.8465324990
Ga            0.0099381707        7.4987040926        5.2961384824
Ga            0.0015916600        7.4938852324       10.5898609479
Ga            0.0014230987        7.4937879135       15.8583561580
Ga           -1.5994306838       10.2896366562        5.3168736227
Ga           -1.6116610323       10.2966978512       10.5877943654
Ga           -1.6109912804       10.2963111698       15.8465324990
Ga            6.5541386764        1.8864638980        5.3068447799
Ga            6.4972613784        1.8784795947       10.5875364161
Ga            6.5073386159        1.8791621960       15.8478836933
Ga            4.9107926772        4.7328226631        5.3068447799
Ga            4.8754394187        4.6875576299       10.5875364161
Ga            4.8810691876        4.6959434729       15.8478836933
Ga            3.2346063168        7.4987040926        5.2961384824
Ga            3.2429528275        7.4938852324       10.5898609479
Ga            3.2431213888        7.4937879135       15.8583561580
Ga            1.6222722437       10.2913486259        5.2961384824
Ga            1.6222722437       10.3009863463       10.5898609479
Ga            1.6222722437       10.3011809841       15.8583561580
Ga            9.6685994793        1.8864638980        5.3068447799
Ga            9.7254767773        1.8784795947       10.5875364161
Ga            9.7153995398        1.8791621960       15.8478836933
Ga            8.1113690779        4.6831037996        5.2952767299
Ga            8.1113690779        4.6831037996       10.5866362565
Ga            8.1113690779        4.6831037996       15.8545430085
Ga            6.4680230787        7.4300248377        5.3068447799
Ga            6.4895471181        7.4832741743       10.5875364161
Ga            6.4850996494        7.4742057299       15.8478836933
Ga            4.8439751713       10.2896366562        5.3168736227
Ga            4.8562055198       10.2966978512       10.5877943654
Ga            4.8555357679       10.2963111698       15.8465324990
N             1.6222756606        0.9366198184        9.9074730443
N             1.6222756606        0.9366198184       15.2994016951
N            -0.0186480256        3.8005871391        4.6239490638
N            -0.0000879424        3.7480934235        9.9455104821
N            -0.0044925837        3.7749164797       15.1876313564
N            -1.6090573250        6.5639724576        4.6212398529
N            -1.6202306902        6.5575215121        9.9316693414
N            -1.6186063718        6.5584593128       15.2059608073
N            -3.2070145614        9.3229999723        4.6239490638
N            -3.2431954110        9.3653203337        9.9455104821
N            -3.2221682836        9.3480942743       15.1876313564
N             4.9230059590        0.9257177561        4.6239490638
N             4.8682650261        0.9358911103        9.9455104821
N             4.8936967949        0.9262941135       15.1876313564
N             3.2631993468        3.8005871391        4.6239490638
N             3.2446392636        3.7480934235        9.9455104821
N             3.2490439049        3.7749164797       15.1876313564
N             1.6222756606        6.5573383280        4.6331012951
N             1.6222756606        6.5595656910        9.9288853098
N             1.6222756606        6.5597641979       15.2116224444
N             0.0008638431        9.3657059759        4.6331012951
N             0.0027927961        9.3645922944        9.9288853098
N             0.0029647081        9.3644930409       15.2116224444
N             8.1113724947        0.9213599525        4.6212398529
N             8.1113724947        0.9342618434        9.9316693414
N             8.1113724947        0.9323862420       15.2059608073
N             6.4910636370        3.7476158673        4.6339960203
N             6.4894244820        3.7466695007        9.9300785034
N             6.4902745283        3.7471602752       15.2067944152
N             4.8536086462        6.5639724576        4.6212398529
N             4.8647820114        6.5575215121        9.9316693414
N             4.8631576930        6.5584593128       15.2059608073
N             3.2436874781        9.3657059759        4.6331012951
N             3.2417585251        9.3645922944        9.9288853098
N             3.2415866131        9.3644930409       15.2116224444
N            11.2997390305        0.9257177561        4.6239490638
N            11.3544799633        0.9358911103        9.9455104821
N            11.3290481946        0.9262941135       15.1876313564
N             9.7316813525        3.7476158673        4.6339960203
N             9.7333205075        3.7466695007        9.9300785034
N             9.7324704612        3.7471602752       15.2067944152
N             8.1113724947        6.5540731330        4.6339960203
N             8.1113724947        6.5559658661        9.9300785034
N             8.1113724947        6.5549843172       15.2067944152
N             6.4515658826        9.3229999723        4.6239490638
N             6.4877467322        9.3653203337        9.9455104821
N             6.4667196048        9.3480942743       15.1876313564
N            -0.0438115707        1.8985359343        1.9479839321
N            -0.0253050051        1.8878511636        7.3125934930
N             0.0038407129        1.8710238755       12.5825127300
N            -1.6270175415        4.6841298771        1.9798149885
N            -1.6248691787        4.6857929190        7.2865692423
N            -1.6267683358        4.6855323116       12.5674076488
N            -3.2460324568        7.4883459687        1.9798149885
N            -3.2435180389        7.4893749844        7.2865692423
N            -3.2446933100        7.4878605699       12.5674076488
N            -4.8668245904       10.2522395301        1.9479839321
N            -4.8668245904       10.2736090714        7.3125934930
N            -4.8668245904       10.3072636477       12.5825127300
N             3.2883560582        1.8985359343        1.9479839321
N             3.2698494926        1.8878511636        7.3125934930
N             3.2407037746        1.8710238755       12.5825127300
N             1.6222722437        4.6829802231        1.9838821035
N             1.6222722437        4.6862056124        7.2930633704
N             1.6222722437        4.6901930411       12.5662376674
N             0.0001059070        7.4930274325        1.9880588174
N            -0.0011126997        7.4923238696        7.2813036625
N             0.0002352152        7.4931020886       12.5732276472
N            -1.6223831937       10.3028882939        1.9838821035
N            -1.6195899247       10.3012755993        7.2930633704
N            -1.6161367101       10.2992818850       12.5662376674
N             6.4923541626        1.8768355530        1.9798149885
N             6.4927202177        1.8741434954        7.2865692423
N             6.4934441036        1.8759185173       12.5674076488
N             4.8715620290        4.6841298771        1.9798149885
N             4.8694136662        4.6857929190        7.2865692423
N             4.8713128233        4.6855323116       12.5674076488
N             3.2444385805        7.4930274325        1.9880588174
N             3.2456571872        7.4923238696        7.2813036625
N             3.2443092723        7.4931020886       12.5732276472
N             1.6222722437       10.3027019460        1.9880588174
N             1.6222722437       10.3041090718        7.2813036625
N             1.6222722437       10.3025526338       12.5732276472
N             9.7303839931        1.8768355530        1.9798149885
N             9.7300179380        1.8741434954        7.2865692423
N             9.7292940520        1.8759185173       12.5674076488
N             8.1113690779        4.6831037996        1.9875312478
N             8.1113690779        4.6831037996        7.2809121849
N             8.1113690779        4.6831037996       12.5704826482
N             6.4905769442        7.4883459687        1.9798149885
N             6.4880625263        7.4893749844        7.2865692423
N             6.4892377974        7.4878605699       12.5674076488
N             4.8669276812       10.3028882939        1.9838821035
N             4.8641344122       10.3012755993        7.2930633704
N             4.8606811976       10.2992818850       12.5662376674
Ga            1.6222756606        0.9366198184        4.4213893163
End final coordinates



     Writing all to output data dir ./GaN.save/
 
     init_run     :     25.91s CPU     28.19s WALL (       1 calls)
     electrons    :   1008.23s CPU   1022.09s WALL (       1 calls)
     forces       :     10.21s CPU     10.39s WALL (       1 calls)
     stress       :    173.96s CPU    175.59s WALL (       1 calls)

     Called by init_run:
     wfcinit      :     16.05s CPU     17.98s WALL (       1 calls)
     wfcinit:atom :      0.08s CPU      0.08s WALL (       1 calls)
     wfcinit:wfcr :     15.51s CPU     17.28s WALL (       1 calls)
     potinit      :      1.02s CPU      1.20s WALL (       1 calls)
     hinit0       :      0.73s CPU      0.76s WALL (       1 calls)

     Called by electrons:
     c_bands      :    999.13s CPU   1012.37s WALL (       2 calls)
     sum_band     :      6.90s CPU      7.06s WALL (       2 calls)
     v_of_rho     :      1.19s CPU      1.29s WALL (       2 calls)
     v_h          :      0.01s CPU      0.01s WALL (       2 calls)
     v_xc         :      2.25s CPU      2.36s WALL (       4 calls)
     newd         :      0.23s CPU      0.24s WALL (       2 calls)
     PAW_pot      :      0.60s CPU      0.61s WALL (       2 calls)
     mix_rho      :      0.00s CPU      0.00s WALL (       2 calls)
     vdW_kernel   :      0.15s CPU      0.16s WALL (       1 calls)

     Called by c_bands:
     init_us_2    :      0.33s CPU      0.43s WALL (       5 calls)
     init_us_2:cp :      0.33s CPU      0.43s WALL (       5 calls)
     cegterg      :    979.54s CPU    991.28s WALL (       4 calls)

     Called by sum_band:
     sum_band:wei :      0.01s CPU      0.01s WALL (       2 calls)
     sum_band:loo :      6.47s CPU      6.53s WALL (       2 calls)
     sum_band:buf :      0.00s CPU      0.00s WALL (       2 calls)
     sum_band:ini :      0.22s CPU      0.22s WALL (       2 calls)
     sum_band:cal :      3.86s CPU      3.89s WALL (       2 calls)
     sum_band:bec :      0.05s CPU      0.05s WALL (       2 calls)
     addusdens    :      0.23s CPU      0.26s WALL (       2 calls)
     addusd:skk   :      0.02s CPU      0.03s WALL (       4 calls)
     addusd:dgemm :      0.09s CPU      0.10s WALL (       4 calls)
     addusd:qvan2 :      0.03s CPU      0.03s WALL (       4 calls)

     Called by *egterg:
     cdiaghg      :    693.61s CPU    699.26s WALL (      71 calls)
     cegterg:over :     62.49s CPU     64.35s WALL (      70 calls)
     cegterg:upda :     38.04s CPU     38.63s WALL (      70 calls)
     cegterg:last :     32.85s CPU     33.15s WALL (       7 calls)
     h_psi        :    117.51s CPU    119.51s WALL (      75 calls)
     s_psi        :     36.22s CPU     37.03s WALL (      75 calls)
     g_psi        :      0.18s CPU      0.18s WALL (      70 calls)

     Called by h_psi:
     h_psi:calbec :     38.74s CPU     39.05s WALL (      75 calls)
     vloc_psi     :     41.81s CPU     42.26s WALL (      75 calls)
     add_vuspsi   :     36.26s CPU     37.15s WALL (      75 calls)

     General routines
     calbec       :     52.26s CPU     52.67s WALL (      82 calls)
     fft          :      1.14s CPU      1.17s WALL (     294 calls)
     ffts         :      0.03s CPU      0.03s WALL (       4 calls)
     fftw         :     41.40s CPU     41.83s WALL (   40782 calls)
     interpolate  :      0.01s CPU      0.01s WALL (       2 calls)
 
     Parallel routines

     PAW routines
     PAW_pot      :      0.60s CPU      0.61s WALL (       2 calls)
     PAW_symme    :      0.01s CPU      0.01s WALL (       3 calls)
 
     PWSCF        :  20m20.79s CPU  20m45.20s WALL

 
   This run was terminated on:  20:17:40  17Feb2024            

=------------------------------------------------------------------------------=
   JOB DONE.
=------------------------------------------------------------------------------=
