
     Program PWSCF v.7.1 starts on 12Feb2024 at  8:13:27 

     This program is part of the open-source Quantum ESPRESSO suite
     for quantum simulation of materials; please cite
         "P. Giannozzi et al., J. Phys.:Condens. Matter 21 395502 (2009);
         "P. Giannozzi et al., J. Phys.:Condens. Matter 29 465901 (2017);
         "P. Giannozzi et al., J. Chem. Phys. 152 154105 (2020);
          URL http://www.quantum-espresso.org", 
     in publications or presentations arising from this work. More details at
     http://www.quantum-espresso.org/quote

     Parallel version (MPI & OpenMP), running on     128 processor cores
     Number of MPI processes:               128
     Threads/MPI process:                     1

     MPI processes distributed on     1 nodes
     934283 MiB available memory on the printing compute node when the environment starts
 
     Reading input from espresso.pwi
Warning: card &CELL ignored
Warning: card    CELL_DYNAMICS    = 'BFGS' ignored
Warning: card / ignored

     Current dimensions of program PWSCF are:
     Max number of different atomic species (ntypx) = 10
     Max number of k-points (npk) =  40000
     Max angular momentum in pseudopotentials (lmaxx) =  4
     file Pb.pbe-dn-kjpaw_psl.1.0.0.UPF: wavefunction(s)  6S 6P 5D renormalized
     file I.pbe-dn-kjpaw_psl.1.0.0.UPF: wavefunction(s)  5S 5P renormalized

     **************************************************************************
     Initializing libbeef V0.1.2 with the BEEF-vdW functional.
     Citation: Wellendorff et al., PRB 85, 235149 (2012).
     **************************************************************************


     IMPORTANT: XC functional enforced from input :
     Exchange-correlation= BEEF-VDW
                           (   1   4  43  14   2   0   0)
     Any further DFT definition will be discarded
     Please, verify this is what you really want

 
     K-points division:     npool     =       2
     R & G space division:  proc/nbgrp/npool/nimage =      64
     Subspace diagonalization in iterative solution of the eigenvalue problem:
     a serial algorithm will be used

 
     Parallelization info
     --------------------
     sticks:   dense  smooth     PW     G-vecs:    dense   smooth      PW
     Min         268     215     55                29758    21295    2791
     Max         269     216     56                29767    21298    2796
     Sum       17215   13777   3559              1904969  1362953  178821
 
     Using Slab Decomposition
 


     bravais-lattice index     =            4
     lattice parameter (alat)  =      26.7090  a.u.
     unit-cell volume          =   17226.5091 (a.u.)^3
     number of atoms/cell      =           54
     number of atomic types    =            2
     number of electrons       =       866.00
     number of Kohn-Sham states=          520
     kinetic-energy cutoff     =      70.0000  Ry
     charge density cutoff     =     350.0000  Ry
     scf convergence threshold =      1.0E-07
     mixing beta               =       0.7000
     number of iterations used =            8  plain     mixing
     energy convergence thresh.=      1.0E-04
     force convergence thresh. =      1.0E-03
     Exchange-correlation= BEEF-VDW
                           (   1   4  43  14   2   0   0)
     nstep                     =           50


     celldm(1)=  26.709025  celldm(2)=   0.000000  celldm(3)=   1.043981
     celldm(4)=   0.000000  celldm(5)=   0.000000  celldm(6)=   0.000000

     crystal axes: (cart. coord. in units of alat)
               a(1) = (   1.000000   0.000000   0.000000 )  
               a(2) = (  -0.500000   0.866025   0.000000 )  
               a(3) = (   0.000000   0.000000   1.043981 )  

     reciprocal axes: (cart. coord. in units 2 pi/alat)
               b(1) = (  1.000000  0.577350 -0.000000 )  
               b(2) = (  0.000000  1.154701  0.000000 )  
               b(3) = (  0.000000 -0.000000  0.957872 )  


     PseudoPot. # 1 for Pb read from file:
     //group///packages/espresso/pseudo/psl_1.0.0/pslibrary.1.0.0/pbe/PSEUDOPOTENTIALS/Pb.pbe-dn-kjpaw_psl.1.0.0.UPF
     MD5 check sum: 39ab5b8a6bbd56b7735ad9f188aac93a
     Pseudo is Projector augmented-wave + core cor, Zval = 14.0
     Generated using 'atomic' code by A. Dal Corso  v.7.1
     Shape of augmentation charge: PSQ
     Using radial grid of 1281 points,  6 beta functions with: 
                l(1) =   0
                l(2) =   0
                l(3) =   1
                l(4) =   1
                l(5) =   2
                l(6) =   2
     Q(r) pseudized with 0 coefficients 


     PseudoPot. # 2 for I  read from file:
     //group///packages/espresso/pseudo/psl_1.0.0/pslibrary.1.0.0/pbe/PSEUDOPOTENTIALS/I.pbe-dn-kjpaw_psl.1.0.0.UPF
     MD5 check sum: bfa8781bc1224d19af3f3980e3fab11e
     Pseudo is Projector augmented-wave + core cor, Zval = 17.0
     Generated using 'atomic' code by A. Dal Corso  v.7.1
     Shape of augmentation charge: PSQ
     Using radial grid of 1247 points,  6 beta functions with: 
                l(1) =   0
                l(2) =   0
                l(3) =   1
                l(4) =   1
                l(5) =   2
                l(6) =   2
     Q(r) pseudized with 0 coefficients 


     atomic species   valence    mass     pseudopotential
        Pb            14.00   207.20000     Pb( 1.00)
        I             17.00   126.90447     I ( 1.00)

     No symmetry found


                                    s                        frac. trans.

      isym =  1     identity                                     

 cryst.   s( 1) = (     1          0          0      )
                  (     0          1          0      )
                  (     0          0          1      )

 cart.    s( 1) = (  1.0000000  0.0000000  0.0000000 )
                  (  0.0000000  1.0000000  0.0000000 )
                  (  0.0000000  0.0000000  1.0000000 )


     point group C_1 (1)    
     there are  1 classes
     the character table:

       E    
A      1.00

     the symmetry operations in each class and the name of the first element:

     E        1
          identity                                               

   Cartesian axes

     site n.     atom                  positions (alat units)
         1           Pb  tau(   1) = (   0.1666712   0.2886557   0.5219862  )
         2           Pb  tau(   2) = (   0.0000102   0.5773235   1.0439712  )
         3           Pb  tau(   3) = (   0.0000034   0.5773295   0.5219807  )
         4           Pb  tau(   4) = (  -0.1666576   0.8659973   1.0439657  )
         5           Pb  tau(   5) = (  -0.1666644   0.8660033   0.5219752  )
         6           Pb  tau(   6) = (   0.5000113   0.2886484   1.0439810  )
         7           Pb  tau(   7) = (   0.5000045   0.2886544   0.5219905  )
         8           Pb  tau(   8) = (   0.3333436   0.5773222   1.0439755  )
         9           Pb  tau(   9) = (   0.3333367   0.5773282   0.5219850  )
        10           Pb  tau(  10) = (   0.1666758   0.8659960   1.0439700  )
        11           Pb  tau(  11) = (   0.1666690   0.8660020   0.5219795  )
        12           Pb  tau(  12) = (   0.8333447   0.2886471   1.0439853  )
        13           Pb  tau(  13) = (   0.8333379   0.2886531   0.5219949  )
        14           Pb  tau(  14) = (   0.6666769   0.5773209   1.0439798  )
        15           Pb  tau(  15) = (   0.6666701   0.5773269   0.5219894  )
        16           Pb  tau(  16) = (   0.5000091   0.8659947   1.0439743  )
        17           Pb  tau(  17) = (   0.5000023   0.8660007   0.5219839  )
        18           I   tau(  18) = (   0.1666738   0.0962066   0.3879099  )
        19           I   tau(  19) = (   0.1666806   0.0962006   0.9099004  )
        20           I   tau(  20) = (   0.0000060   0.3848804   0.3879044  )
        21           I   tau(  21) = (   0.0000129   0.3848744   0.9098949  )
        22           I   tau(  22) = (  -0.1666617   0.6735542   0.3878990  )
        23           I   tau(  23) = (  -0.1666549   0.6735482   0.9098894  )
        24           I   tau(  24) = (   0.5000071   0.0962053   0.3879143  )
        25           I   tau(  25) = (   0.5000140   0.0961993   0.9099047  )
        26           I   tau(  26) = (   0.3333394   0.3848792   0.3879088  )
        27           I   tau(  27) = (   0.3333462   0.3848731   0.9098993  )
        28           I   tau(  28) = (   0.1666716   0.6735530   0.3879033  )
        29           I   tau(  29) = (   0.1666784   0.6735469   0.9098938  )
        30           I   tau(  30) = (   0.8333405   0.0962041   0.3879186  )
        31           I   tau(  31) = (   0.8333473   0.0961980   0.9099091  )
        32           I   tau(  32) = (   0.6666727   0.3848779   0.3879131  )
        33           I   tau(  33) = (   0.6666795   0.3848718   0.9099036  )
        34           I   tau(  34) = (   0.5000049   0.6735517   0.3879076  )
        35           I   tau(  35) = (   0.5000117   0.6735457   0.9098981  )
        36           I   tau(  36) = (  -0.0000023   0.1924396   0.1340740  )
        37           I   tau(  37) = (   0.0000045   0.1924336   0.6560644  )
        38           I   tau(  38) = (  -0.1666701   0.4811134   0.1340685  )
        39           I   tau(  39) = (  -0.1666632   0.4811074   0.6560589  )
        40           I   tau(  40) = (  -0.3333378   0.7697873   0.1340630  )
        41           I   tau(  41) = (  -0.3333310   0.7697812   0.6560534  )
        42           I   tau(  42) = (   0.3333311   0.1924384   0.1340783  )
        43           I   tau(  43) = (   0.3333379   0.1924323   0.6560688  )
        44           I   tau(  44) = (   0.1666633   0.4811122   0.1340728  )
        45           I   tau(  45) = (   0.1666701   0.4811061   0.6560633  )
        46           I   tau(  46) = (  -0.0000045   0.7697860   0.1340673  )
        47           I   tau(  47) = (   0.0000023   0.7697799   0.6560578  )
        48           I   tau(  48) = (   0.6666644   0.1924371   0.1340827  )
        49           I   tau(  49) = (   0.6666712   0.1924310   0.6560731  )
        50           I   tau(  50) = (   0.4999966   0.4811109   0.1340772  )
        51           I   tau(  51) = (   0.5000034   0.4811049   0.6560676  )
        52           I   tau(  52) = (   0.3333288   0.7697847   0.1340717  )
        53           I   tau(  53) = (   0.3333356   0.7697787   0.6560621  )
        54           I   tau(  54) = (   0.1666780   0.2886497   1.0439767  )

   Crystallographic axes

     site n.     atom                  positions (cryst. coord.)
         1           Pb  tau(   1) = (  0.3333266  0.3333109  0.4999959  )
         2           Pb  tau(   2) = (  0.3333281  0.6666357  0.9999906  )
         3           Pb  tau(   3) = (  0.3333248  0.6666427  0.4999906  )
         4           Pb  tau(   4) = (  0.3333262  0.9999675  0.9999854  )
         5           Pb  tau(   5) = (  0.3333229  0.9999745  0.4999854  )
         6           Pb  tau(   6) = (  0.6666626  0.3333025  1.0000001  )
         7           Pb  tau(   7) = (  0.6666592  0.3333094  0.5000001  )
         8           Pb  tau(   8) = (  0.6666607  0.6666343  0.9999948  )
         9           Pb  tau(   9) = (  0.6666573  0.6666412  0.4999948  )
        10           Pb  tau(  10) = (  0.6666588  0.9999661  0.9999895  )
        11           Pb  tau(  11) = (  0.6666555  0.9999730  0.4999895  )
        12           Pb  tau(  12) = (  0.9999951  0.3333010  1.0000042  )
        13           Pb  tau(  13) = (  0.9999918  0.3333079  0.5000042  )
        14           Pb  tau(  14) = (  0.9999933  0.6666328  0.9999990  )
        15           Pb  tau(  15) = (  0.9999899  0.6666397  0.4999990  )
        16           Pb  tau(  16) = (  0.9999914  0.9999646  0.9999937  )
        17           Pb  tau(  17) = (  0.9999881  0.9999715  0.4999937  )
        18           I   tau(  18) = (  0.2222187  0.1110899  0.3715680  )
        19           I   tau(  19) = (  0.2222221  0.1110829  0.8715680  )
        20           I   tau(  20) = (  0.2222169  0.4444217  0.3715628  )
        21           I   tau(  21) = (  0.2222202  0.4444147  0.8715628  )
        22           I   tau(  22) = (  0.2222150  0.7777534  0.3715575  )
        23           I   tau(  23) = (  0.2222183  0.7777465  0.8715575  )
        24           I   tau(  24) = (  0.5555513  0.1110884  0.3715722  )
        25           I   tau(  25) = (  0.5555547  0.1110814  0.8715722  )
        26           I   tau(  26) = (  0.5555495  0.4444202  0.3715669  )
        27           I   tau(  27) = (  0.5555528  0.4444132  0.8715669  )
        28           I   tau(  28) = (  0.5555476  0.7777520  0.3715617  )
        29           I   tau(  29) = (  0.5555509  0.7777450  0.8715617  )
        30           I   tau(  30) = (  0.8888839  0.1110869  0.3715764  )
        31           I   tau(  31) = (  0.8888873  0.1110799  0.8715764  )
        32           I   tau(  32) = (  0.8888820  0.4444187  0.3715711  )
        33           I   tau(  33) = (  0.8888854  0.4444117  0.8715711  )
        34           I   tau(  34) = (  0.8888802  0.7777505  0.3715658  )
        35           I   tau(  35) = (  0.8888835  0.7777435  0.8715658  )
        36           I   tau(  36) = (  0.1111028  0.2222102  0.1284257  )
        37           I   tau(  37) = (  0.1111061  0.2222032  0.6284257  )
        38           I   tau(  38) = (  0.1111009  0.5555420  0.1284204  )
        39           I   tau(  39) = (  0.1111043  0.5555350  0.6284204  )
        40           I   tau(  40) = (  0.1110991  0.8888738  0.1284152  )
        41           I   tau(  41) = (  0.1111024  0.8888668  0.6284152  )
        42           I   tau(  42) = (  0.4444354  0.2222087  0.1284299  )
        43           I   tau(  43) = (  0.4444387  0.2222017  0.6284299  )
        44           I   tau(  44) = (  0.4444335  0.5555405  0.1284246  )
        45           I   tau(  45) = (  0.4444369  0.5555335  0.6284246  )
        46           I   tau(  46) = (  0.4444316  0.8888723  0.1284193  )
        47           I   tau(  47) = (  0.4444350  0.8888653  0.6284193  )
        48           I   tau(  48) = (  0.7777680  0.2222072  0.1284340  )
        49           I   tau(  49) = (  0.7777713  0.2222002  0.6284340  )
        50           I   tau(  50) = (  0.7777661  0.5555390  0.1284287  )
        51           I   tau(  51) = (  0.7777694  0.5555320  0.6284287  )
        52           I   tau(  52) = (  0.7777642  0.8888708  0.1284235  )
        53           I   tau(  53) = (  0.7777676  0.8888638  0.6284235  )
        54           I   tau(  54) = (  0.3333300  0.3333039  0.9999959  )

     number of k points=     4  Gaussian smearing, width (Ry)=  0.0100
                       cart. coord. in units 2pi/alat
        k(    1) = (   0.0000000   0.0000000   0.0000000), wk =   0.5000000
        k(    2) = (   0.0000000  -0.5773503   0.0000000), wk =   0.5000000
        k(    3) = (   0.5000000  -0.2886751   0.0000000), wk =   0.5000000
        k(    4) = (  -0.5000000  -0.2886751   0.0000000), wk =   0.5000000

                       cryst. coord.
        k(    1) = (   0.0000000   0.0000000   0.0000000), wk =   0.5000000
        k(    2) = (   0.0000000  -0.5000000   0.0000000), wk =   0.5000000
        k(    3) = (   0.5000000  -0.5000000   0.0000000), wk =   0.5000000
        k(    4) = (  -0.5000000   0.0000000   0.0000000), wk =   0.5000000

     Dense  grid:  1904969 G-vectors     FFT dimensions: ( 160, 160, 180)

     Smooth grid:  1362953 G-vectors     FFT dimensions: ( 144, 144, 150)

     Dynamical RAM for                 wfc:      21.12 MB

     Dynamical RAM for     wfc (w. buffer):      63.37 MB

     Dynamical RAM for           str. fact:       0.91 MB

     Dynamical RAM for           local pot:       0.00 MB

     Dynamical RAM for          nlocal pot:      39.48 MB

     Dynamical RAM for                qrad:       3.00 MB

     Dynamical RAM for          rho,v,vnew:       3.12 MB

     Dynamical RAM for               rhoin:       1.04 MB

     Dynamical RAM for            rho*nmix:       7.27 MB

     Dynamical RAM for           G-vectors:       1.87 MB

     Dynamical RAM for          h,s,v(r/c):     198.05 MB

     Dynamical RAM for          <psi|beta>:       7.71 MB

     Dynamical RAM for                 psi:      84.49 MB

     Dynamical RAM for                hpsi:      84.49 MB

     Dynamical RAM for                spsi:      84.49 MB

     Dynamical RAM for      wfcinit/wfcrot:      48.44 MB

     Dynamical RAM for           addusdens:      50.87 MB

     Dynamical RAM for          addusforce:      67.37 MB

     Dynamical RAM for         addusstress:      45.76 MB

     Estimated static dynamical RAM per process >     117.08 MB

     Estimated max dynamical RAM per process >     583.57 MB

     Estimated total dynamical RAM >      72.49 GB

     Atomic positions and unit cell read from directory:
     ./PbI2.save/
     Atomic positions from file used, from input discarded
 

     Check: negative core charge=   -0.000002

     The initial density is read from file :
     ./PbI2.save/charge-density


     starting charge     867.0000, renormalised to     866.0000


     %%%%%%%%%%%%%%%%%%%%%%%%%%%%%%%%%%%%%%%%%%%%%%%%%%%%%%%%%%%%%%%%%%%%%%%%
     %                                                                      %
     % You are using vdW-DF, which was implemented by the Thonhauser group. %
     % Please cite the following two papers that made this development      %
     % possible and the two reviews that describe the various versions:     %
     %                                                                      %
     %   T. Thonhauser et al., PRL 115, 136402 (2015).                      %
     %   T. Thonhauser et al., PRB 76, 125112 (2007).                       %
     %   K. Berland et al., Rep. Prog. Phys. 78, 066501 (2015).             %
     %   D.C. Langreth et al., J. Phys.: Condens. Matter 21, 084203 (2009). %
     %                                                                      %
     % If you are calculating stress with vdW-DF, please also cite:         %
     %                                                                      %
     %   R. Sabatini et al., J. Phys.: Condens. Matter 24, 424209 (2012).   %
     %                                                                      %
     %%%%%%%%%%%%%%%%%%%%%%%%%%%%%%%%%%%%%%%%%%%%%%%%%%%%%%%%%%%%%%%%%%%%%%%%

     %%%%%%%%%%%%%%%%%%%%%%%%%%%%%%%%%%%%%%%%%%%%%%%%%%%%%%%%%%%%%%%%%%%%%%%%
     %                                                                      %
     %  vdW-DF NEWS:                                                        %
     %                                                                      %
     %  * vdW-DF3 is now available. DOI: 10.1021/acs.jctc.0c00471           %
     %    use with input_dft = 'vdW-DF3-opt1' or 'vdW-DF3-opt2'             %
     %                                                                      %
     %  * Unscreened and range-separated vdW-DF hybrid functionals          %
     %    DOI: 10.1063/1.4986522 and 10.1088/1361-648X/ac2ad2               %
     %    use with input_dft = 'vdW-DF-cx0' (etc) and 'vdW-DF-ahcx'         %
     %                                                                      %
     %%%%%%%%%%%%%%%%%%%%%%%%%%%%%%%%%%%%%%%%%%%%%%%%%%%%%%%%%%%%%%%%%%%%%%%%


     Carrying out vdW-DF run using the following parameters:
     Nqs    =  20  Npoints =  1024  r_max =  100.000
     q_mesh =  0.00001000  0.04494208  0.09755937  0.15916263
               0.23128650  0.31572767  0.41458969  0.53033537
               0.66584808  0.82450364  1.01025438  1.22772762
               1.48234092  1.78043706  2.12944203  2.53805004
               3.01644009  3.57652955  4.23227104  5.00000000


     -----------------------------------------------
     Non-local corr. energy    =      26.17357717 Ry
     -----------------------------------------------

     Wavefunctions not found or not readable, recomputing them from scratch
     Starting wfcs are  486 randomized atomic wfcs +   34 random wfcs
     Checking if some PAW data can be deallocated... 
       PAW data deallocated on   77 nodes for type:  1
       PAW data deallocated on   51 nodes for type:  2

     total cpu time spent up to now is       12.0 secs

     Self-consistent Calculation

     iteration #  1     ecut=    70.00 Ry     beta= 0.70
     Davidson diagonalization with overlap

---- Real-time Memory Report at c_bands before calling an iterative solver
           365 MiB given to the printing process from OS
             0 MiB allocation reported by mallinfo(arena+hblkhd)
        914690 MiB available memory on the node where the printing process lives
------------------
     ethr =  1.00E-05,  avg # of iterations = 17.8


     -----------------------------------------------
     Non-local corr. energy    =      26.22423827 Ry
     -----------------------------------------------


     total cpu time spent up to now is      200.3 secs

     total energy              =  -36092.61933532 Ry
     estimated scf accuracy    <       0.08951339 Ry

     iteration #  2     ecut=    70.00 Ry     beta= 0.70
     Davidson diagonalization with overlap

---- Real-time Memory Report at c_bands before calling an iterative solver
           715 MiB given to the printing process from OS
             0 MiB allocation reported by mallinfo(arena+hblkhd)
        920388 MiB available memory on the node where the printing process lives
------------------
     ethr =  1.03E-05,  avg # of iterations = 12.8


     -----------------------------------------------
     Non-local corr. energy    =      26.22266490 Ry
     -----------------------------------------------


     total cpu time spent up to now is      301.0 secs

     total energy              =  -36092.48083315 Ry
     estimated scf accuracy    <       2.50676473 Ry

     iteration #  3     ecut=    70.00 Ry     beta= 0.70
     Davidson diagonalization with overlap

---- Real-time Memory Report at c_bands before calling an iterative solver
           715 MiB given to the printing process from OS
             0 MiB allocation reported by mallinfo(arena+hblkhd)
        918311 MiB available memory on the node where the printing process lives
------------------
     ethr =  1.03E-05,  avg # of iterations = 16.0


     -----------------------------------------------
     Non-local corr. energy    =      26.21360399 Ry
     -----------------------------------------------


     total cpu time spent up to now is      419.6 secs

     total energy              =  -36092.66988235 Ry
     estimated scf accuracy    <       0.03559519 Ry

     iteration #  4     ecut=    70.00 Ry     beta= 0.70
     Davidson diagonalization with overlap

---- Real-time Memory Report at c_bands before calling an iterative solver
           715 MiB given to the printing process from OS
             0 MiB allocation reported by mallinfo(arena+hblkhd)
        919178 MiB available memory on the node where the printing process lives
------------------
     ethr =  4.11E-06,  avg # of iterations = 10.0


     -----------------------------------------------
     Non-local corr. energy    =      26.20739927 Ry
     -----------------------------------------------


     total cpu time spent up to now is      485.7 secs

     total energy              =  -36092.67238088 Ry
     estimated scf accuracy    <       0.02270774 Ry

     iteration #  5     ecut=    70.00 Ry     beta= 0.70
     Davidson diagonalization with overlap

---- Real-time Memory Report at c_bands before calling an iterative solver
           715 MiB given to the printing process from OS
             0 MiB allocation reported by mallinfo(arena+hblkhd)
        919092 MiB available memory on the node where the printing process lives
------------------
     ethr =  2.62E-06,  avg # of iterations =  5.0


     -----------------------------------------------
     Non-local corr. energy    =      26.20471361 Ry
     -----------------------------------------------


     total cpu time spent up to now is      526.6 secs

     total energy              =  -36092.67313672 Ry
     estimated scf accuracy    <       0.00769709 Ry

     iteration #  6     ecut=    70.00 Ry     beta= 0.70
     Davidson diagonalization with overlap

---- Real-time Memory Report at c_bands before calling an iterative solver
           715 MiB given to the printing process from OS
             0 MiB allocation reported by mallinfo(arena+hblkhd)
        918085 MiB available memory on the node where the printing process lives
------------------
     ethr =  8.89E-07,  avg # of iterations =  9.8


     -----------------------------------------------
     Non-local corr. energy    =      26.20154800 Ry
     -----------------------------------------------


     total cpu time spent up to now is      581.6 secs

     total energy              =  -36092.67269389 Ry
     estimated scf accuracy    <       0.00481679 Ry

     iteration #  7     ecut=    70.00 Ry     beta= 0.70
     Davidson diagonalization with overlap

---- Real-time Memory Report at c_bands before calling an iterative solver
           715 MiB given to the printing process from OS
             0 MiB allocation reported by mallinfo(arena+hblkhd)
        918920 MiB available memory on the node where the printing process lives
------------------
     ethr =  5.56E-07,  avg # of iterations =  9.5


     -----------------------------------------------
     Non-local corr. energy    =      26.19816385 Ry
     -----------------------------------------------


     total cpu time spent up to now is      638.6 secs

     total energy              =  -36092.67235643 Ry
     estimated scf accuracy    <       0.00340202 Ry

     iteration #  8     ecut=    70.00 Ry     beta= 0.70
     Davidson diagonalization with overlap

---- Real-time Memory Report at c_bands before calling an iterative solver
           715 MiB given to the printing process from OS
             0 MiB allocation reported by mallinfo(arena+hblkhd)
        917748 MiB available memory on the node where the printing process lives
------------------
     ethr =  3.93E-07,  avg # of iterations =  9.8


     -----------------------------------------------
     Non-local corr. energy    =      26.19537507 Ry
     -----------------------------------------------


     total cpu time spent up to now is      696.5 secs

     total energy              =  -36092.67249692 Ry
     estimated scf accuracy    <       0.00046171 Ry

     iteration #  9     ecut=    70.00 Ry     beta= 0.70
     Davidson diagonalization with overlap

---- Real-time Memory Report at c_bands before calling an iterative solver
           715 MiB given to the printing process from OS
             0 MiB allocation reported by mallinfo(arena+hblkhd)
        918762 MiB available memory on the node where the printing process lives
------------------
     ethr =  5.33E-08,  avg # of iterations = 10.5


     -----------------------------------------------
     Non-local corr. energy    =      26.19401726 Ry
     -----------------------------------------------


     total cpu time spent up to now is      789.7 secs

     total energy              =  -36092.67263403 Ry
     estimated scf accuracy    <       0.00035741 Ry

     iteration # 10     ecut=    70.00 Ry     beta= 0.70
     Davidson diagonalization with overlap

---- Real-time Memory Report at c_bands before calling an iterative solver
           715 MiB given to the printing process from OS
             0 MiB allocation reported by mallinfo(arena+hblkhd)
        918476 MiB available memory on the node where the printing process lives
------------------
     ethr =  4.13E-08,  avg # of iterations = 11.5


     -----------------------------------------------
     Non-local corr. energy    =      26.19230189 Ry
     -----------------------------------------------


     total cpu time spent up to now is      853.1 secs

     total energy              =  -36092.67267707 Ry
     estimated scf accuracy    <       0.00009526 Ry

     iteration # 11     ecut=    70.00 Ry     beta= 0.70
     Davidson diagonalization with overlap

---- Real-time Memory Report at c_bands before calling an iterative solver
           715 MiB given to the printing process from OS
             0 MiB allocation reported by mallinfo(arena+hblkhd)
        918466 MiB available memory on the node where the printing process lives
------------------
     ethr =  1.10E-08,  avg # of iterations =  9.8


     -----------------------------------------------
     Non-local corr. energy    =      26.19337455 Ry
     -----------------------------------------------


     total cpu time spent up to now is      911.5 secs

     total energy              =  -36092.67262582 Ry
     estimated scf accuracy    <       0.00020644 Ry

     iteration # 12     ecut=    70.00 Ry     beta= 0.70
     Davidson diagonalization with overlap

---- Real-time Memory Report at c_bands before calling an iterative solver
           715 MiB given to the printing process from OS
             0 MiB allocation reported by mallinfo(arena+hblkhd)
        918467 MiB available memory on the node where the printing process lives
------------------
     ethr =  1.10E-08,  avg # of iterations = 13.0


     -----------------------------------------------
     Non-local corr. energy    =      26.19284597 Ry
     -----------------------------------------------


     total cpu time spent up to now is      999.3 secs

     total energy              =  -36092.67265703 Ry
     estimated scf accuracy    <       0.00016839 Ry

     iteration # 13     ecut=    70.00 Ry     beta= 0.70
     Davidson diagonalization with overlap

---- Real-time Memory Report at c_bands before calling an iterative solver
           715 MiB given to the printing process from OS
             0 MiB allocation reported by mallinfo(arena+hblkhd)
        918453 MiB available memory on the node where the printing process lives
------------------
     ethr =  1.10E-08,  avg # of iterations =  9.8


     -----------------------------------------------
     Non-local corr. energy    =      26.19268754 Ry
     -----------------------------------------------


     total cpu time spent up to now is     1057.7 secs

     total energy              =  -36092.67266336 Ry
     estimated scf accuracy    <       0.00002327 Ry

     iteration # 14     ecut=    70.00 Ry     beta= 0.70
     Davidson diagonalization with overlap

---- Real-time Memory Report at c_bands before calling an iterative solver
           715 MiB given to the printing process from OS
             0 MiB allocation reported by mallinfo(arena+hblkhd)
        918457 MiB available memory on the node where the printing process lives
------------------
     ethr =  2.69E-09,  avg # of iterations = 12.0


     -----------------------------------------------
     Non-local corr. energy    =      26.19242241 Ry
     -----------------------------------------------


     total cpu time spent up to now is     1129.1 secs

     total energy              =  -36092.67266530 Ry
     estimated scf accuracy    <       0.00000871 Ry

     iteration # 15     ecut=    70.00 Ry     beta= 0.70
     Davidson diagonalization with overlap

---- Real-time Memory Report at c_bands before calling an iterative solver
           715 MiB given to the printing process from OS
             0 MiB allocation reported by mallinfo(arena+hblkhd)
        918456 MiB available memory on the node where the printing process lives
------------------
     ethr =  1.01E-09,  avg # of iterations =  9.3


     -----------------------------------------------
     Non-local corr. energy    =      26.19238458 Ry
     -----------------------------------------------


     total cpu time spent up to now is     1202.3 secs

     total energy              =  -36092.67266682 Ry
     estimated scf accuracy    <       0.00000376 Ry

     iteration # 16     ecut=    70.00 Ry     beta= 0.70
     Davidson diagonalization with overlap

---- Real-time Memory Report at c_bands before calling an iterative solver
           715 MiB given to the printing process from OS
             0 MiB allocation reported by mallinfo(arena+hblkhd)
        918452 MiB available memory on the node where the printing process lives
------------------
     ethr =  4.34E-10,  avg # of iterations = 12.5


     -----------------------------------------------
     Non-local corr. energy    =      26.19230153 Ry
     -----------------------------------------------


     total cpu time spent up to now is     1270.3 secs

     total energy              =  -36092.67266712 Ry
     estimated scf accuracy    <       0.00000062 Ry

     iteration # 17     ecut=    70.00 Ry     beta= 0.70
     Davidson diagonalization with overlap

---- Real-time Memory Report at c_bands before calling an iterative solver
           715 MiB given to the printing process from OS
             0 MiB allocation reported by mallinfo(arena+hblkhd)
        918437 MiB available memory on the node where the printing process lives
------------------
     ethr =  7.17E-11,  avg # of iterations =  9.3


     -----------------------------------------------
     Non-local corr. energy    =      26.19227500 Ry
     -----------------------------------------------


     total cpu time spent up to now is     1357.0 secs

     total energy              =  -36092.67266725 Ry
     estimated scf accuracy    <       0.00000024 Ry

     iteration # 18     ecut=    70.00 Ry     beta= 0.70
     Davidson diagonalization with overlap

---- Real-time Memory Report at c_bands before calling an iterative solver
           715 MiB given to the printing process from OS
             0 MiB allocation reported by mallinfo(arena+hblkhd)
        918362 MiB available memory on the node where the printing process lives
------------------
     ethr =  2.80E-11,  avg # of iterations = 12.3


     -----------------------------------------------
     Non-local corr. energy    =      26.19232699 Ry
     -----------------------------------------------


     total cpu time spent up to now is     1427.6 secs

     End of self-consistent calculation

          k = 0.0000 0.0000 0.0000 (170421 PWs)   bands (ev):

   -42.4197 -42.4196 -42.3855 -42.3853 -42.3774 -41.2148 -41.2146 -41.2118
   -41.2116 -41.2112 -41.2111 -41.1931 -41.1930 -41.1900 -41.1898 -41.1894
   -41.1893 -41.1888 -41.1887 -41.1857 -41.1855 -41.1854 -41.1853 -41.1186
   -41.1186 -41.1179 -41.1178 -41.1152 -41.1150 -41.1149 -41.1148 -41.1144
   -41.1143 -41.1141 -41.1141 -40.8676 -40.8674 -40.8672 -40.8672 -40.8648
   -40.8647 -40.8647 -40.8645 -40.8645 -40.8645 -40.8621 -40.8620 -40.8619
   -40.8619 -40.8619 -40.8617 -40.8592 -40.8591 -40.8514 -40.8514 -40.8512
   -40.8511 -40.8510 -40.8510 -40.8509 -40.8507 -40.8486 -40.8485 -40.8483
   -40.8481 -40.8081 -40.8080 -40.8061 -40.8060 -40.8050 -40.8050 -40.8041
   -40.8040 -40.8039 -40.8038 -40.8031 -40.8031 -40.8019 -40.8019 -40.8008
   -40.8008 -40.7999 -40.7998 -40.7954 -40.7953 -40.7947 -40.7946 -40.7933
   -40.7933 -40.7926 -40.7926 -40.7910 -40.7910 -40.7904 -40.7903 -40.7829
   -40.7829 -40.7826 -40.7826 -40.7804 -40.7804 -40.7804 -40.7804 -40.7801
   -40.7801 -40.7796 -40.7795 -40.7791 -40.7791 -40.7787 -40.7787 -40.7785
   -40.7785 -40.7779 -40.7779 -40.7773 -40.7772 -40.7766 -40.7766 -40.7762
   -40.7762 -40.7753 -40.7753 -40.7749 -40.7749 -40.7447 -40.7447 -40.7435
   -40.7434 -40.7422 -40.7421 -40.7419 -40.7419 -40.7410 -40.7409 -40.7405
   -40.7404 -40.7394 -40.7394 -40.7391 -40.7390 -40.7389 -40.7388 -40.7383
   -40.7382 -40.7377 -40.7375 -40.7368 -40.7367 -40.7361 -40.7360 -40.7344
   -40.7343 -40.7339 -40.7337 -40.7208 -40.7207 -40.7205 -40.7205 -40.7187
   -40.7186 -40.7185 -40.7184 -40.7182 -40.7182 -40.7181 -40.7181 -40.7176
   -40.7176 -40.7166 -40.7165 -40.7165 -40.7164 -40.7162 -40.7161 -40.7158
   -40.7157 -40.7153 -40.7152 -40.7144 -40.7143 -40.7138 -40.7138 -40.7133
   -40.7133 -12.9894 -12.9819 -12.9809 -12.9793 -12.9777 -12.9757 -12.9727
   -12.9706 -12.9705 -12.9681 -12.9677 -12.9655 -12.9650 -12.9608 -12.9598
   -12.9593 -12.9590 -12.9586 -12.9585 -12.9581 -12.9565 -12.9561 -12.9551
   -12.9543 -12.9528 -12.9512 -12.9504 -12.9491 -12.9465 -12.9454 -12.9177
   -12.9175 -12.9169 -12.9168 -12.9128 -12.9127 -12.9118 -12.9116 -12.9040
   -12.9039 -12.9023 -12.9022 -12.9020 -12.9019 -12.8959 -12.8958 -12.8947
   -12.8946 -12.8945 -12.8945 -12.8798 -12.8753 -12.8709 -12.8684 -12.8668
   -12.8653 -12.8639 -12.8627 -12.8606 -12.8604 -12.8590 -12.8584 -12.8574
   -12.8560 -12.8524 -12.8514 -12.8508 -12.8505 -12.8499 -12.8494 -12.8491
   -12.8479 -12.8474 -12.8463 -12.8454 -12.8451 -12.8446 -12.8432 -12.8417
   -12.8406 -12.8333 -12.8329 -12.8210 -12.8192 -12.8192  -8.9169  -8.0974
    -8.0056  -7.9631  -7.9627  -7.8851  -7.8836  -7.8831  -7.7669  -7.7522
    -7.7521  -7.7322  -7.7259  -7.7238  -7.7235  -7.7179  -7.7177  -7.6667
    -7.6411  -7.5883  -7.5879  -7.5698  -7.5696  -7.5685  -7.5567  -7.5384
    -7.5381  -7.5008  -7.4997  -7.4903  -7.4893  -7.4809  -7.4667  -7.4646
    -7.4596  -7.4538  -7.4520  -3.7574  -3.6612  -3.6512  -3.6386  -3.5502
    -3.5486  -3.5469  -3.5454  -3.4897  -3.4710  -3.4382  -3.4353  -3.4351
    -3.4328  -3.4264  -3.2269  -3.0785   0.6143   0.6145   0.8042   1.1359
     1.1360   1.1900   1.1906   1.1929   1.2036   1.2047   1.2854   1.2896
     1.2899   1.2989   1.2994   1.3177   1.3460   1.3525   1.4271   1.4278
     1.4854   1.4856   1.5939   1.6588   1.6776   1.6782   1.7062   1.8093
     1.8127   1.8137   1.8466   1.8481   2.0127   2.0196   2.0206   2.0347
     2.0703   2.1346   2.1353   2.1566   2.1575   2.1635   2.1734   2.1801
     2.1809   2.1831   2.1912   2.1959   2.1964   2.2598   2.3022   2.3029
     2.3990   2.4000   2.5464   2.5466   2.5585   2.5599   2.5608   2.6353
     2.6376   2.6538   2.6784   2.7318   2.7354   2.7365   2.7423   2.7424
     2.7670   2.7674   2.7709   2.7797   2.7856   2.7865   2.8148   2.8162
     2.8651   2.8653   2.8838   2.9263   2.9270   2.9410   2.9410   2.9530
     2.9715   2.9715   2.9740   2.9761   2.9763   2.9890   3.0076   3.0084
     3.0609   3.0630   3.0641   3.0801   3.1000   3.1032   3.1281   3.2408
     3.2594   3.2598   3.2626   3.2736   3.2760   3.4427   3.4441   3.4612
     3.6004   3.7109   3.7113   6.0094   6.2037   6.5401   6.5629   6.5643
     6.6043   6.6045   6.7316   6.7940   6.7941   6.8246   6.8261   6.8262
     6.9085   6.9087   7.0017   7.0053   7.0716   7.0729   7.1169   7.1582
     7.1582   7.1842   7.2631   7.2638   7.2728   7.4133   7.4139   7.4474
     7.4483   7.4496   7.4528   7.4914   7.4947   7.5277   7.5403   7.5405
     7.6387   7.6655   7.6657   7.6753   7.6767   7.6812   7.6820   7.6846
     7.6849   7.6875   7.6993   7.7020   7.8975   7.9443   9.4239   9.4246
     9.4452   9.5114   9.5130   9.5324   9.8152   9.8390   9.8397   9.8447
     9.8733   9.8739   9.9315  10.2035  10.2629  10.3917  10.7551  10.7940
    10.9519  10.9519  10.9757  10.9758  11.0387  11.0450  11.0600  11.0602
    11.0642  11.0645  11.0671  11.1275  11.1282  11.1642  11.1717  11.1723

     occupation numbers 
     1.0000   1.0000   1.0000   1.0000   1.0000   1.0000   1.0000   1.0000
     1.0000   1.0000   1.0000   1.0000   1.0000   1.0000   1.0000   1.0000
     1.0000   1.0000   1.0000   1.0000   1.0000   1.0000   1.0000   1.0000
     1.0000   1.0000   1.0000   1.0000   1.0000   1.0000   1.0000   1.0000
     1.0000   1.0000   1.0000   1.0000   1.0000   1.0000   1.0000   1.0000
     1.0000   1.0000   1.0000   1.0000   1.0000   1.0000   1.0000   1.0000
     1.0000   1.0000   1.0000   1.0000   1.0000   1.0000   1.0000   1.0000
     1.0000   1.0000   1.0000   1.0000   1.0000   1.0000   1.0000   1.0000
     1.0000   1.0000   1.0000   1.0000   1.0000   1.0000   1.0000   1.0000
     1.0000   1.0000   1.0000   1.0000   1.0000   1.0000   1.0000   1.0000
     1.0000   1.0000   1.0000   1.0000   1.0000   1.0000   1.0000   1.0000
     1.0000   1.0000   1.0000   1.0000   1.0000   1.0000   1.0000   1.0000
     1.0000   1.0000   1.0000   1.0000   1.0000   1.0000   1.0000   1.0000
     1.0000   1.0000   1.0000   1.0000   1.0000   1.0000   1.0000   1.0000
     1.0000   1.0000   1.0000   1.0000   1.0000   1.0000   1.0000   1.0000
     1.0000   1.0000   1.0000   1.0000   1.0000   1.0000   1.0000   1.0000
     1.0000   1.0000   1.0000   1.0000   1.0000   1.0000   1.0000   1.0000
     1.0000   1.0000   1.0000   1.0000   1.0000   1.0000   1.0000   1.0000
     1.0000   1.0000   1.0000   1.0000   1.0000   1.0000   1.0000   1.0000
     1.0000   1.0000   1.0000   1.0000   1.0000   1.0000   1.0000   1.0000
     1.0000   1.0000   1.0000   1.0000   1.0000   1.0000   1.0000   1.0000
     1.0000   1.0000   1.0000   1.0000   1.0000   1.0000   1.0000   1.0000
     1.0000   1.0000   1.0000   1.0000   1.0000   1.0000   1.0000   1.0000
     1.0000   1.0000   1.0000   1.0000   1.0000   1.0000   1.0000   1.0000
     1.0000   1.0000   1.0000   1.0000   1.0000   1.0000   1.0000   1.0000
     1.0000   1.0000   1.0000   1.0000   1.0000   1.0000   1.0000   1.0000
     1.0000   1.0000   1.0000   1.0000   1.0000   1.0000   1.0000   1.0000
     1.0000   1.0000   1.0000   1.0000   1.0000   1.0000   1.0000   1.0000
     1.0000   1.0000   1.0000   1.0000   1.0000   1.0000   1.0000   1.0000
     1.0000   1.0000   1.0000   1.0000   1.0000   1.0000   1.0000   1.0000
     1.0000   1.0000   1.0000   1.0000   1.0000   1.0000   1.0000   1.0000
     1.0000   1.0000   1.0000   1.0000   1.0000   1.0000   1.0000   1.0000
     1.0000   1.0000   1.0000   1.0000   1.0000   1.0000   1.0000   1.0000
     1.0000   1.0000   1.0000   1.0000   1.0000   1.0000   1.0000   1.0000
     1.0000   1.0000   1.0000   1.0000   1.0000   1.0000   1.0000   1.0000
     1.0000   1.0000   1.0000   1.0000   1.0000   1.0000   1.0000   1.0000
     1.0000   1.0000   1.0000   1.0000   1.0000   1.0000   1.0000   1.0000
     1.0000   1.0000   1.0000   1.0000   1.0000   1.0000   1.0000   1.0000
     1.0000   1.0000   1.0000   1.0000   1.0000   1.0000   1.0000   1.0000
     1.0000   1.0000   1.0000   1.0000   1.0000   1.0000   1.0000   1.0000
     1.0000   1.0000   1.0000   1.0000   1.0000   1.0000   1.0000   1.0000
     1.0000   1.0000   1.0000   1.0000   1.0000   1.0000   1.0000   1.0000
     1.0000   1.0000   1.0000   1.0000   1.0000   1.0000   1.0000   1.0000
     1.0000   1.0000   1.0000   1.0000   1.0000   1.0000   1.0000   1.0000
     1.0000   1.0000   1.0000   1.0000   1.0000   1.0000   1.0000   1.0000
     1.0000   1.0000   1.0000   1.0000   1.0000   1.0000   1.0000   1.0000
     1.0000   1.0000   1.0000   1.0000   1.0000   1.0000   1.0000   1.0000
     1.0000   1.0000   1.0000   1.0000   1.0000   1.0000   1.0000   1.0000
     1.0000   1.0000   1.0000   1.0000   1.0000   1.0000   1.0000   1.0000
     1.0000   1.0000   1.0000   1.0000   1.0000   1.0000   1.0000   1.0000
     1.0000   1.0000   1.0000   1.0000   1.0000   1.0000   1.0000   1.0000
     1.0000   1.0000   1.0000   1.0000   1.0000   1.0000   1.0000   1.0000
     1.0000   1.0000   1.0000   1.0000   1.0000   1.0000   1.0000   1.0000
     1.0000   1.0000   1.0000   0.9999   0.9999   0.9820   0.9813   0.9716
     0.6763   0.2448   0.2435   0.0000   0.0000   0.0000   0.0000   0.0000
     0.0000   0.0000   0.0000   0.0000   0.0000   0.0000   0.0000   0.0000
     0.0000   0.0000   0.0000   0.0000   0.0000   0.0000   0.0000   0.0000
     0.0000   0.0000   0.0000   0.0000   0.0000   0.0000   0.0000   0.0000
     0.0000   0.0000   0.0000   0.0000   0.0000   0.0000   0.0000   0.0000
     0.0000   0.0000   0.0000   0.0000   0.0000   0.0000   0.0000   0.0000
     0.0000   0.0000   0.0000   0.0000   0.0000   0.0000   0.0000   0.0000
     0.0000   0.0000   0.0000   0.0000   0.0000   0.0000   0.0000   0.0000
     0.0000   0.0000   0.0000   0.0000   0.0000   0.0000   0.0000   0.0000
     0.0000   0.0000   0.0000   0.0000   0.0000   0.0000   0.0000   0.0000
     0.0000   0.0000   0.0000   0.0000   0.0000   0.0000   0.0000   0.0000

          k = 0.0000-0.5774 0.0000 (170366 PWs)   bands (ev):

   -42.4197 -42.4196 -42.3855 -42.3853 -42.3774 -41.2148 -41.2146 -41.2118
   -41.2116 -41.2112 -41.2111 -41.1931 -41.1930 -41.1900 -41.1898 -41.1894
   -41.1893 -41.1888 -41.1887 -41.1857 -41.1855 -41.1854 -41.1853 -41.1186
   -41.1186 -41.1179 -41.1178 -41.1152 -41.1150 -41.1149 -41.1148 -41.1144
   -41.1143 -41.1141 -41.1141 -40.8676 -40.8674 -40.8672 -40.8672 -40.8648
   -40.8647 -40.8647 -40.8645 -40.8645 -40.8645 -40.8621 -40.8620 -40.8619
   -40.8619 -40.8619 -40.8617 -40.8592 -40.8591 -40.8514 -40.8514 -40.8512
   -40.8511 -40.8510 -40.8510 -40.8509 -40.8507 -40.8486 -40.8485 -40.8483
   -40.8481 -40.8081 -40.8080 -40.8061 -40.8060 -40.8050 -40.8050 -40.8041
   -40.8040 -40.8039 -40.8038 -40.8031 -40.8031 -40.8019 -40.8019 -40.8008
   -40.8008 -40.7999 -40.7998 -40.7954 -40.7953 -40.7947 -40.7946 -40.7933
   -40.7933 -40.7926 -40.7926 -40.7910 -40.7910 -40.7904 -40.7903 -40.7829
   -40.7829 -40.7826 -40.7826 -40.7804 -40.7804 -40.7804 -40.7804 -40.7801
   -40.7801 -40.7796 -40.7795 -40.7791 -40.7791 -40.7787 -40.7787 -40.7785
   -40.7785 -40.7779 -40.7779 -40.7773 -40.7772 -40.7766 -40.7766 -40.7762
   -40.7762 -40.7753 -40.7753 -40.7749 -40.7749 -40.7447 -40.7447 -40.7435
   -40.7434 -40.7422 -40.7421 -40.7419 -40.7419 -40.7410 -40.7409 -40.7405
   -40.7404 -40.7394 -40.7394 -40.7391 -40.7390 -40.7389 -40.7388 -40.7383
   -40.7382 -40.7377 -40.7375 -40.7368 -40.7367 -40.7361 -40.7360 -40.7344
   -40.7343 -40.7339 -40.7337 -40.7208 -40.7207 -40.7205 -40.7205 -40.7187
   -40.7186 -40.7185 -40.7184 -40.7182 -40.7182 -40.7181 -40.7181 -40.7176
   -40.7176 -40.7166 -40.7165 -40.7165 -40.7164 -40.7162 -40.7161 -40.7158
   -40.7157 -40.7153 -40.7152 -40.7144 -40.7143 -40.7138 -40.7138 -40.7133
   -40.7133 -12.9883 -12.9839 -12.9819 -12.9800 -12.9764 -12.9754 -12.9732
   -12.9715 -12.9700 -12.9673 -12.9664 -12.9651 -12.9633 -12.9626 -12.9598
   -12.9595 -12.9589 -12.9587 -12.9584 -12.9575 -12.9567 -12.9556 -12.9547
   -12.9545 -12.9536 -12.9511 -12.9504 -12.9492 -12.9467 -12.9458 -12.9178
   -12.9175 -12.9171 -12.9169 -12.9131 -12.9126 -12.9120 -12.9117 -12.9040
   -12.9038 -12.9022 -12.9021 -12.9021 -12.9019 -12.8958 -12.8957 -12.8946
   -12.8945 -12.8945 -12.8944 -12.8784 -12.8754 -12.8709 -12.8684 -12.8678
   -12.8664 -12.8637 -12.8619 -12.8609 -12.8599 -12.8590 -12.8580 -12.8567
   -12.8550 -12.8541 -12.8515 -12.8510 -12.8504 -12.8501 -12.8494 -12.8490
   -12.8477 -12.8473 -12.8464 -12.8452 -12.8451 -12.8440 -12.8434 -12.8421
   -12.8412 -12.8335 -12.8328 -12.8209 -12.8192 -12.8191  -8.9159  -8.0866
    -7.9993  -7.9854  -7.9390  -7.9211  -7.8612  -7.8502  -7.8454  -7.7994
    -7.7900  -7.7859  -7.7386  -7.7359  -7.6400  -7.6368  -7.6310  -7.6205
    -7.6124  -7.6043  -7.5965  -7.5915  -7.5744  -7.5688  -7.5581  -7.5411
    -7.5374  -7.5340  -7.5253  -7.5156  -7.4874  -7.4801  -7.4745  -7.4718
    -7.4537  -7.4421  -7.4391  -3.6880  -3.6856  -3.6733  -3.6475  -3.5958
    -3.5929  -3.5723  -3.5698  -3.5609  -3.5235  -3.4787  -3.3751  -3.3659
    -3.3412  -3.2867  -3.1942  -3.1816   0.5933   0.5952   0.7235   0.9966
     1.0174   1.0413   1.1640   1.1856   1.2199   1.2407   1.2747   1.3462
     1.3630   1.4727   1.4925   1.4967   1.5209   1.5370   1.5692   1.6123
     1.6160   1.6250   1.6266   1.6527   1.6593   1.6865   1.7245   1.7658
     1.7738   1.8090   1.8241   1.8496   1.8710   1.8720   1.9212   1.9275
     1.9290   1.9426   2.0191   2.0344   2.0557   2.0687   2.1230   2.1814
     2.2564   2.2606   2.2753   2.2985   2.3285   2.3523   2.3551   2.3879
     2.4318   2.4395   2.4584   2.4650   2.4794   2.4956   2.4966   2.5055
     2.5511   2.5578   2.5610   2.6069   2.6463   2.6550   2.6600   2.6696
     2.6708   2.7028   2.7234   2.7249   2.7407   2.7735   2.7923   2.8056
     2.8129   2.8471   2.8672   2.8688   2.8724   2.8855   2.8890   2.8907
     2.9555   2.9915   3.0014   3.0142   3.0157   3.0214   3.0261   3.0542
     3.1331   3.1818   3.1930   3.2124   3.2525   3.2622   3.2656   3.2902
     3.2982   3.3019   3.3086   3.3414   3.3860   3.4047   3.4091   3.4235
     3.6592   3.6840   3.7197   6.4368   6.5021   6.5213   6.5363   6.7671
     6.7831   6.8330   6.8474   6.9033   6.9096   6.9292   6.9527   6.9826
     6.9836   7.0092   7.0358   7.0424   7.0490   7.0916   7.0988   7.1180
     7.1305   7.1494   7.1595   7.1604   7.1810   7.2335   7.2828   7.2993
     7.3023   7.3066   7.3372   7.3523   7.3635   7.4280   7.4359   7.4393
     7.4424   7.4499   7.4769   7.5294   7.5314   7.5671   7.5685   7.5729
     7.5751   7.8557   7.8676   7.8924   7.9052   8.0504   9.1647   9.5857
     9.5929   9.6804   9.7004   9.7411   9.9866  10.1178  10.1556  10.1576
    10.1660  10.1751  10.2017  10.2233  10.2264  10.2951  10.2985  10.3087
    10.3573  10.3756  10.6192  10.7251  10.7416  10.7775  10.8813  10.8953
    10.9006  10.9159  10.9185  10.9209  10.9682  10.9687  10.9969  11.0222

     occupation numbers 
     1.0000   1.0000   1.0000   1.0000   1.0000   1.0000   1.0000   1.0000
     1.0000   1.0000   1.0000   1.0000   1.0000   1.0000   1.0000   1.0000
     1.0000   1.0000   1.0000   1.0000   1.0000   1.0000   1.0000   1.0000
     1.0000   1.0000   1.0000   1.0000   1.0000   1.0000   1.0000   1.0000
     1.0000   1.0000   1.0000   1.0000   1.0000   1.0000   1.0000   1.0000
     1.0000   1.0000   1.0000   1.0000   1.0000   1.0000   1.0000   1.0000
     1.0000   1.0000   1.0000   1.0000   1.0000   1.0000   1.0000   1.0000
     1.0000   1.0000   1.0000   1.0000   1.0000   1.0000   1.0000   1.0000
     1.0000   1.0000   1.0000   1.0000   1.0000   1.0000   1.0000   1.0000
     1.0000   1.0000   1.0000   1.0000   1.0000   1.0000   1.0000   1.0000
     1.0000   1.0000   1.0000   1.0000   1.0000   1.0000   1.0000   1.0000
     1.0000   1.0000   1.0000   1.0000   1.0000   1.0000   1.0000   1.0000
     1.0000   1.0000   1.0000   1.0000   1.0000   1.0000   1.0000   1.0000
     1.0000   1.0000   1.0000   1.0000   1.0000   1.0000   1.0000   1.0000
     1.0000   1.0000   1.0000   1.0000   1.0000   1.0000   1.0000   1.0000
     1.0000   1.0000   1.0000   1.0000   1.0000   1.0000   1.0000   1.0000
     1.0000   1.0000   1.0000   1.0000   1.0000   1.0000   1.0000   1.0000
     1.0000   1.0000   1.0000   1.0000   1.0000   1.0000   1.0000   1.0000
     1.0000   1.0000   1.0000   1.0000   1.0000   1.0000   1.0000   1.0000
     1.0000   1.0000   1.0000   1.0000   1.0000   1.0000   1.0000   1.0000
     1.0000   1.0000   1.0000   1.0000   1.0000   1.0000   1.0000   1.0000
     1.0000   1.0000   1.0000   1.0000   1.0000   1.0000   1.0000   1.0000
     1.0000   1.0000   1.0000   1.0000   1.0000   1.0000   1.0000   1.0000
     1.0000   1.0000   1.0000   1.0000   1.0000   1.0000   1.0000   1.0000
     1.0000   1.0000   1.0000   1.0000   1.0000   1.0000   1.0000   1.0000
     1.0000   1.0000   1.0000   1.0000   1.0000   1.0000   1.0000   1.0000
     1.0000   1.0000   1.0000   1.0000   1.0000   1.0000   1.0000   1.0000
     1.0000   1.0000   1.0000   1.0000   1.0000   1.0000   1.0000   1.0000
     1.0000   1.0000   1.0000   1.0000   1.0000   1.0000   1.0000   1.0000
     1.0000   1.0000   1.0000   1.0000   1.0000   1.0000   1.0000   1.0000
     1.0000   1.0000   1.0000   1.0000   1.0000   1.0000   1.0000   1.0000
     1.0000   1.0000   1.0000   1.0000   1.0000   1.0000   1.0000   1.0000
     1.0000   1.0000   1.0000   1.0000   1.0000   1.0000   1.0000   1.0000
     1.0000   1.0000   1.0000   1.0000   1.0000   1.0000   1.0000   1.0000
     1.0000   1.0000   1.0000   1.0000   1.0000   1.0000   1.0000   1.0000
     1.0000   1.0000   1.0000   1.0000   1.0000   1.0000   1.0000   1.0000
     1.0000   1.0000   1.0000   1.0000   1.0000   1.0000   1.0000   1.0000
     1.0000   1.0000   1.0000   1.0000   1.0000   1.0000   1.0000   1.0000
     1.0000   1.0000   1.0000   1.0000   1.0000   1.0000   1.0000   1.0000
     1.0000   1.0000   1.0000   1.0000   1.0000   1.0000   1.0000   1.0000
     1.0000   1.0000   1.0000   1.0000   1.0000   1.0000   1.0000   1.0000
     1.0000   1.0000   1.0000   1.0000   1.0000   1.0000   1.0000   1.0000
     1.0000   1.0000   1.0000   1.0000   1.0000   1.0000   1.0000   1.0000
     1.0000   1.0000   1.0000   1.0000   1.0000   1.0000   1.0000   1.0000
     1.0000   1.0000   1.0000   1.0000   1.0000   1.0000   1.0000   1.0000
     1.0000   1.0000   1.0000   1.0000   1.0000   1.0000   1.0000   1.0000
     1.0000   1.0000   1.0000   1.0000   1.0000   1.0000   1.0000   1.0000
     1.0000   1.0000   1.0000   1.0000   1.0000   1.0000   1.0000   1.0000
     1.0000   1.0000   1.0000   1.0000   1.0000   1.0000   1.0000   1.0000
     1.0000   1.0000   1.0000   1.0000   1.0000   1.0000   1.0000   1.0000
     1.0000   1.0000   1.0000   1.0000   1.0000   1.0000   1.0000   1.0000
     1.0000   1.0000   1.0000   1.0000   1.0000   1.0000   1.0000   1.0000
     1.0000   1.0000   1.0000   1.0000   1.0000   1.0000   1.0000   0.9999
     0.9998   0.9998   0.9998   0.9992   0.9964   0.9936   0.9928   0.9892
     0.4392   0.3405   0.2169   0.0000   0.0000   0.0000   0.0000   0.0000
     0.0000   0.0000   0.0000   0.0000   0.0000   0.0000   0.0000   0.0000
     0.0000   0.0000   0.0000   0.0000   0.0000   0.0000   0.0000   0.0000
     0.0000   0.0000   0.0000   0.0000   0.0000   0.0000   0.0000   0.0000
     0.0000   0.0000   0.0000   0.0000   0.0000   0.0000   0.0000   0.0000
     0.0000   0.0000   0.0000   0.0000   0.0000   0.0000   0.0000   0.0000
     0.0000   0.0000   0.0000   0.0000   0.0000   0.0000   0.0000   0.0000
     0.0000   0.0000   0.0000   0.0000   0.0000   0.0000   0.0000   0.0000
     0.0000   0.0000   0.0000   0.0000   0.0000   0.0000   0.0000   0.0000
     0.0000   0.0000   0.0000   0.0000   0.0000   0.0000   0.0000   0.0000
     0.0000   0.0000   0.0000   0.0000   0.0000   0.0000   0.0000   0.0000

          k = 0.5000-0.2887 0.0000 (170366 PWs)   bands (ev):

   -42.4197 -42.4196 -42.3855 -42.3853 -42.3774 -41.2148 -41.2146 -41.2118
   -41.2116 -41.2112 -41.2111 -41.1931 -41.1930 -41.1900 -41.1898 -41.1894
   -41.1893 -41.1888 -41.1887 -41.1857 -41.1855 -41.1854 -41.1853 -41.1186
   -41.1186 -41.1179 -41.1178 -41.1152 -41.1150 -41.1149 -41.1148 -41.1144
   -41.1143 -41.1141 -41.1141 -40.8676 -40.8674 -40.8672 -40.8672 -40.8648
   -40.8647 -40.8647 -40.8645 -40.8645 -40.8645 -40.8621 -40.8620 -40.8619
   -40.8619 -40.8619 -40.8617 -40.8592 -40.8591 -40.8514 -40.8514 -40.8512
   -40.8511 -40.8510 -40.8510 -40.8509 -40.8507 -40.8486 -40.8485 -40.8483
   -40.8481 -40.8081 -40.8080 -40.8061 -40.8060 -40.8050 -40.8050 -40.8041
   -40.8040 -40.8039 -40.8038 -40.8031 -40.8031 -40.8019 -40.8019 -40.8008
   -40.8008 -40.7999 -40.7998 -40.7954 -40.7953 -40.7947 -40.7946 -40.7933
   -40.7933 -40.7926 -40.7926 -40.7910 -40.7910 -40.7904 -40.7903 -40.7829
   -40.7829 -40.7826 -40.7826 -40.7804 -40.7804 -40.7804 -40.7804 -40.7801
   -40.7801 -40.7796 -40.7795 -40.7791 -40.7791 -40.7787 -40.7787 -40.7785
   -40.7785 -40.7779 -40.7779 -40.7773 -40.7772 -40.7766 -40.7766 -40.7762
   -40.7762 -40.7753 -40.7753 -40.7749 -40.7749 -40.7447 -40.7447 -40.7435
   -40.7434 -40.7422 -40.7421 -40.7419 -40.7419 -40.7410 -40.7409 -40.7405
   -40.7404 -40.7394 -40.7394 -40.7391 -40.7390 -40.7389 -40.7388 -40.7383
   -40.7382 -40.7377 -40.7375 -40.7368 -40.7367 -40.7361 -40.7360 -40.7344
   -40.7343 -40.7339 -40.7337 -40.7208 -40.7207 -40.7205 -40.7205 -40.7187
   -40.7186 -40.7185 -40.7184 -40.7182 -40.7182 -40.7181 -40.7181 -40.7176
   -40.7176 -40.7166 -40.7165 -40.7165 -40.7164 -40.7162 -40.7161 -40.7158
   -40.7157 -40.7153 -40.7152 -40.7144 -40.7143 -40.7138 -40.7138 -40.7133
   -40.7133 -12.9881 -12.9848 -12.9812 -12.9799 -12.9763 -12.9742 -12.9742
   -12.9717 -12.9691 -12.9690 -12.9656 -12.9650 -12.9633 -12.9618 -12.9606
   -12.9596 -12.9593 -12.9584 -12.9581 -12.9577 -12.9569 -12.9553 -12.9549
   -12.9540 -12.9540 -12.9510 -12.9506 -12.9492 -12.9464 -12.9458 -12.9178
   -12.9173 -12.9172 -12.9169 -12.9133 -12.9125 -12.9119 -12.9118 -12.9039
   -12.9038 -12.9022 -12.9021 -12.9020 -12.9019 -12.8958 -12.8957 -12.8946
   -12.8945 -12.8945 -12.8944 -12.8779 -12.8745 -12.8709 -12.8700 -12.8688
   -12.8665 -12.8642 -12.8612 -12.8610 -12.8590 -12.8590 -12.8578 -12.8567
   -12.8556 -12.8536 -12.8512 -12.8509 -12.8504 -12.8501 -12.8497 -12.8485
   -12.8477 -12.8470 -12.8463 -12.8454 -12.8448 -12.8437 -12.8437 -12.8421
   -12.8420 -12.8333 -12.8330 -12.8209 -12.8191 -12.8191  -8.9159  -8.0866
    -7.9994  -7.9857  -7.9388  -7.9212  -7.8602  -7.8511  -7.8452  -7.7991
    -7.7897  -7.7859  -7.7388  -7.7360  -7.6392  -7.6378  -7.6310  -7.6210
    -7.6125  -7.6053  -7.5964  -7.5919  -7.5739  -7.5677  -7.5571  -7.5407
    -7.5371  -7.5340  -7.5262  -7.5159  -7.4863  -7.4800  -7.4759  -7.4718
    -7.4556  -7.4397  -7.4397  -3.6878  -3.6860  -3.6732  -3.6465  -3.5948
    -3.5937  -3.5721  -3.5699  -3.5612  -3.5244  -3.4788  -3.3753  -3.3658
    -3.3418  -3.2859  -3.1928  -3.1828   0.5934   0.5952   0.7232   0.9967
     1.0172   1.0414   1.1639   1.1860   1.2203   1.2403   1.2748   1.3465
     1.3631   1.4720   1.4923   1.4971   1.5212   1.5372   1.5698   1.6129
     1.6160   1.6232   1.6262   1.6529   1.6587   1.6864   1.7256   1.7661
     1.7750   1.8098   1.8232   1.8482   1.8693   1.8720   1.9207   1.9286
     1.9298   1.9425   2.0191   2.0333   2.0553   2.0673   2.1235   2.1826
     2.2554   2.2625   2.2741   2.2988   2.3280   2.3540   2.3553   2.3865
     2.4320   2.4398   2.4574   2.4641   2.4802   2.4949   2.4965   2.5068
     2.5507   2.5581   2.5629   2.6070   2.6468   2.6550   2.6613   2.6696
     2.6712   2.7018   2.7231   2.7245   2.7403   2.7743   2.7924   2.8044
     2.8133   2.8475   2.8666   2.8683   2.8727   2.8862   2.8884   2.8907
     2.9553   2.9916   3.0017   3.0137   3.0160   3.0208   3.0256   3.0543
     3.1325   3.1827   3.1933   3.2121   3.2537   3.2615   3.2665   3.2924
     3.2983   3.3013   3.3070   3.3398   3.3878   3.4018   3.4093   3.4247
     3.6594   3.6842   3.7191   6.4385   6.5042   6.5191   6.5359   6.7660
     6.7806   6.8321   6.8504   6.9015   6.9074   6.9277   6.9493   6.9827
     6.9848   7.0120   7.0367   7.0431   7.0487   7.0959   7.1028   7.1138
     7.1307   7.1477   7.1587   7.1633   7.1768   7.2348   7.2840   7.3008
     7.3026   7.3036   7.3385   7.3515   7.3649   7.4282   7.4364   7.4405
     7.4415   7.4485   7.4742   7.5322   7.5326   7.5669   7.5696   7.5700
     7.5778   7.8570   7.8708   7.8920   7.9023   8.0491   9.1654   9.5859
     9.5923   9.6796   9.7007   9.7411   9.9865  10.1190  10.1559  10.1574
    10.1668  10.1740  10.2007  10.2234  10.2264  10.2946  10.2983  10.3088
    10.3561  10.3765  10.6176  10.7270  10.7407  10.7776  10.8823  10.8946
    10.9008  10.9156  10.9180  10.9213  10.9664  10.9711  10.9965  11.0246

     occupation numbers 
     1.0000   1.0000   1.0000   1.0000   1.0000   1.0000   1.0000   1.0000
     1.0000   1.0000   1.0000   1.0000   1.0000   1.0000   1.0000   1.0000
     1.0000   1.0000   1.0000   1.0000   1.0000   1.0000   1.0000   1.0000
     1.0000   1.0000   1.0000   1.0000   1.0000   1.0000   1.0000   1.0000
     1.0000   1.0000   1.0000   1.0000   1.0000   1.0000   1.0000   1.0000
     1.0000   1.0000   1.0000   1.0000   1.0000   1.0000   1.0000   1.0000
     1.0000   1.0000   1.0000   1.0000   1.0000   1.0000   1.0000   1.0000
     1.0000   1.0000   1.0000   1.0000   1.0000   1.0000   1.0000   1.0000
     1.0000   1.0000   1.0000   1.0000   1.0000   1.0000   1.0000   1.0000
     1.0000   1.0000   1.0000   1.0000   1.0000   1.0000   1.0000   1.0000
     1.0000   1.0000   1.0000   1.0000   1.0000   1.0000   1.0000   1.0000
     1.0000   1.0000   1.0000   1.0000   1.0000   1.0000   1.0000   1.0000
     1.0000   1.0000   1.0000   1.0000   1.0000   1.0000   1.0000   1.0000
     1.0000   1.0000   1.0000   1.0000   1.0000   1.0000   1.0000   1.0000
     1.0000   1.0000   1.0000   1.0000   1.0000   1.0000   1.0000   1.0000
     1.0000   1.0000   1.0000   1.0000   1.0000   1.0000   1.0000   1.0000
     1.0000   1.0000   1.0000   1.0000   1.0000   1.0000   1.0000   1.0000
     1.0000   1.0000   1.0000   1.0000   1.0000   1.0000   1.0000   1.0000
     1.0000   1.0000   1.0000   1.0000   1.0000   1.0000   1.0000   1.0000
     1.0000   1.0000   1.0000   1.0000   1.0000   1.0000   1.0000   1.0000
     1.0000   1.0000   1.0000   1.0000   1.0000   1.0000   1.0000   1.0000
     1.0000   1.0000   1.0000   1.0000   1.0000   1.0000   1.0000   1.0000
     1.0000   1.0000   1.0000   1.0000   1.0000   1.0000   1.0000   1.0000
     1.0000   1.0000   1.0000   1.0000   1.0000   1.0000   1.0000   1.0000
     1.0000   1.0000   1.0000   1.0000   1.0000   1.0000   1.0000   1.0000
     1.0000   1.0000   1.0000   1.0000   1.0000   1.0000   1.0000   1.0000
     1.0000   1.0000   1.0000   1.0000   1.0000   1.0000   1.0000   1.0000
     1.0000   1.0000   1.0000   1.0000   1.0000   1.0000   1.0000   1.0000
     1.0000   1.0000   1.0000   1.0000   1.0000   1.0000   1.0000   1.0000
     1.0000   1.0000   1.0000   1.0000   1.0000   1.0000   1.0000   1.0000
     1.0000   1.0000   1.0000   1.0000   1.0000   1.0000   1.0000   1.0000
     1.0000   1.0000   1.0000   1.0000   1.0000   1.0000   1.0000   1.0000
     1.0000   1.0000   1.0000   1.0000   1.0000   1.0000   1.0000   1.0000
     1.0000   1.0000   1.0000   1.0000   1.0000   1.0000   1.0000   1.0000
     1.0000   1.0000   1.0000   1.0000   1.0000   1.0000   1.0000   1.0000
     1.0000   1.0000   1.0000   1.0000   1.0000   1.0000   1.0000   1.0000
     1.0000   1.0000   1.0000   1.0000   1.0000   1.0000   1.0000   1.0000
     1.0000   1.0000   1.0000   1.0000   1.0000   1.0000   1.0000   1.0000
     1.0000   1.0000   1.0000   1.0000   1.0000   1.0000   1.0000   1.0000
     1.0000   1.0000   1.0000   1.0000   1.0000   1.0000   1.0000   1.0000
     1.0000   1.0000   1.0000   1.0000   1.0000   1.0000   1.0000   1.0000
     1.0000   1.0000   1.0000   1.0000   1.0000   1.0000   1.0000   1.0000
     1.0000   1.0000   1.0000   1.0000   1.0000   1.0000   1.0000   1.0000
     1.0000   1.0000   1.0000   1.0000   1.0000   1.0000   1.0000   1.0000
     1.0000   1.0000   1.0000   1.0000   1.0000   1.0000   1.0000   1.0000
     1.0000   1.0000   1.0000   1.0000   1.0000   1.0000   1.0000   1.0000
     1.0000   1.0000   1.0000   1.0000   1.0000   1.0000   1.0000   1.0000
     1.0000   1.0000   1.0000   1.0000   1.0000   1.0000   1.0000   1.0000
     1.0000   1.0000   1.0000   1.0000   1.0000   1.0000   1.0000   1.0000
     1.0000   1.0000   1.0000   1.0000   1.0000   1.0000   1.0000   1.0000
     1.0000   1.0000   1.0000   1.0000   1.0000   1.0000   1.0000   1.0000
     1.0000   1.0000   1.0000   1.0000   1.0000   1.0000   1.0000   1.0000
     1.0000   1.0000   1.0000   1.0000   1.0000   1.0000   1.0000   0.9999
     0.9998   0.9998   0.9998   0.9992   0.9962   0.9942   0.9927   0.9888
     0.4384   0.3396   0.2187   0.0000   0.0000   0.0000   0.0000   0.0000
     0.0000   0.0000   0.0000   0.0000   0.0000   0.0000   0.0000   0.0000
     0.0000   0.0000   0.0000   0.0000   0.0000   0.0000   0.0000   0.0000
     0.0000   0.0000   0.0000   0.0000   0.0000   0.0000   0.0000   0.0000
     0.0000   0.0000   0.0000   0.0000   0.0000   0.0000   0.0000   0.0000
     0.0000   0.0000   0.0000   0.0000   0.0000   0.0000   0.0000   0.0000
     0.0000   0.0000   0.0000   0.0000   0.0000   0.0000   0.0000   0.0000
     0.0000   0.0000   0.0000   0.0000   0.0000   0.0000   0.0000   0.0000
     0.0000   0.0000   0.0000   0.0000   0.0000   0.0000   0.0000   0.0000
     0.0000   0.0000   0.0000   0.0000   0.0000   0.0000   0.0000   0.0000
     0.0000   0.0000   0.0000   0.0000   0.0000   0.0000   0.0000   0.0000

          k =-0.5000-0.2887 0.0000 (170366 PWs)   bands (ev):

   -42.4197 -42.4196 -42.3855 -42.3853 -42.3774 -41.2148 -41.2146 -41.2118
   -41.2116 -41.2112 -41.2111 -41.1931 -41.1930 -41.1900 -41.1898 -41.1894
   -41.1893 -41.1888 -41.1887 -41.1857 -41.1855 -41.1854 -41.1853 -41.1186
   -41.1186 -41.1179 -41.1178 -41.1152 -41.1150 -41.1149 -41.1148 -41.1144
   -41.1143 -41.1141 -41.1141 -40.8676 -40.8674 -40.8672 -40.8672 -40.8648
   -40.8647 -40.8647 -40.8645 -40.8645 -40.8645 -40.8621 -40.8620 -40.8619
   -40.8619 -40.8619 -40.8617 -40.8592 -40.8591 -40.8514 -40.8514 -40.8512
   -40.8511 -40.8510 -40.8510 -40.8509 -40.8507 -40.8486 -40.8485 -40.8483
   -40.8481 -40.8081 -40.8080 -40.8061 -40.8060 -40.8050 -40.8050 -40.8041
   -40.8040 -40.8039 -40.8038 -40.8031 -40.8031 -40.8019 -40.8019 -40.8008
   -40.8008 -40.7999 -40.7998 -40.7954 -40.7953 -40.7947 -40.7946 -40.7933
   -40.7933 -40.7926 -40.7926 -40.7910 -40.7910 -40.7904 -40.7903 -40.7829
   -40.7829 -40.7826 -40.7826 -40.7804 -40.7804 -40.7804 -40.7804 -40.7801
   -40.7801 -40.7796 -40.7795 -40.7791 -40.7791 -40.7787 -40.7787 -40.7785
   -40.7785 -40.7779 -40.7779 -40.7773 -40.7772 -40.7766 -40.7766 -40.7762
   -40.7762 -40.7753 -40.7753 -40.7749 -40.7749 -40.7447 -40.7447 -40.7435
   -40.7434 -40.7422 -40.7421 -40.7419 -40.7419 -40.7410 -40.7409 -40.7405
   -40.7404 -40.7394 -40.7394 -40.7391 -40.7390 -40.7389 -40.7388 -40.7383
   -40.7382 -40.7377 -40.7375 -40.7368 -40.7367 -40.7361 -40.7360 -40.7344
   -40.7343 -40.7339 -40.7337 -40.7208 -40.7207 -40.7205 -40.7205 -40.7187
   -40.7186 -40.7185 -40.7184 -40.7182 -40.7182 -40.7181 -40.7181 -40.7176
   -40.7176 -40.7166 -40.7165 -40.7165 -40.7164 -40.7162 -40.7161 -40.7158
   -40.7157 -40.7153 -40.7152 -40.7144 -40.7143 -40.7138 -40.7138 -40.7133
   -40.7133 -12.9883 -12.9838 -12.9819 -12.9800 -12.9764 -12.9754 -12.9732
   -12.9715 -12.9700 -12.9673 -12.9664 -12.9651 -12.9633 -12.9626 -12.9598
   -12.9595 -12.9589 -12.9587 -12.9584 -12.9575 -12.9567 -12.9556 -12.9547
   -12.9545 -12.9536 -12.9511 -12.9504 -12.9492 -12.9467 -12.9458 -12.9178
   -12.9174 -12.9171 -12.9169 -12.9132 -12.9126 -12.9120 -12.9117 -12.9039
   -12.9038 -12.9022 -12.9021 -12.9020 -12.9020 -12.8958 -12.8957 -12.8946
   -12.8945 -12.8945 -12.8944 -12.8784 -12.8754 -12.8709 -12.8684 -12.8678
   -12.8663 -12.8637 -12.8619 -12.8609 -12.8599 -12.8590 -12.8580 -12.8567
   -12.8550 -12.8541 -12.8514 -12.8510 -12.8504 -12.8501 -12.8494 -12.8490
   -12.8476 -12.8473 -12.8464 -12.8453 -12.8451 -12.8440 -12.8434 -12.8421
   -12.8411 -12.8335 -12.8328 -12.8209 -12.8192 -12.8191  -8.9159  -8.0866
    -7.9993  -7.9854  -7.9390  -7.9211  -7.8612  -7.8502  -7.8454  -7.7995
    -7.7900  -7.7859  -7.7386  -7.7358  -7.6400  -7.6368  -7.6309  -7.6205
    -7.6124  -7.6043  -7.5965  -7.5915  -7.5744  -7.5688  -7.5581  -7.5411
    -7.5374  -7.5340  -7.5253  -7.5156  -7.4874  -7.4801  -7.4745  -7.4718
    -7.4536  -7.4421  -7.4391  -3.6880  -3.6856  -3.6733  -3.6475  -3.5958
    -3.5928  -3.5723  -3.5698  -3.5609  -3.5235  -3.4786  -3.3751  -3.3659
    -3.3412  -3.2867  -3.1942  -3.1815   0.5934   0.5950   0.7236   0.9965
     1.0174   1.0413   1.1640   1.1856   1.2199   1.2407   1.2748   1.3462
     1.3631   1.4727   1.4925   1.4967   1.5209   1.5370   1.5692   1.6122
     1.6160   1.6250   1.6266   1.6527   1.6593   1.6865   1.7245   1.7658
     1.7738   1.8090   1.8241   1.8496   1.8710   1.8720   1.9212   1.9275
     1.9289   1.9426   2.0191   2.0344   2.0557   2.0687   2.1230   2.1814
     2.2564   2.2605   2.2754   2.2985   2.3285   2.3523   2.3550   2.3879
     2.4318   2.4395   2.4584   2.4650   2.4794   2.4956   2.4966   2.5055
     2.5511   2.5578   2.5610   2.6069   2.6463   2.6551   2.6600   2.6696
     2.6708   2.7028   2.7234   2.7249   2.7407   2.7735   2.7923   2.8056
     2.8129   2.8471   2.8672   2.8688   2.8724   2.8855   2.8890   2.8907
     2.9555   2.9915   3.0014   3.0142   3.0157   3.0214   3.0261   3.0542
     3.1331   3.1817   3.1930   3.2124   3.2525   3.2622   3.2656   3.2902
     3.2982   3.3019   3.3086   3.3414   3.3859   3.4048   3.4091   3.4235
     3.6591   3.6841   3.7197   6.4368   6.5021   6.5214   6.5363   6.7671
     6.7831   6.8330   6.8474   6.9033   6.9096   6.9292   6.9528   6.9826
     6.9836   7.0092   7.0357   7.0425   7.0490   7.0915   7.0988   7.1181
     7.1305   7.1494   7.1595   7.1604   7.1810   7.2335   7.2828   7.2992
     7.3023   7.3066   7.3372   7.3523   7.3635   7.4280   7.4360   7.4393
     7.4424   7.4500   7.4770   7.5294   7.5314   7.5671   7.5685   7.5729
     7.5751   7.8557   7.8675   7.8924   7.9052   8.0504   9.1647   9.5857
     9.5929   9.6804   9.7004   9.7411   9.9866  10.1178  10.1556  10.1576
    10.1660  10.1751  10.2017  10.2233  10.2264  10.2951  10.2985  10.3087
    10.3574  10.3756  10.6192  10.7251  10.7416  10.7775  10.8813  10.8953
    10.9006  10.9159  10.9185  10.9209  10.9682  10.9687  10.9969  11.0222

     occupation numbers 
     1.0000   1.0000   1.0000   1.0000   1.0000   1.0000   1.0000   1.0000
     1.0000   1.0000   1.0000   1.0000   1.0000   1.0000   1.0000   1.0000
     1.0000   1.0000   1.0000   1.0000   1.0000   1.0000   1.0000   1.0000
     1.0000   1.0000   1.0000   1.0000   1.0000   1.0000   1.0000   1.0000
     1.0000   1.0000   1.0000   1.0000   1.0000   1.0000   1.0000   1.0000
     1.0000   1.0000   1.0000   1.0000   1.0000   1.0000   1.0000   1.0000
     1.0000   1.0000   1.0000   1.0000   1.0000   1.0000   1.0000   1.0000
     1.0000   1.0000   1.0000   1.0000   1.0000   1.0000   1.0000   1.0000
     1.0000   1.0000   1.0000   1.0000   1.0000   1.0000   1.0000   1.0000
     1.0000   1.0000   1.0000   1.0000   1.0000   1.0000   1.0000   1.0000
     1.0000   1.0000   1.0000   1.0000   1.0000   1.0000   1.0000   1.0000
     1.0000   1.0000   1.0000   1.0000   1.0000   1.0000   1.0000   1.0000
     1.0000   1.0000   1.0000   1.0000   1.0000   1.0000   1.0000   1.0000
     1.0000   1.0000   1.0000   1.0000   1.0000   1.0000   1.0000   1.0000
     1.0000   1.0000   1.0000   1.0000   1.0000   1.0000   1.0000   1.0000
     1.0000   1.0000   1.0000   1.0000   1.0000   1.0000   1.0000   1.0000
     1.0000   1.0000   1.0000   1.0000   1.0000   1.0000   1.0000   1.0000
     1.0000   1.0000   1.0000   1.0000   1.0000   1.0000   1.0000   1.0000
     1.0000   1.0000   1.0000   1.0000   1.0000   1.0000   1.0000   1.0000
     1.0000   1.0000   1.0000   1.0000   1.0000   1.0000   1.0000   1.0000
     1.0000   1.0000   1.0000   1.0000   1.0000   1.0000   1.0000   1.0000
     1.0000   1.0000   1.0000   1.0000   1.0000   1.0000   1.0000   1.0000
     1.0000   1.0000   1.0000   1.0000   1.0000   1.0000   1.0000   1.0000
     1.0000   1.0000   1.0000   1.0000   1.0000   1.0000   1.0000   1.0000
     1.0000   1.0000   1.0000   1.0000   1.0000   1.0000   1.0000   1.0000
     1.0000   1.0000   1.0000   1.0000   1.0000   1.0000   1.0000   1.0000
     1.0000   1.0000   1.0000   1.0000   1.0000   1.0000   1.0000   1.0000
     1.0000   1.0000   1.0000   1.0000   1.0000   1.0000   1.0000   1.0000
     1.0000   1.0000   1.0000   1.0000   1.0000   1.0000   1.0000   1.0000
     1.0000   1.0000   1.0000   1.0000   1.0000   1.0000   1.0000   1.0000
     1.0000   1.0000   1.0000   1.0000   1.0000   1.0000   1.0000   1.0000
     1.0000   1.0000   1.0000   1.0000   1.0000   1.0000   1.0000   1.0000
     1.0000   1.0000   1.0000   1.0000   1.0000   1.0000   1.0000   1.0000
     1.0000   1.0000   1.0000   1.0000   1.0000   1.0000   1.0000   1.0000
     1.0000   1.0000   1.0000   1.0000   1.0000   1.0000   1.0000   1.0000
     1.0000   1.0000   1.0000   1.0000   1.0000   1.0000   1.0000   1.0000
     1.0000   1.0000   1.0000   1.0000   1.0000   1.0000   1.0000   1.0000
     1.0000   1.0000   1.0000   1.0000   1.0000   1.0000   1.0000   1.0000
     1.0000   1.0000   1.0000   1.0000   1.0000   1.0000   1.0000   1.0000
     1.0000   1.0000   1.0000   1.0000   1.0000   1.0000   1.0000   1.0000
     1.0000   1.0000   1.0000   1.0000   1.0000   1.0000   1.0000   1.0000
     1.0000   1.0000   1.0000   1.0000   1.0000   1.0000   1.0000   1.0000
     1.0000   1.0000   1.0000   1.0000   1.0000   1.0000   1.0000   1.0000
     1.0000   1.0000   1.0000   1.0000   1.0000   1.0000   1.0000   1.0000
     1.0000   1.0000   1.0000   1.0000   1.0000   1.0000   1.0000   1.0000
     1.0000   1.0000   1.0000   1.0000   1.0000   1.0000   1.0000   1.0000
     1.0000   1.0000   1.0000   1.0000   1.0000   1.0000   1.0000   1.0000
     1.0000   1.0000   1.0000   1.0000   1.0000   1.0000   1.0000   1.0000
     1.0000   1.0000   1.0000   1.0000   1.0000   1.0000   1.0000   1.0000
     1.0000   1.0000   1.0000   1.0000   1.0000   1.0000   1.0000   1.0000
     1.0000   1.0000   1.0000   1.0000   1.0000   1.0000   1.0000   1.0000
     1.0000   1.0000   1.0000   1.0000   1.0000   1.0000   1.0000   1.0000
     1.0000   1.0000   1.0000   1.0000   1.0000   1.0000   1.0000   0.9999
     0.9998   0.9998   0.9998   0.9992   0.9964   0.9936   0.9928   0.9892
     0.4393   0.3400   0.2171   0.0000   0.0000   0.0000   0.0000   0.0000
     0.0000   0.0000   0.0000   0.0000   0.0000   0.0000   0.0000   0.0000
     0.0000   0.0000   0.0000   0.0000   0.0000   0.0000   0.0000   0.0000
     0.0000   0.0000   0.0000   0.0000   0.0000   0.0000   0.0000   0.0000
     0.0000   0.0000   0.0000   0.0000   0.0000   0.0000   0.0000   0.0000
     0.0000   0.0000   0.0000   0.0000   0.0000   0.0000   0.0000   0.0000
     0.0000   0.0000   0.0000   0.0000   0.0000   0.0000   0.0000   0.0000
     0.0000   0.0000   0.0000   0.0000   0.0000   0.0000   0.0000   0.0000
     0.0000   0.0000   0.0000   0.0000   0.0000   0.0000   0.0000   0.0000
     0.0000   0.0000   0.0000   0.0000   0.0000   0.0000   0.0000   0.0000
     0.0000   0.0000   0.0000   0.0000   0.0000   0.0000   0.0000   0.0000

     the Fermi energy is     3.6444 ev

!    total energy              =  -36092.67266728 Ry
     total all-electron energy =  -1237501.153120 Ry
     estimated scf accuracy    <       0.00000008 Ry
     smearing contrib. (-TS)   =      -0.01611230 Ry
     internal energy E=F+TS    =  -36092.65655498 Ry

     The total energy is F=E-TS. E is the sum of the following terms:
     one-electron contribution =   -6799.61902770 Ry
     hartree contribution      =    3787.80546126 Ry
     xc contribution           =   -2571.09382727 Ry
     ewald contribution        =   -5601.41570091 Ry
     one-center paw contrib.   =  -24908.33346035 Ry
      -> PAW hartree energy AE =      95.86805512 Ry
      -> PAW hartree energy PS =     -96.10458696 Ry
      -> PAW xc energy AE      =    -798.42638782 Ry
      -> PAW xc energy PS      =      33.30681022 Ry
      -> total E_H with PAW    =    3787.56892942 Ry
      -> total E_XC with PAW   =   -3336.21340487 Ry

     convergence has been achieved in  18 iterations


     -----------------------------------------------
     Non-local corr. energy    =      26.19232699 Ry
     -----------------------------------------------


     Forces acting on atoms (cartesian axes, Ry/au):

     atom    1 type  1   force =     0.00006204    0.00010980    0.00000370
     atom    2 type  1   force =    -0.00293831    0.00516931   -0.00015329
     atom    3 type  1   force =     0.00018131   -0.00020260   -0.00017343
     atom    4 type  1   force =     0.00306984   -0.00520083   -0.00005972
     atom    5 type  1   force =    -0.00004721    0.00030024   -0.00000379
     atom    6 type  1   force =     0.00595353    0.00004762    0.00014214
     atom    7 type  1   force =    -0.00026255    0.00005697    0.00017725
     atom    8 type  1   force =     0.00296292    0.00513111   -0.00000012
     atom    9 type  1   force =    -0.00015176   -0.00026533    0.00000429
     atom   10 type  1   force =    -0.00003444    0.00005756   -0.00188522
     atom   11 type  1   force =    -0.00003476    0.00004375    0.00171768
     atom   12 type  1   force =    -0.00603097    0.00006176    0.00005278
     atom   13 type  1   force =     0.00028666    0.00010987    0.00000214
     atom   14 type  1   force =     0.00007009   -0.00000645    0.00188190
     atom   15 type  1   force =     0.00005845   -0.00001148   -0.00172292
     atom   16 type  1   force =    -0.00305684   -0.00528754    0.00000204
     atom   17 type  1   force =     0.00017612    0.00030344   -0.00000051
     atom   18 type  2   force =     0.00000005   -0.00006001   -0.00054105
     atom   19 type  2   force =    -0.00025632    0.00570826   -0.00077947
     atom   20 type  2   force =    -0.00009774    0.00000115   -0.00069423
     atom   21 type  2   force =     0.00517538   -0.00327786   -0.00084185
     atom   22 type  2   force =    -0.00084461   -0.00041098   -0.00030377
     atom   23 type  2   force =     0.00143092    0.00079291    0.00010802
     atom   24 type  2   force =     0.00009284    0.00000562   -0.00201856
     atom   25 type  2   force =    -0.00058467    0.00041060    0.00008424
     atom   26 type  2   force =     0.00012941    0.00007794   -0.00059440
     atom   27 type  2   force =    -0.00548457   -0.00317761   -0.00074167
     atom   28 type  2   force =     0.00006963    0.00018325   -0.00206938
     atom   29 type  2   force =     0.00005792   -0.00061661    0.00000551
     atom   30 type  2   force =    -0.00003803    0.00001732   -0.00192409
     atom   31 type  2   force =     0.00063074    0.00043126    0.00018080
     atom   32 type  2   force =     0.00004624    0.00091250   -0.00021836
     atom   33 type  2   force =     0.00005542   -0.00151092    0.00022646
     atom   34 type  2   force =     0.00081822   -0.00038415   -0.00014400
     atom   35 type  2   force =    -0.00133313    0.00070981    0.00021943
     atom   36 type  2   force =     0.00503555    0.00266520    0.00073949
     atom   37 type  2   force =    -0.00008484    0.00001396    0.00054021
     atom   38 type  2   force =     0.00064578   -0.00035509   -0.00012223
     atom   39 type  2   force =    -0.00002642    0.00005014    0.00204948
     atom   40 type  2   force =     0.00001973    0.00074249   -0.00016090
     atom   41 type  2   force =     0.00002826   -0.00006876    0.00189766
     atom   42 type  2   force =    -0.00545014    0.00287253    0.00085231
     atom   43 type  2   force =     0.00006589   -0.00004016    0.00071251
     atom   44 type  2   force =    -0.00003884   -0.00633066    0.00073437
     atom   45 type  2   force =    -0.00000532    0.00014033    0.00064463
     atom   46 type  2   force =    -0.00132749   -0.00072100   -0.00023635
     atom   47 type  2   force =     0.00078448    0.00046910    0.00023610
     atom   48 type  2   force =     0.00006862    0.00165254   -0.00012025
     atom   49 type  2   force =     0.00008947   -0.00090870    0.00031772
     atom   50 type  2   force =    -0.00052088   -0.00024686   -0.00003996
     atom   51 type  2   force =     0.00012528    0.00013387    0.00211406
     atom   52 type  2   force =     0.00132378   -0.00073328   -0.00022746
     atom   53 type  2   force =    -0.00074722    0.00050944    0.00015128
     atom   54 type  2   force =    -0.00011754   -0.00007476   -0.00002122
     The non-local contrib.  to forces
     atom    1 type  1   force =    -0.00046509   -0.00077965   -0.00002584
     atom    2 type  1   force =    -0.00540368    0.00887896    0.00198056
     atom    3 type  1   force =     0.00066954   -0.00101149    0.00218912
     atom    4 type  1   force =     0.00426683   -0.00851058    0.00061161
     atom    5 type  1   force =    -0.00153271    0.00107217    0.00009831
     atom    6 type  1   force =     0.01041780   -0.00025737   -0.00196815
     atom    7 type  1   force =    -0.00118831    0.00006435   -0.00218265
     atom    8 type  1   force =     0.00532719    0.00925894   -0.00001727
     atom    9 type  1   force =    -0.00014922   -0.00023674   -0.00002508
     atom   10 type  1   force =     0.00117064   -0.00009603   -0.00333800
     atom   11 type  1   force =     0.00097285    0.00008215    0.01061290
     atom   12 type  1   force =    -0.00947796   -0.00056044   -0.00060381
     atom   13 type  1   force =     0.00169529   -0.00081107   -0.00006267
[...]
     atom   45 type  2   force =    -0.00012715    0.00003618    0.00508517
     atom   46 type  2   force =     0.00036226    0.00005267    0.00553758
     atom   47 type  2   force =    -0.00017858   -0.00021438    0.00509102
     atom   48 type  2   force =     0.00016524   -0.00020499    0.00558405
     atom   49 type  2   force =    -0.00010336   -0.00007535    0.00513211
     atom   50 type  2   force =    -0.00004930   -0.00007095    0.00541656
     atom   51 type  2   force =    -0.00001181    0.00017082    0.00510541
     atom   52 type  2   force =    -0.00030478    0.00010797    0.00554738
     atom   53 type  2   force =    -0.00003104   -0.00020829    0.00507826
     atom   54 type  2   force =    -0.00008102   -0.00013990   -0.00000234
     The Hubbard contrib.    to forces
     atom    1 type  1   force =     0.00000000    0.00000000    0.00000000
     atom    2 type  1   force =     0.00000000    0.00000000    0.00000000
     atom    3 type  1   force =     0.00000000    0.00000000    0.00000000
     atom    4 type  1   force =     0.00000000    0.00000000    0.00000000
     atom    5 type  1   force =     0.00000000    0.00000000    0.00000000
     atom    6 type  1   force =     0.00000000    0.00000000    0.00000000
     atom    7 type  1   force =     0.00000000    0.00000000    0.00000000
     atom    8 type  1   force =     0.00000000    0.00000000    0.00000000
     atom    9 type  1   force =     0.00000000    0.00000000    0.00000000
     atom   10 type  1   force =     0.00000000    0.00000000    0.00000000
     atom   11 type  1   force =     0.00000000    0.00000000    0.00000000
     atom   12 type  1   force =     0.00000000    0.00000000    0.00000000
     atom   13 type  1   force =     0.00000000    0.00000000    0.00000000
     atom   14 type  1   force =     0.00000000    0.00000000    0.00000000
     atom   15 type  1   force =     0.00000000    0.00000000    0.00000000
     atom   16 type  1   force =     0.00000000    0.00000000    0.00000000
     atom   17 type  1   force =     0.00000000    0.00000000    0.00000000
     atom   18 type  2   force =     0.00000000    0.00000000    0.00000000
     atom   19 type  2   force =     0.00000000    0.00000000    0.00000000
     atom   20 type  2   force =     0.00000000    0.00000000    0.00000000
     atom   21 type  2   force =     0.00000000    0.00000000    0.00000000
     atom   22 type  2   force =     0.00000000    0.00000000    0.00000000
     atom   23 type  2   force =     0.00000000    0.00000000    0.00000000
     atom   24 type  2   force =     0.00000000    0.00000000    0.00000000
     atom   25 type  2   force =     0.00000000    0.00000000    0.00000000
     atom   26 type  2   force =     0.00000000    0.00000000    0.00000000
     atom   27 type  2   force =     0.00000000    0.00000000    0.00000000
     atom   28 type  2   force =     0.00000000    0.00000000    0.00000000
     atom   29 type  2   force =     0.00000000    0.00000000    0.00000000
     atom   30 type  2   force =     0.00000000    0.00000000    0.00000000
     atom   31 type  2   force =     0.00000000    0.00000000    0.00000000
     atom   32 type  2   force =     0.00000000    0.00000000    0.00000000
     atom   33 type  2   force =     0.00000000    0.00000000    0.00000000
     atom   34 type  2   force =     0.00000000    0.00000000    0.00000000
     atom   35 type  2   force =     0.00000000    0.00000000    0.00000000
     atom   36 type  2   force =     0.00000000    0.00000000    0.00000000
     atom   37 type  2   force =     0.00000000    0.00000000    0.00000000
     atom   38 type  2   force =     0.00000000    0.00000000    0.00000000
     atom   39 type  2   force =     0.00000000    0.00000000    0.00000000
     atom   40 type  2   force =     0.00000000    0.00000000    0.00000000
     atom   41 type  2   force =     0.00000000    0.00000000    0.00000000
     atom   42 type  2   force =     0.00000000    0.00000000    0.00000000
     atom   43 type  2   force =     0.00000000    0.00000000    0.00000000
     atom   44 type  2   force =     0.00000000    0.00000000    0.00000000
     atom   45 type  2   force =     0.00000000    0.00000000    0.00000000
     atom   46 type  2   force =     0.00000000    0.00000000    0.00000000
     atom   47 type  2   force =     0.00000000    0.00000000    0.00000000
     atom   48 type  2   force =     0.00000000    0.00000000    0.00000000
     atom   49 type  2   force =     0.00000000    0.00000000    0.00000000
     atom   50 type  2   force =     0.00000000    0.00000000    0.00000000
     atom   51 type  2   force =     0.00000000    0.00000000    0.00000000
     atom   52 type  2   force =     0.00000000    0.00000000    0.00000000
     atom   53 type  2   force =     0.00000000    0.00000000    0.00000000
     atom   54 type  2   force =     0.00000000    0.00000000    0.00000000
     The SCF correction term to forces
     atom    1 type  1   force =    -0.00000270   -0.00000385    0.00000101
     atom    2 type  1   force =    -0.00000692   -0.00000030   -0.00000439
     atom    3 type  1   force =     0.00000516   -0.00001502    0.00000212
     atom    4 type  1   force =    -0.00000593    0.00000066   -0.00000259
     atom    5 type  1   force =    -0.00000983    0.00001446    0.00000069
     atom    6 type  1   force =     0.00000345   -0.00000087   -0.00000217
     atom    7 type  1   force =    -0.00001463   -0.00000199    0.00000139
     atom    8 type  1   force =     0.00000738    0.00000368   -0.00000574
     atom    9 type  1   force =    -0.00000614   -0.00001243    0.00000267
     atom   10 type  1   force =     0.00000506    0.00000620   -0.00000453
     atom   11 type  1   force =     0.00000174    0.00000308   -0.00000920
     atom   12 type  1   force =     0.00000631   -0.00000782    0.00000578
     atom   13 type  1   force =     0.00001756   -0.00000246   -0.00000086
     atom   14 type  1   force =     0.00000042    0.00000198    0.00000293
     atom   15 type  1   force =     0.00000083    0.00000092    0.00001054
     atom   16 type  1   force =     0.00000105    0.00001029    0.00000464
     atom   17 type  1   force =     0.00000817    0.00001691   -0.00000117
     atom   18 type  2   force =    -0.00000443    0.00001089    0.00000380
     atom   19 type  2   force =    -0.00000430   -0.00000539    0.00000667
     atom   20 type  2   force =     0.00000645   -0.00001261    0.00000611
     atom   21 type  2   force =    -0.00000776   -0.00000348    0.00000414
     atom   22 type  2   force =     0.00000052    0.00000365   -0.00000806
     atom   23 type  2   force =    -0.00000395   -0.00000132    0.00000522
     atom   24 type  2   force =    -0.00000434    0.00000337   -0.00000926
     atom   25 type  2   force =    -0.00000048    0.00000085    0.00001064
     atom   26 type  2   force =    -0.00000815   -0.00000901    0.00000913
     atom   27 type  2   force =     0.00000511   -0.00000028    0.00000113
     atom   28 type  2   force =     0.00000016    0.00000033   -0.00000471
     atom   29 type  2   force =     0.00000168    0.00000188    0.00000780
     atom   30 type  2   force =     0.00000920    0.00000648   -0.00001591
     atom   31 type  2   force =     0.00000576    0.00000207    0.00001637
     atom   32 type  2   force =     0.00000290   -0.00000543   -0.00001034
     atom   33 type  2   force =     0.00000285   -0.00000131    0.00000684
     atom   34 type  2   force =    -0.00000066    0.00000639   -0.00000989
     atom   35 type  2   force =     0.00000225    0.00000377    0.00000657
     atom   36 type  2   force =    -0.00000904   -0.00000791   -0.00000625
     atom   37 type  2   force =     0.00000762    0.00000436   -0.00000605
     atom   38 type  2   force =    -0.00000362   -0.00000663   -0.00001244
     atom   39 type  2   force =     0.00000393   -0.00000504    0.00001094
     atom   40 type  2   force =    -0.00000509    0.00000577   -0.00001316
     atom   41 type  2   force =    -0.00000066    0.00000608    0.00001112
     atom   42 type  2   force =     0.00000129   -0.00000679   -0.00000625
     atom   43 type  2   force =    -0.00001031    0.00000457   -0.00000622
     atom   44 type  2   force =    -0.00000319   -0.00000064   -0.00000375
     atom   45 type  2   force =    -0.00000107   -0.00001243   -0.00000477
     atom   46 type  2   force =    -0.00000284    0.00000595   -0.00000517
     atom   47 type  2   force =    -0.00000349    0.00000007    0.00001041
     atom   48 type  2   force =     0.00000717   -0.00000153   -0.00000586
     atom   49 type  2   force =     0.00000299    0.00000396    0.00000852
     atom   50 type  2   force =     0.00000469   -0.00000003   -0.00001432
     atom   51 type  2   force =    -0.00000303   -0.00000373    0.00001172
     atom   52 type  2   force =     0.00000641    0.00001297   -0.00000599
     atom   53 type  2   force =     0.00000456    0.00000210    0.00001015
     atom   54 type  2   force =    -0.00001151   -0.00001695   -0.00000015

     Total force =     0.002732     Total SCF correction =     0.000089


     Computing stress (Cartesian axis) and pressure



     -----------------------------------------------
     Non-local corr. energy    =      26.19276552 Ry
     -----------------------------------------------

          total   stress  (Ry/bohr**3)                   (kbar)     P=       -5.17
  -0.00003540   0.00000016  -0.00000033           -5.21        0.02       -0.05
   0.00000016  -0.00003514   0.00000023            0.02       -5.17        0.03
  -0.00000033   0.00000023  -0.00003489           -0.05        0.03       -5.13

     kinetic stress (kbar)  14857.94     -0.04     -0.01
                               -0.04  14857.94      0.03
                               -0.01      0.03  14868.64

     local   stress (kbar)  -7462.99     -5.70      5.13
                               -5.70  -7468.37     -2.39
                                5.13     -2.39   1383.20

     nonloc. stress (kbar)   -885.89     -0.02     -0.01
                               -0.02   -885.89      0.03
                               -0.01      0.03   -890.73

     hartree stress (kbar)  12114.58      2.14     -1.92
                                2.14  12116.60      0.89
                               -1.92      0.89   8118.97

     exc-cor stress (kbar)   7013.94      0.01     -0.01
                                0.01   7013.95      0.00
                               -0.01      0.00   7012.98

     corecor stress (kbar) -11401.85     -0.00      0.00
                               -0.00 -11401.85     -0.00
                                0.00     -0.00 -11401.80

     ewald   stress (kbar) -14325.24      3.64     -3.23
                                3.64 -14321.85      1.47
                               -3.23      1.47 -19181.95

     hubbard stress (kbar)      0.00      0.00      0.00
                                0.00      0.00      0.00
                                0.00      0.00      0.00

     DFT-D   stress (kbar)      0.00      0.00      0.00
                                0.00      0.00      0.00
                                0.00      0.00      0.00

     XDM     stress (kbar)      0.00      0.00      0.00
                                0.00      0.00      0.00
                                0.00      0.00      0.00

     dft-nl  stress (kbar)     84.31     -0.00      0.00
                               -0.00     84.31     -0.00
                                0.00     -0.00     85.55

     TS-vdW  stress (kbar)      0.00      0.00      0.00
                                0.00      0.00      0.00
                                0.00      0.00      0.00

     MDB     stress (kbar)      0.00      0.00      0.00
                                0.00      0.00      0.00
                                0.00      0.00      0.00

     3D-RISM stress (kbar)      0.00      0.00      0.00
                                0.00      0.00      0.00
                                0.00      0.00      0.00

     Energy error            =      5.4E-05 Ry
     Gradient error          =      7.0E-04 Ry/Bohr

     bfgs converged in  18 scf cycles and  17 bfgs steps
     (criteria: energy <  1.0E-04 Ry, force <  1.0E-03 Ry/Bohr)

     End of BFGS Geometry Optimization

     Final energy             =  -36092.6803768439 Ry

     File ./PbI2.bfgs deleted, as requested
Begin final coordinates

ATOMIC_POSITIONS (angstrom)
Pb            2.3575625146        4.0830144292        7.3778047015
Pb           -0.0154674025        8.1910502751       14.7502088262
Pb            0.0019486837        8.1583470666        7.3713466436
Pb           -2.3342181474       12.2088984573       14.7554049723
Pb           -2.3542390285       12.2430582962        7.3763037242
Pb            7.1018860351        4.0817471701       14.7607364027
Pb            7.0647345606        4.0807269244        7.3840793776
Pb            4.7277926272        8.1885387045       14.7557364889
Pb            4.7093610865        8.1563802340        7.3778554553
Pb            2.3551363603       12.2417368699       14.7174393746
Pb            2.3538694002       12.2403880967        7.3741052295
Pb           11.7405452646        4.0829701844       14.7548868590
Pb           11.7802674815        4.0825695416        7.3789726269
Pb            9.4246424574        8.1603057539       14.7930461250
Pb            9.4239008606        8.1584819484        7.3812123412
Pb            7.0466500875       12.2042245178       14.7550580056
Pb            7.0691740429       12.2437419998        7.3777211469
I             2.3594208400        1.3596671582        5.4985809777
I             2.3517473948        1.3037153392       12.8156864698
I            -0.0051637932        5.4382039560        5.4942893536
I            -0.0431360067        5.4619196620       12.8133866587
I            -2.3755535252        9.5075511381        5.4996129977
I            -2.3408410550        9.5345657413       12.8662221156
I             7.0572172252        1.3738198585        5.4690571719
I             7.0708259481        1.3656632321       12.8766556204
I             4.7200661482        5.4383782973        5.4976973735
I             4.7489151187        5.4606865756       12.8195081808
I             2.3604356074        9.5058418691        5.4672250562
I             2.3583640689        9.5295721737       12.8739010743
I            11.7869863603        1.3699094665        5.4718443346
I            11.7710794810        1.3617540682       12.8770726502
I             9.4184505537        5.4522648134        5.5041600039
I             9.4175322619        5.4272477802       12.8697355978
I             7.0805346961        9.5078432004        5.5053045648
I             7.0535233419        9.5244974907       12.8690531745
I            -0.0456700652        2.6888648562        1.9389001026
I            -0.0020190571        2.7230213587        9.2568061565
I            -2.3523472470        6.8061317081        1.8785519157
I            -2.3386202428        6.7984558617        9.2863231791
I            -4.7057190036       10.8746699412        1.8781026988
I            -4.7065921967       10.8922964168        9.2834501416
I             4.7518124395        2.6934865577        1.9415461235
I             4.7126876821        2.7142030278        9.2610937894
I             2.3549780731        6.8441175249        1.9364308228
I             2.3499269936        6.8067354696        9.2578777128
I            -0.0083092830       10.8693510908        1.8853258326
I             0.0128850133       10.8826372729        9.2510200541
I             9.4281799420        2.7398093540        1.8888939074
I             9.4219472370        2.6963634816        9.2556829195
I             7.0746635998        6.8068940319        1.8814335284
I             7.0527922577        6.7968289650        9.2883670480
I             4.7224049765       10.8707482816        1.8861913013
I             4.6940100864       10.8857983566        9.2501547167
I             2.3502852354        4.0708056856       14.7551931552
End final coordinates



     Writing all to output data dir ./PbI2.save/
 
     init_run     :      9.82s CPU     10.35s WALL (       1 calls)
     electrons    :  20323.22s CPU  20920.57s WALL (      18 calls)
     update_pot   :     26.40s CPU     26.73s WALL (      17 calls)
     forces       :    108.89s CPU    111.56s WALL (      18 calls)
     stress       :   1337.68s CPU   1350.13s WALL (      18 calls)

     Called by init_run:
     wfcinit      :      7.09s CPU      7.35s WALL (       1 calls)
     wfcinit:atom :      0.06s CPU      0.07s WALL (       2 calls)
     wfcinit:wfcr :      6.65s CPU      6.79s WALL (       2 calls)
     potinit      :      1.00s CPU      1.17s WALL (       1 calls)
     hinit0       :      0.60s CPU      0.65s WALL (       1 calls)

     Called by electrons:
     c_bands      :  19384.51s CPU  19960.38s WALL (     276 calls)
     sum_band     :    675.67s CPU    686.74s WALL (     276 calls)
     v_of_rho     :    159.78s CPU    161.82s WALL (     281 calls)
     v_h          :      1.68s CPU      1.71s WALL (     281 calls)
     v_xc         :    177.78s CPU    180.57s WALL (     317 calls)
     newd         :     44.67s CPU     45.51s WALL (     281 calls)
     PAW_pot      :     47.90s CPU     48.68s WALL (     298 calls)
     mix_rho      :      7.14s CPU      7.69s WALL (     276 calls)
     vdW_kernel   :      0.25s CPU      0.25s WALL (       1 calls)

     Called by c_bands:
     init_us_2    :     40.09s CPU     40.77s WALL (    1212 calls)
     init_us_2:cp :     40.07s CPU     40.76s WALL (    1212 calls)
     cegterg      :  18938.09s CPU  19357.24s WALL (     552 calls)

     Called by sum_band:
     sum_band:wei :      0.51s CPU      0.54s WALL (     276 calls)
     sum_band:loo :    607.43s CPU    615.06s WALL (     276 calls)
     sum_band:buf :     15.52s CPU     15.77s WALL (     552 calls)
     sum_band:ini :     22.83s CPU     23.14s WALL (     552 calls)
     sum_band:cal :    249.32s CPU    251.54s WALL (     586 calls)
     sum_band:bec :      3.53s CPU      3.70s WALL (     586 calls)
     addusdens    :     60.64s CPU     62.10s WALL (     276 calls)
     addusd:skk   :      2.16s CPU      2.22s WALL (     552 calls)
     addusd:dgemm :     40.11s CPU     41.25s WALL (     552 calls)
     addusd:qvan2 :     16.93s CPU     17.15s WALL (     552 calls)

     Called by *egterg:
     cdiaghg      :  12148.34s CPU  12310.26s WALL (    6492 calls)
     cegterg:over :   1335.95s CPU   1363.41s WALL (    6000 calls)
     cegterg:upda :    808.26s CPU    839.76s WALL (    6000 calls)
     cegterg:last :    352.50s CPU    355.73s WALL (     566 calls)
     h_psi        :   3175.91s CPU   3243.91s WALL (    6554 calls)
     s_psi        :    662.21s CPU    668.74s WALL (    6554 calls)
     g_psi        :      4.67s CPU      4.74s WALL (    6000 calls)

     Called by h_psi:
     h_psi:calbec :    724.31s CPU    731.27s WALL (    6554 calls)
     vloc_psi     :   1769.02s CPU   1791.78s WALL (    6554 calls)
     add_vuspsi   :    665.72s CPU    672.55s WALL (    6554 calls)

     General routines
     calbec       :   1071.62s CPU   1081.81s WALL (    7320 calls)
     fft          :     84.49s CPU     85.61s WALL (   20739 calls)
     ffts         :      1.70s CPU      1.74s WALL (     557 calls)
     fftw         :   1945.78s CPU   1970.24s WALL ( 1855262 calls)
     interpolate  :      2.24s CPU      2.29s WALL (     281 calls)
 
     Parallel routines

     PAW routines
     PAW_pot      :     47.90s CPU     48.68s WALL (     298 calls)
 
     PWSCF        :      6h 3m CPU      6h14m WALL

 
   This run was terminated on:  14:28: 4  12Feb2024            

=------------------------------------------------------------------------------=
   JOB DONE.
=------------------------------------------------------------------------------=
