
     Program PWSCF v.7.1 starts on 18Feb2024 at 12: 4:35 

     This program is part of the open-source Quantum ESPRESSO suite
     for quantum simulation of materials; please cite
         "P. Giannozzi et al., J. Phys.:Condens. Matter 21 395502 (2009);
         "P. Giannozzi et al., J. Phys.:Condens. Matter 29 465901 (2017);
         "P. Giannozzi et al., J. Chem. Phys. 152 154105 (2020);
          URL http://www.quantum-espresso.org", 
     in publications or presentations arising from this work. More details at
     http://www.quantum-espresso.org/quote

     Parallel version (MPI & OpenMP), running on     128 processor cores
     Number of MPI processes:               128
     Threads/MPI process:                     1

     MPI processes distributed on     1 nodes
     1951399 MiB available memory on the printing compute node when the environment starts
 
     Reading input from espresso.pwi
Warning: card &CELL ignored
Warning: card    CELL_DYNAMICS    = 'BFGS' ignored
Warning: card / ignored

     Current dimensions of program PWSCF are:
     Max number of different atomic species (ntypx) = 10
     Max number of k-points (npk) =  40000
     Max angular momentum in pseudopotentials (lmaxx) =  4
     file Pb.pbe-dn-kjpaw_psl.1.0.0.UPF: wavefunction(s)  6S 6P 5D renormalized
     file I.pbe-dn-kjpaw_psl.1.0.0.UPF: wavefunction(s)  5S 5P renormalized

     **************************************************************************
     Initializing libbeef V0.1.2 with the BEEF-vdW functional.
     Citation: Wellendorff et al., PRB 85, 235149 (2012).
     **************************************************************************


     IMPORTANT: XC functional enforced from input :
     Exchange-correlation= BEEF-VDW
                           (   1   4  43  14   2   0   0)
     Any further DFT definition will be discarded
     Please, verify this is what you really want

 
     K-points division:     npool     =       2
     R & G space division:  proc/nbgrp/npool/nimage =      64
     Subspace diagonalization in iterative solution of the eigenvalue problem:
     a serial algorithm will be used

 
     Parallelization info
     --------------------
     sticks:   dense  smooth     PW     G-vecs:    dense   smooth      PW
     Min         268     215     55                29758    21295    2791
     Max         269     216     56                29767    21298    2796
     Sum       17215   13777   3559              1904969  1362953  178821
 
     Using Slab Decomposition
 


     bravais-lattice index     =            4
     lattice parameter (alat)  =      26.7090  a.u.
     unit-cell volume          =   17226.5091 (a.u.)^3
     number of atoms/cell      =           54
     number of atomic types    =            2
     number of electrons       =       866.00
     number of Kohn-Sham states=          520
     kinetic-energy cutoff     =      70.0000  Ry
     charge density cutoff     =     350.0000  Ry
     scf convergence threshold =      1.0E-07
     mixing beta               =       0.7000
     number of iterations used =            8  plain     mixing
     Exchange-correlation= BEEF-VDW
                           (   1   4  43  14   2   0   0)

     celldm(1)=  26.709025  celldm(2)=   0.000000  celldm(3)=   1.043981
     celldm(4)=   0.000000  celldm(5)=   0.000000  celldm(6)=   0.000000

     crystal axes: (cart. coord. in units of alat)
               a(1) = (   1.000000   0.000000   0.000000 )  
               a(2) = (  -0.500000   0.866025   0.000000 )  
               a(3) = (   0.000000   0.000000   1.043981 )  

     reciprocal axes: (cart. coord. in units 2 pi/alat)
               b(1) = (  1.000000  0.577350 -0.000000 )  
               b(2) = (  0.000000  1.154701  0.000000 )  
               b(3) = (  0.000000 -0.000000  0.957872 )  


     PseudoPot. # 1 for Pb read from file:
     //group///packages/espresso/pseudo/psl_1.0.0/pslibrary.1.0.0/pbe/PSEUDOPOTENTIALS/Pb.pbe-dn-kjpaw_psl.1.0.0.UPF
     MD5 check sum: 39ab5b8a6bbd56b7735ad9f188aac93a
     Pseudo is Projector augmented-wave + core cor, Zval = 14.0
     Generated using 'atomic' code by A. Dal Corso  v.7.1
     Shape of augmentation charge: PSQ
     Using radial grid of 1281 points,  6 beta functions with: 
                l(1) =   0
                l(2) =   0
                l(3) =   1
                l(4) =   1
                l(5) =   2
                l(6) =   2
     Q(r) pseudized with 0 coefficients 


     PseudoPot. # 2 for I  read from file:
     //group///packages/espresso/pseudo/psl_1.0.0/pslibrary.1.0.0/pbe/PSEUDOPOTENTIALS/I.pbe-dn-kjpaw_psl.1.0.0.UPF
     MD5 check sum: bfa8781bc1224d19af3f3980e3fab11e
     Pseudo is Projector augmented-wave + core cor, Zval = 17.0
     Generated using 'atomic' code by A. Dal Corso  v.7.1
     Shape of augmentation charge: PSQ
     Using radial grid of 1247 points,  6 beta functions with: 
                l(1) =   0
                l(2) =   0
                l(3) =   1
                l(4) =   1
                l(5) =   2
                l(6) =   2
     Q(r) pseudized with 0 coefficients 


     atomic species   valence    mass     pseudopotential
        Pb            14.00   207.20000     Pb( 1.00)
        I             17.00   126.90447     I ( 1.00)

     No symmetry found


                                    s                        frac. trans.

      isym =  1     identity                                     

 cryst.   s( 1) = (     1          0          0      )
                  (     0          1          0      )
                  (     0          0          1      )

 cart.    s( 1) = (  1.0000000  0.0000000  0.0000000 )
                  (  0.0000000  1.0000000  0.0000000 )
                  (  0.0000000  0.0000000  1.0000000 )


     point group C_1 (1)    
     there are  1 classes
     the character table:

       E    
A      1.00

     the symmetry operations in each class and the name of the first element:

     E        1
          identity                                               

   Cartesian axes

     site n.     atom                  positions (alat units)
         1           Pb  tau(   1) = (   0.1666712   0.2886557   0.5219862  )
         2           Pb  tau(   2) = (   0.0000102   0.5773235   1.0439712  )
         3           Pb  tau(   3) = (   0.0000034   0.5773295   0.5219807  )
         4           Pb  tau(   4) = (  -0.1666576   0.8659973   1.0439657  )
         5           Pb  tau(   5) = (  -0.1666644   0.8660033   0.5219752  )
         6           Pb  tau(   6) = (   0.5000113   0.2886484   1.0439810  )
         7           Pb  tau(   7) = (   0.5000045   0.2886544   0.5219905  )
         8           Pb  tau(   8) = (   0.3333436   0.5773222   1.0439755  )
         9           Pb  tau(   9) = (   0.3333367   0.5773282   0.5219850  )
        10           Pb  tau(  10) = (   0.1666758   0.8659960   1.0439700  )
        11           Pb  tau(  11) = (   0.1666690   0.8660020   0.5219795  )
        12           Pb  tau(  12) = (   0.8333447   0.2886471   1.0439853  )
        13           Pb  tau(  13) = (   0.8333379   0.2886531   0.5219949  )
        14           Pb  tau(  14) = (   0.6666769   0.5773209   1.0439798  )
        15           Pb  tau(  15) = (   0.6666701   0.5773269   0.5219894  )
        16           Pb  tau(  16) = (   0.5000091   0.8659947   1.0439743  )
        17           Pb  tau(  17) = (   0.5000023   0.8660007   0.5219839  )
        18           I   tau(  18) = (   0.1666738   0.0962066   0.3879099  )
        19           I   tau(  19) = (   0.1666806   0.0962006   0.9099004  )
        20           I   tau(  20) = (   0.0000060   0.3848804   0.3879044  )
        21           I   tau(  21) = (   0.0000129   0.3848744   0.9098949  )
        22           I   tau(  22) = (  -0.1666617   0.6735542   0.3878990  )
        23           I   tau(  23) = (  -0.1666549   0.6735482   0.9098894  )
        24           I   tau(  24) = (   0.5000071   0.0962053   0.3879143  )
        25           I   tau(  25) = (   0.5000140   0.0961993   0.9099047  )
        26           I   tau(  26) = (   0.3333394   0.3848792   0.3879088  )
        27           I   tau(  27) = (   0.3333462   0.3848731   0.9098993  )
        28           I   tau(  28) = (   0.1666716   0.6735530   0.3879033  )
        29           I   tau(  29) = (   0.1666784   0.6735469   0.9098938  )
        30           I   tau(  30) = (   0.8333405   0.0962041   0.3879186  )
        31           I   tau(  31) = (   0.8333473   0.0961980   0.9099091  )
        32           I   tau(  32) = (   0.6666727   0.3848779   0.3879131  )
        33           I   tau(  33) = (   0.6666795   0.3848718   0.9099036  )
        34           I   tau(  34) = (   0.5000049   0.6735517   0.3879076  )
        35           I   tau(  35) = (   0.5000117   0.6735457   0.9098981  )
        36           I   tau(  36) = (  -0.0000023   0.1924396   0.1340740  )
        37           I   tau(  37) = (   0.0000045   0.1924336   0.6560644  )
        38           I   tau(  38) = (  -0.1666701   0.4811134   0.1340685  )
        39           I   tau(  39) = (  -0.1666632   0.4811074   0.6560589  )
        40           I   tau(  40) = (  -0.3333378   0.7697873   0.1340630  )
        41           I   tau(  41) = (  -0.3333310   0.7697812   0.6560534  )
        42           I   tau(  42) = (   0.3333311   0.1924384   0.1340783  )
        43           I   tau(  43) = (   0.3333379   0.1924323   0.6560688  )
        44           I   tau(  44) = (   0.1666633   0.4811122   0.1340728  )
        45           I   tau(  45) = (   0.1666701   0.4811061   0.6560633  )
        46           I   tau(  46) = (  -0.0000045   0.7697860   0.1340673  )
        47           I   tau(  47) = (   0.0000023   0.7697799   0.6560578  )
        48           I   tau(  48) = (   0.6666644   0.1924371   0.1340827  )
        49           I   tau(  49) = (   0.6666712   0.1924310   0.6560731  )
        50           I   tau(  50) = (   0.4999966   0.4811109   0.1340772  )
        51           I   tau(  51) = (   0.5000034   0.4811049   0.6560676  )
        52           I   tau(  52) = (   0.3333288   0.7697847   0.1340717  )
        53           I   tau(  53) = (   0.3333356   0.7697787   0.6560621  )
        54           I   tau(  54) = (   0.1666780   0.2886497   1.0439767  )

   Crystallographic axes

     site n.     atom                  positions (cryst. coord.)
         1           Pb  tau(   1) = (  0.3333266  0.3333109  0.4999959  )
         2           Pb  tau(   2) = (  0.3333281  0.6666357  0.9999906  )
         3           Pb  tau(   3) = (  0.3333248  0.6666427  0.4999906  )
         4           Pb  tau(   4) = (  0.3333262  0.9999675  0.9999854  )
         5           Pb  tau(   5) = (  0.3333229  0.9999745  0.4999854  )
         6           Pb  tau(   6) = (  0.6666626  0.3333025  1.0000001  )
         7           Pb  tau(   7) = (  0.6666592  0.3333094  0.5000001  )
         8           Pb  tau(   8) = (  0.6666607  0.6666343  0.9999948  )
         9           Pb  tau(   9) = (  0.6666573  0.6666412  0.4999948  )
        10           Pb  tau(  10) = (  0.6666588  0.9999661  0.9999895  )
        11           Pb  tau(  11) = (  0.6666555  0.9999730  0.4999895  )
        12           Pb  tau(  12) = (  0.9999951  0.3333010  1.0000042  )
        13           Pb  tau(  13) = (  0.9999918  0.3333079  0.5000042  )
        14           Pb  tau(  14) = (  0.9999933  0.6666328  0.9999990  )
        15           Pb  tau(  15) = (  0.9999899  0.6666397  0.4999990  )
        16           Pb  tau(  16) = (  0.9999914  0.9999646  0.9999937  )
        17           Pb  tau(  17) = (  0.9999881  0.9999715  0.4999937  )
        18           I   tau(  18) = (  0.2222187  0.1110899  0.3715680  )
        19           I   tau(  19) = (  0.2222221  0.1110829  0.8715680  )
        20           I   tau(  20) = (  0.2222169  0.4444217  0.3715628  )
        21           I   tau(  21) = (  0.2222202  0.4444147  0.8715628  )
        22           I   tau(  22) = (  0.2222150  0.7777534  0.3715575  )
        23           I   tau(  23) = (  0.2222183  0.7777465  0.8715575  )
        24           I   tau(  24) = (  0.5555513  0.1110884  0.3715722  )
        25           I   tau(  25) = (  0.5555547  0.1110814  0.8715722  )
        26           I   tau(  26) = (  0.5555495  0.4444202  0.3715669  )
        27           I   tau(  27) = (  0.5555528  0.4444132  0.8715669  )
        28           I   tau(  28) = (  0.5555476  0.7777520  0.3715617  )
        29           I   tau(  29) = (  0.5555509  0.7777450  0.8715617  )
        30           I   tau(  30) = (  0.8888839  0.1110869  0.3715764  )
        31           I   tau(  31) = (  0.8888873  0.1110799  0.8715764  )
        32           I   tau(  32) = (  0.8888820  0.4444187  0.3715711  )
        33           I   tau(  33) = (  0.8888854  0.4444117  0.8715711  )
        34           I   tau(  34) = (  0.8888802  0.7777505  0.3715658  )
        35           I   tau(  35) = (  0.8888835  0.7777435  0.8715658  )
        36           I   tau(  36) = (  0.1111028  0.2222102  0.1284257  )
        37           I   tau(  37) = (  0.1111061  0.2222032  0.6284257  )
        38           I   tau(  38) = (  0.1111009  0.5555420  0.1284204  )
        39           I   tau(  39) = (  0.1111043  0.5555350  0.6284204  )
        40           I   tau(  40) = (  0.1110991  0.8888738  0.1284152  )
        41           I   tau(  41) = (  0.1111024  0.8888668  0.6284152  )
        42           I   tau(  42) = (  0.4444354  0.2222087  0.1284299  )
        43           I   tau(  43) = (  0.4444387  0.2222017  0.6284299  )
        44           I   tau(  44) = (  0.4444335  0.5555405  0.1284246  )
        45           I   tau(  45) = (  0.4444369  0.5555335  0.6284246  )
        46           I   tau(  46) = (  0.4444316  0.8888723  0.1284193  )
        47           I   tau(  47) = (  0.4444350  0.8888653  0.6284193  )
        48           I   tau(  48) = (  0.7777680  0.2222072  0.1284340  )
        49           I   tau(  49) = (  0.7777713  0.2222002  0.6284340  )
        50           I   tau(  50) = (  0.7777661  0.5555390  0.1284287  )
        51           I   tau(  51) = (  0.7777694  0.5555320  0.6284287  )
        52           I   tau(  52) = (  0.7777642  0.8888708  0.1284235  )
        53           I   tau(  53) = (  0.7777676  0.8888638  0.6284235  )
        54           I   tau(  54) = (  0.3333300  0.3333039  0.9999959  )

     number of k points=     4  Gaussian smearing, width (Ry)=  0.0100
                       cart. coord. in units 2pi/alat
        k(    1) = (   0.0000000   0.0000000   0.0000000), wk =   0.5000000
        k(    2) = (   0.0000000  -0.5773503   0.0000000), wk =   0.5000000
        k(    3) = (   0.5000000  -0.2886751   0.0000000), wk =   0.5000000
        k(    4) = (  -0.5000000  -0.2886751   0.0000000), wk =   0.5000000

                       cryst. coord.
        k(    1) = (   0.0000000   0.0000000   0.0000000), wk =   0.5000000
        k(    2) = (   0.0000000  -0.5000000   0.0000000), wk =   0.5000000
        k(    3) = (   0.5000000  -0.5000000   0.0000000), wk =   0.5000000
        k(    4) = (  -0.5000000   0.0000000   0.0000000), wk =   0.5000000

     Dense  grid:  1904969 G-vectors     FFT dimensions: ( 160, 160, 180)

     Smooth grid:  1362953 G-vectors     FFT dimensions: ( 144, 144, 150)

     Dynamical RAM for                 wfc:      21.12 MB

     Dynamical RAM for     wfc (w. buffer):      63.37 MB

     Dynamical RAM for           str. fact:       0.91 MB

     Dynamical RAM for           local pot:       0.00 MB

     Dynamical RAM for          nlocal pot:      39.48 MB

     Dynamical RAM for                qrad:       3.00 MB

     Dynamical RAM for          rho,v,vnew:       3.12 MB

     Dynamical RAM for               rhoin:       1.04 MB

     Dynamical RAM for            rho*nmix:       7.27 MB

     Dynamical RAM for           G-vectors:       1.87 MB

     Dynamical RAM for          h,s,v(r/c):     198.05 MB

     Dynamical RAM for          <psi|beta>:       7.71 MB

     Dynamical RAM for                 psi:      84.49 MB

     Dynamical RAM for                hpsi:      84.49 MB

     Dynamical RAM for                spsi:      84.49 MB

     Dynamical RAM for      wfcinit/wfcrot:      48.44 MB

     Dynamical RAM for           addusdens:      50.87 MB

     Dynamical RAM for          addusforce:      67.37 MB

     Dynamical RAM for         addusstress:      45.76 MB

     Estimated static dynamical RAM per process >     117.08 MB

     Estimated max dynamical RAM per process >     583.57 MB

     Estimated total dynamical RAM >      72.49 GB

     Atomic positions and unit cell read from directory:
     ./PbI2.save/
     Atomic positions from file used, from input discarded
 

     Check: negative core charge=   -0.000002

     The initial density is read from file :
     ./PbI2.save/charge-density



     %%%%%%%%%%%%%%%%%%%%%%%%%%%%%%%%%%%%%%%%%%%%%%%%%%%%%%%%%%%%%%%%%%%%%%%%
     %                                                                      %
     % You are using vdW-DF, which was implemented by the Thonhauser group. %
     % Please cite the following two papers that made this development      %
     % possible and the two reviews that describe the various versions:     %
     %                                                                      %
     %   T. Thonhauser et al., PRL 115, 136402 (2015).                      %
     %   T. Thonhauser et al., PRB 76, 125112 (2007).                       %
     %   K. Berland et al., Rep. Prog. Phys. 78, 066501 (2015).             %
     %   D.C. Langreth et al., J. Phys.: Condens. Matter 21, 084203 (2009). %
     %                                                                      %
     % If you are calculating stress with vdW-DF, please also cite:         %
     %                                                                      %
     %   R. Sabatini et al., J. Phys.: Condens. Matter 24, 424209 (2012).   %
     %                                                                      %
     %%%%%%%%%%%%%%%%%%%%%%%%%%%%%%%%%%%%%%%%%%%%%%%%%%%%%%%%%%%%%%%%%%%%%%%%

     %%%%%%%%%%%%%%%%%%%%%%%%%%%%%%%%%%%%%%%%%%%%%%%%%%%%%%%%%%%%%%%%%%%%%%%%
     %                                                                      %
     %  vdW-DF NEWS:                                                        %
     %                                                                      %
     %  * vdW-DF3 is now available. DOI: 10.1021/acs.jctc.0c00471           %
     %    use with input_dft = 'vdW-DF3-opt1' or 'vdW-DF3-opt2'             %
     %                                                                      %
     %  * Unscreened and range-separated vdW-DF hybrid functionals          %
     %    DOI: 10.1063/1.4986522 and 10.1088/1361-648X/ac2ad2               %
     %    use with input_dft = 'vdW-DF-cx0' (etc) and 'vdW-DF-ahcx'         %
     %                                                                      %
     %%%%%%%%%%%%%%%%%%%%%%%%%%%%%%%%%%%%%%%%%%%%%%%%%%%%%%%%%%%%%%%%%%%%%%%%


     Carrying out vdW-DF run using the following parameters:
     Nqs    =  20  Npoints =  1024  r_max =  100.000
     q_mesh =  0.00001000  0.04494208  0.09755937  0.15916263
               0.23128650  0.31572767  0.41458969  0.53033537
               0.66584808  0.82450364  1.01025438  1.22772762
               1.48234092  1.78043706  2.12944203  2.53805004
               3.01644009  3.57652955  4.23227104  5.00000000


     -----------------------------------------------
     Non-local corr. energy    =      26.19276552 Ry
     -----------------------------------------------

     Starting wfcs from file
     Checking if some PAW data can be deallocated... 
       PAW data deallocated on   77 nodes for type:  1
       PAW data deallocated on   51 nodes for type:  2

     total cpu time spent up to now is       11.5 secs

     Self-consistent Calculation

     iteration #  1     ecut=    70.00 Ry     beta= 0.70
     Davidson diagonalization with overlap

---- Real-time Memory Report at c_bands before calling an iterative solver
           280 MiB given to the printing process from OS
             0 MiB allocation reported by mallinfo(arena+hblkhd)
       1927663 MiB available memory on the node where the printing process lives
------------------
     ethr =  1.00E-05,  avg # of iterations =  1.0

     Threshold (ethr) on eigenvalues was too large:
     Diagonalizing with lowered threshold

     Davidson diagonalization with overlap

---- Real-time Memory Report at c_bands before calling an iterative solver
           558 MiB given to the printing process from OS
             0 MiB allocation reported by mallinfo(arena+hblkhd)
       1923084 MiB available memory on the node where the printing process lives
------------------
     ethr =  1.43E-12,  avg # of iterations = 12.8


     -----------------------------------------------
     Non-local corr. energy    =      26.19276388 Ry
     -----------------------------------------------


     total cpu time spent up to now is      101.2 secs

     End of self-consistent calculation

          k = 0.0000 0.0000 0.0000 (170421 PWs)   bands (ev):

   -42.7387 -42.7386 -42.7140 -42.7121 -42.7093 -41.2484 -41.2448 -41.2428
   -41.2390 -41.2390 -41.2388 -41.2202 -41.2191 -41.2168 -41.2157 -41.2147
   -41.2142 -41.2111 -41.2111 -41.2109 -41.2106 -41.2103 -41.2101 -41.1319
   -41.1314 -41.1290 -41.1285 -41.1276 -41.1271 -41.1246 -41.1241 -41.1240
   -41.1238 -41.1235 -41.1233 -40.9231 -40.9230 -40.9228 -40.9228 -40.9226
   -40.9226 -40.9225 -40.9225 -40.9210 -40.9208 -40.9203 -40.9202 -40.9130
   -40.9127 -40.9127 -40.9125 -40.9105 -40.9099 -40.9077 -40.9074 -40.9074
   -40.9072 -40.9062 -40.9058 -40.9057 -40.9057 -40.9050 -40.9043 -40.9033
   -40.9027 -40.8482 -40.8481 -40.8474 -40.8473 -40.8471 -40.8471 -40.8470
   -40.8470 -40.8465 -40.8465 -40.8464 -40.8464 -40.8442 -40.8441 -40.8430
   -40.8430 -40.8426 -40.8426 -40.8425 -40.8424 -40.8420 -40.8420 -40.8416
   -40.8416 -40.8415 -40.8414 -40.8408 -40.8408 -40.8404 -40.8404 -40.7097
   -40.7097 -40.7076 -40.7076 -40.7075 -40.7074 -40.7069 -40.7068 -40.7055
   -40.7053 -40.7046 -40.7045 -40.7045 -40.7043 -40.7026 -40.7025 -40.7017
   -40.7016 -40.7007 -40.7006 -40.7001 -40.7000 -40.6980 -40.6979 -40.6975
   -40.6973 -40.6958 -40.6957 -40.6952 -40.6951 -40.6910 -40.6908 -40.6908
   -40.6908 -40.6894 -40.6893 -40.6893 -40.6892 -40.6886 -40.6885 -40.6884
   -40.6882 -40.6880 -40.6880 -40.6865 -40.6864 -40.6858 -40.6857 -40.6849
   -40.6847 -40.6843 -40.6842 -40.6842 -40.6841 -40.6837 -40.6837 -40.6812
   -40.6811 -40.6807 -40.6806 -40.6717 -40.6717 -40.6714 -40.6714 -40.6702
   -40.6702 -40.6698 -40.6697 -40.6697 -40.6697 -40.6697 -40.6697 -40.6694
   -40.6694 -40.6694 -40.6692 -40.6688 -40.6688 -40.6684 -40.6684 -40.6682
   -40.6681 -40.6677 -40.6677 -40.6677 -40.6676 -40.6674 -40.6673 -40.6673
   -40.6672 -13.0369 -13.0313 -13.0304 -13.0290 -13.0252 -13.0244 -13.0219
   -13.0208 -13.0203 -13.0193 -13.0171 -13.0143 -13.0124 -13.0116 -13.0099
   -13.0096 -13.0090 -13.0086 -13.0078 -13.0075 -13.0073 -13.0071 -13.0069
   -13.0063 -13.0037 -13.0036 -13.0026 -13.0022 -13.0011 -13.0004 -12.9839
   -12.9836 -12.9829 -12.9827 -12.9711 -12.9708 -12.9698 -12.9697 -12.9693
   -12.9692 -12.8506 -12.8505 -12.8492 -12.8492 -12.8340 -12.8335 -12.8329
   -12.8328 -12.8328 -12.8327 -12.8277 -12.8253 -12.8207 -12.8203 -12.8170
   -12.8168 -12.8147 -12.8146 -12.8107 -12.8107 -12.8095 -12.8083 -12.8077
   -12.8058 -12.8044 -12.8031 -12.8030 -12.8020 -12.8017 -12.8014 -12.8012
   -12.7999 -12.7995 -12.7977 -12.7973 -12.7967 -12.7964 -12.7958 -12.7953
   -12.7950 -12.7946 -12.7937 -12.7857 -12.7841 -12.7838  -9.2959  -8.1237
    -7.9744  -7.9714  -7.9549  -7.9102  -7.9090  -7.9005  -7.8189  -7.7954
    -7.7940  -7.6947  -7.6846  -7.6589  -7.6587  -7.6583  -7.6557  -7.6552
    -7.6451  -7.6449  -7.6384  -7.6280  -7.6275  -7.5967  -7.5959  -7.5883
    -7.5301  -7.4276  -7.4272  -7.4229  -7.4205  -7.4201  -7.4195  -7.4187
    -7.4130  -7.4094  -7.4090  -3.7905  -3.7200  -3.6035  -3.6023  -3.5875
    -3.5819  -3.5813  -3.5786  -3.5526  -3.4050  -3.3832  -3.3816  -3.3812
    -3.3794  -3.3782  -3.2783  -3.0392   0.2889   0.2934   0.4014   1.1289
     1.1294   1.1416   1.1618   1.1626   1.1742   1.1753   1.2981   1.3503
     1.3506   1.3535   1.3539   1.3569   1.3737   1.3862   1.4654   1.4655
     1.5199   1.5202   1.6160   1.6864   1.6882   1.7189   1.7351   1.7954
     1.7980   1.7988   1.8079   1.8093   1.9818   1.9924   1.9951   1.9958
     2.1024   2.1687   2.1986   2.1995   2.2005   2.2130   2.2139   2.2278
     2.2290   2.2301   2.2302   2.2313   2.2335   2.2964   2.3120   2.3126
     2.3807   2.3826   2.5219   2.5220   2.5247   2.5564   2.5603   2.5806
     2.5821   2.6131   2.6635   2.6720   2.6739   2.6924   2.7214   2.7232
     2.7619   2.7710   2.7726   2.7916   2.7933   2.7940   2.8318   2.8325
     2.8342   2.8355   2.9038   2.9531   2.9534   2.9538   2.9539   2.9616
     3.0213   3.0217   3.0224   3.0226   3.0246   3.0309   3.0436   3.0439
     3.0451   3.0709   3.0720   3.0765   3.0776   3.0811   3.0916   3.2648
     3.2713   3.2882   3.2898   3.2933   3.2934   3.4501   3.4658   3.4707
     3.7632   3.8465   3.8483   6.0162   6.2063   6.5242   6.5398   6.5416
     6.5830   6.5837   6.7459   6.8064   6.8103   6.8472   6.8477   6.8536
     6.8998   6.9011   6.9688   6.9690   6.9854   7.0514   7.0545   7.1197
     7.1215   7.1621   7.2249   7.2252   7.2376   7.4080   7.4119   7.4700
     7.4704   7.4705   7.4737   7.4757   7.4828   7.4849   7.4902   7.4919
     7.6152   7.6464   7.6581   7.6599   7.6766   7.6771   7.6960   7.6980
     7.6982   7.7002   7.7014   7.7037   7.9216   7.9452   9.3731   9.3735
     9.4033   9.4987   9.4998   9.5101   9.8248   9.8581   9.8593   9.8700
     9.8851   9.8865   9.9147  10.1941  10.2388  10.4057  10.7871  10.7889
    10.9136  10.9162  10.9483  10.9492  11.0328  11.0344  11.0404  11.0623
    11.0640  11.0729  11.0777  11.1343  11.1347  11.1485  11.1494  11.1639

     occupation numbers 
     1.0000   1.0000   1.0000   1.0000   1.0000   1.0000   1.0000   1.0000
     1.0000   1.0000   1.0000   1.0000   1.0000   1.0000   1.0000   1.0000
     1.0000   1.0000   1.0000   1.0000   1.0000   1.0000   1.0000   1.0000
     1.0000   1.0000   1.0000   1.0000   1.0000   1.0000   1.0000   1.0000
     1.0000   1.0000   1.0000   1.0000   1.0000   1.0000   1.0000   1.0000
     1.0000   1.0000   1.0000   1.0000   1.0000   1.0000   1.0000   1.0000
     1.0000   1.0000   1.0000   1.0000   1.0000   1.0000   1.0000   1.0000
     1.0000   1.0000   1.0000   1.0000   1.0000   1.0000   1.0000   1.0000
     1.0000   1.0000   1.0000   1.0000   1.0000   1.0000   1.0000   1.0000
     1.0000   1.0000   1.0000   1.0000   1.0000   1.0000   1.0000   1.0000
     1.0000   1.0000   1.0000   1.0000   1.0000   1.0000   1.0000   1.0000
     1.0000   1.0000   1.0000   1.0000   1.0000   1.0000   1.0000   1.0000
     1.0000   1.0000   1.0000   1.0000   1.0000   1.0000   1.0000   1.0000
     1.0000   1.0000   1.0000   1.0000   1.0000   1.0000   1.0000   1.0000
     1.0000   1.0000   1.0000   1.0000   1.0000   1.0000   1.0000   1.0000
     1.0000   1.0000   1.0000   1.0000   1.0000   1.0000   1.0000   1.0000
     1.0000   1.0000   1.0000   1.0000   1.0000   1.0000   1.0000   1.0000
     1.0000   1.0000   1.0000   1.0000   1.0000   1.0000   1.0000   1.0000
     1.0000   1.0000   1.0000   1.0000   1.0000   1.0000   1.0000   1.0000
     1.0000   1.0000   1.0000   1.0000   1.0000   1.0000   1.0000   1.0000
     1.0000   1.0000   1.0000   1.0000   1.0000   1.0000   1.0000   1.0000
     1.0000   1.0000   1.0000   1.0000   1.0000   1.0000   1.0000   1.0000
     1.0000   1.0000   1.0000   1.0000   1.0000   1.0000   1.0000   1.0000
     1.0000   1.0000   1.0000   1.0000   1.0000   1.0000   1.0000   1.0000
     1.0000   1.0000   1.0000   1.0000   1.0000   1.0000   1.0000   1.0000
     1.0000   1.0000   1.0000   1.0000   1.0000   1.0000   1.0000   1.0000
     1.0000   1.0000   1.0000   1.0000   1.0000   1.0000   1.0000   1.0000
     1.0000   1.0000   1.0000   1.0000   1.0000   1.0000   1.0000   1.0000
     1.0000   1.0000   1.0000   1.0000   1.0000   1.0000   1.0000   1.0000
     1.0000   1.0000   1.0000   1.0000   1.0000   1.0000   1.0000   1.0000
     1.0000   1.0000   1.0000   1.0000   1.0000   1.0000   1.0000   1.0000
     1.0000   1.0000   1.0000   1.0000   1.0000   1.0000   1.0000   1.0000
     1.0000   1.0000   1.0000   1.0000   1.0000   1.0000   1.0000   1.0000
     1.0000   1.0000   1.0000   1.0000   1.0000   1.0000   1.0000   1.0000
     1.0000   1.0000   1.0000   1.0000   1.0000   1.0000   1.0000   1.0000
     1.0000   1.0000   1.0000   1.0000   1.0000   1.0000   1.0000   1.0000
     1.0000   1.0000   1.0000   1.0000   1.0000   1.0000   1.0000   1.0000
     1.0000   1.0000   1.0000   1.0000   1.0000   1.0000   1.0000   1.0000
     1.0000   1.0000   1.0000   1.0000   1.0000   1.0000   1.0000   1.0000
     1.0000   1.0000   1.0000   1.0000   1.0000   1.0000   1.0000   1.0000
     1.0000   1.0000   1.0000   1.0000   1.0000   1.0000   1.0000   1.0000
     1.0000   1.0000   1.0000   1.0000   1.0000   1.0000   1.0000   1.0000
     1.0000   1.0000   1.0000   1.0000   1.0000   1.0000   1.0000   1.0000
     1.0000   1.0000   1.0000   1.0000   1.0000   1.0000   1.0000   1.0000
     1.0000   1.0000   1.0000   1.0000   1.0000   1.0000   1.0000   1.0000
     1.0000   1.0000   1.0000   1.0000   1.0000   1.0000   1.0000   1.0000
     1.0000   1.0000   1.0000   1.0000   1.0000   1.0000   1.0000   1.0000
     1.0000   1.0000   1.0000   1.0000   1.0000   1.0000   1.0000   1.0000
     1.0000   1.0000   1.0000   1.0000   1.0000   1.0000   1.0000   1.0000
     1.0000   1.0000   1.0000   1.0000   1.0000   1.0000   1.0000   1.0000
     1.0000   1.0000   1.0000   1.0000   1.0000   1.0000   1.0000   1.0000
     1.0000   1.0000   1.0000   1.0000   1.0000   1.0000   1.0000   1.0000
     1.0000   1.0000   1.0000   1.0000   1.0000   1.0000   1.0000   1.0000
     1.0000   1.0000   1.0000   1.0000   1.0000   0.9998   0.9996   0.9995
     0.6022   0.2719   0.2658   0.0000   0.0000   0.0000   0.0000   0.0000
     0.0000   0.0000   0.0000   0.0000   0.0000   0.0000   0.0000   0.0000
     0.0000   0.0000   0.0000   0.0000   0.0000   0.0000   0.0000   0.0000
     0.0000   0.0000   0.0000   0.0000   0.0000   0.0000   0.0000   0.0000
     0.0000   0.0000   0.0000   0.0000   0.0000   0.0000   0.0000   0.0000
     0.0000   0.0000   0.0000   0.0000   0.0000   0.0000   0.0000   0.0000
     0.0000   0.0000   0.0000   0.0000   0.0000   0.0000   0.0000   0.0000
     0.0000   0.0000   0.0000   0.0000   0.0000   0.0000   0.0000   0.0000
     0.0000   0.0000   0.0000   0.0000   0.0000   0.0000   0.0000   0.0000
     0.0000   0.0000   0.0000   0.0000   0.0000   0.0000   0.0000   0.0000
     0.0000   0.0000   0.0000   0.0000   0.0000   0.0000   0.0000   0.0000

          k = 0.0000-0.5774 0.0000 (170366 PWs)   bands (ev):

   -42.7387 -42.7386 -42.7140 -42.7121 -42.7093 -41.2484 -41.2448 -41.2428
   -41.2390 -41.2390 -41.2388 -41.2202 -41.2191 -41.2168 -41.2157 -41.2147
   -41.2142 -41.2111 -41.2111 -41.2109 -41.2106 -41.2103 -41.2101 -41.1319
   -41.1314 -41.1290 -41.1285 -41.1276 -41.1271 -41.1246 -41.1241 -41.1240
   -41.1238 -41.1235 -41.1233 -40.9231 -40.9230 -40.9228 -40.9228 -40.9226
   -40.9226 -40.9225 -40.9225 -40.9210 -40.9208 -40.9203 -40.9202 -40.9130
   -40.9127 -40.9127 -40.9125 -40.9105 -40.9099 -40.9077 -40.9074 -40.9074
   -40.9072 -40.9062 -40.9058 -40.9057 -40.9057 -40.9050 -40.9043 -40.9033
   -40.9027 -40.8482 -40.8481 -40.8474 -40.8473 -40.8471 -40.8471 -40.8470
   -40.8470 -40.8465 -40.8465 -40.8464 -40.8464 -40.8442 -40.8441 -40.8430
   -40.8430 -40.8426 -40.8426 -40.8425 -40.8424 -40.8420 -40.8420 -40.8416
   -40.8416 -40.8415 -40.8414 -40.8408 -40.8408 -40.8404 -40.8404 -40.7097
   -40.7097 -40.7076 -40.7076 -40.7075 -40.7074 -40.7069 -40.7068 -40.7055
   -40.7053 -40.7046 -40.7045 -40.7045 -40.7043 -40.7026 -40.7025 -40.7017
   -40.7016 -40.7007 -40.7006 -40.7001 -40.7000 -40.6980 -40.6979 -40.6975
   -40.6973 -40.6958 -40.6957 -40.6952 -40.6951 -40.6910 -40.6908 -40.6908
   -40.6908 -40.6894 -40.6893 -40.6893 -40.6892 -40.6886 -40.6885 -40.6884
   -40.6882 -40.6880 -40.6880 -40.6865 -40.6864 -40.6858 -40.6857 -40.6849
   -40.6847 -40.6843 -40.6842 -40.6842 -40.6841 -40.6837 -40.6837 -40.6812
   -40.6811 -40.6807 -40.6806 -40.6717 -40.6717 -40.6714 -40.6714 -40.6702
   -40.6702 -40.6698 -40.6697 -40.6697 -40.6697 -40.6697 -40.6697 -40.6694
   -40.6694 -40.6694 -40.6692 -40.6688 -40.6688 -40.6684 -40.6684 -40.6682
   -40.6681 -40.6677 -40.6677 -40.6677 -40.6676 -40.6674 -40.6673 -40.6673
   -40.6672 -13.0353 -13.0338 -13.0316 -13.0275 -13.0266 -13.0249 -13.0226
   -13.0210 -13.0191 -13.0170 -13.0149 -13.0135 -13.0131 -13.0121 -13.0100
   -13.0096 -13.0090 -13.0085 -13.0083 -13.0078 -13.0072 -13.0068 -13.0062
   -13.0058 -13.0040 -13.0040 -13.0029 -13.0026 -13.0016 -13.0010 -12.9841
   -12.9835 -12.9830 -12.9829 -12.9710 -12.9708 -12.9697 -12.9695 -12.9694
   -12.9691 -12.8512 -12.8503 -12.8496 -12.8494 -12.8337 -12.8332 -12.8328
   -12.8328 -12.8327 -12.8326 -12.8266 -12.8251 -12.8212 -12.8201 -12.8189
   -12.8174 -12.8137 -12.8127 -12.8104 -12.8099 -12.8090 -12.8081 -12.8080
   -12.8063 -12.8061 -12.8033 -12.8031 -12.8020 -12.8016 -12.8011 -12.8011
   -12.8000 -12.7995 -12.7983 -12.7978 -12.7971 -12.7969 -12.7959 -12.7955
   -12.7947 -12.7944 -12.7935 -12.7855 -12.7839 -12.7835  -9.2956  -8.1157
    -8.0235  -8.0018  -7.8797  -7.8702  -7.8682  -7.8524  -7.8490  -7.8469
    -7.8100  -7.7736  -7.7142  -7.7109  -7.6938  -7.6816  -7.6762  -7.6636
    -7.6598  -7.6306  -7.5968  -7.5932  -7.5477  -7.5266  -7.5239  -7.5220
    -7.5188  -7.5084  -7.4910  -7.4857  -7.4317  -7.4315  -7.4129  -7.4020
    -7.3985  -7.3945  -7.3929  -3.7282  -3.7213  -3.7173  -3.7032  -3.5837
    -3.5287  -3.5278  -3.5248  -3.5141  -3.5119  -3.5116  -3.3952  -3.3357
    -3.3210  -3.3136  -3.1482  -3.1376   0.2811   0.2903   0.3649   0.9649
     1.0071   1.0195   1.1581   1.2071   1.2123   1.3009   1.3136   1.3473
     1.3573   1.4528   1.4770   1.4785   1.5034   1.5117   1.5845   1.6457
     1.6519   1.6652   1.6676   1.7056   1.7072   1.7096   1.7332   1.7727
     1.7777   1.8001   1.8239   1.8283   1.8791   1.8873   1.9695   1.9761
     1.9791   1.9923   2.0562   2.0670   2.0722   2.0853   2.1493   2.1736
     2.2357   2.2453   2.2469   2.2891   2.3285   2.3337   2.3687   2.3706
     2.4209   2.4464   2.4590   2.4652   2.4783   2.4919   2.5324   2.5407
     2.5593   2.5623   2.5908   2.6060   2.6114   2.6298   2.6415   2.6462
     2.6575   2.6766   2.6884   2.6938   2.7685   2.8045   2.8167   2.8210
     2.8271   2.8357   2.8536   2.8584   2.8893   2.8910   2.8971   2.9234
     2.9927   3.0214   3.0224   3.0242   3.0291   3.0535   3.0646   3.0718
     3.1114   3.1453   3.1503   3.2065   3.2332   3.2472   3.2600   3.2829
     3.3031   3.3300   3.3327   3.3340   3.4443   3.4525   3.4570   3.4634
     3.8071   3.8397   3.8569   6.3820   6.5074   6.5555   6.5708   6.7195
     6.7544   6.8061   6.8192   6.8895   6.8971   6.9010   6.9373   6.9507
     6.9534   6.9576   6.9818   7.0129   7.0538   7.0880   7.1379   7.1390
     7.1505   7.1527   7.1648   7.1772   7.1831   7.2306   7.2500   7.2584
     7.2682   7.2770   7.3198   7.3296   7.3475   7.3846   7.4498   7.4531
     7.4559   7.4628   7.4641   7.5307   7.5351   7.5424   7.5507   7.5571
     7.5870   7.8610   7.8706   7.8893   7.8929   8.0329   9.1338   9.5563
     9.5637   9.6617   9.6672   9.7465   9.9477  10.0781  10.1055  10.1639
    10.1961  10.2108  10.2130  10.2267  10.2299  10.2791  10.2850  10.2921
    10.3876  10.3890  10.6526  10.7112  10.7322  10.7755  10.8411  10.8913
    10.9084  10.9108  10.9123  10.9356  10.9686  10.9879  11.0024  11.0092

     occupation numbers 
     1.0000   1.0000   1.0000   1.0000   1.0000   1.0000   1.0000   1.0000
     1.0000   1.0000   1.0000   1.0000   1.0000   1.0000   1.0000   1.0000
     1.0000   1.0000   1.0000   1.0000   1.0000   1.0000   1.0000   1.0000
     1.0000   1.0000   1.0000   1.0000   1.0000   1.0000   1.0000   1.0000
     1.0000   1.0000   1.0000   1.0000   1.0000   1.0000   1.0000   1.0000
     1.0000   1.0000   1.0000   1.0000   1.0000   1.0000   1.0000   1.0000
     1.0000   1.0000   1.0000   1.0000   1.0000   1.0000   1.0000   1.0000
     1.0000   1.0000   1.0000   1.0000   1.0000   1.0000   1.0000   1.0000
     1.0000   1.0000   1.0000   1.0000   1.0000   1.0000   1.0000   1.0000
     1.0000   1.0000   1.0000   1.0000   1.0000   1.0000   1.0000   1.0000
     1.0000   1.0000   1.0000   1.0000   1.0000   1.0000   1.0000   1.0000
     1.0000   1.0000   1.0000   1.0000   1.0000   1.0000   1.0000   1.0000
     1.0000   1.0000   1.0000   1.0000   1.0000   1.0000   1.0000   1.0000
     1.0000   1.0000   1.0000   1.0000   1.0000   1.0000   1.0000   1.0000
     1.0000   1.0000   1.0000   1.0000   1.0000   1.0000   1.0000   1.0000
     1.0000   1.0000   1.0000   1.0000   1.0000   1.0000   1.0000   1.0000
     1.0000   1.0000   1.0000   1.0000   1.0000   1.0000   1.0000   1.0000
     1.0000   1.0000   1.0000   1.0000   1.0000   1.0000   1.0000   1.0000
     1.0000   1.0000   1.0000   1.0000   1.0000   1.0000   1.0000   1.0000
     1.0000   1.0000   1.0000   1.0000   1.0000   1.0000   1.0000   1.0000
     1.0000   1.0000   1.0000   1.0000   1.0000   1.0000   1.0000   1.0000
     1.0000   1.0000   1.0000   1.0000   1.0000   1.0000   1.0000   1.0000
     1.0000   1.0000   1.0000   1.0000   1.0000   1.0000   1.0000   1.0000
     1.0000   1.0000   1.0000   1.0000   1.0000   1.0000   1.0000   1.0000
     1.0000   1.0000   1.0000   1.0000   1.0000   1.0000   1.0000   1.0000
     1.0000   1.0000   1.0000   1.0000   1.0000   1.0000   1.0000   1.0000
     1.0000   1.0000   1.0000   1.0000   1.0000   1.0000   1.0000   1.0000
     1.0000   1.0000   1.0000   1.0000   1.0000   1.0000   1.0000   1.0000
     1.0000   1.0000   1.0000   1.0000   1.0000   1.0000   1.0000   1.0000
     1.0000   1.0000   1.0000   1.0000   1.0000   1.0000   1.0000   1.0000
     1.0000   1.0000   1.0000   1.0000   1.0000   1.0000   1.0000   1.0000
     1.0000   1.0000   1.0000   1.0000   1.0000   1.0000   1.0000   1.0000
     1.0000   1.0000   1.0000   1.0000   1.0000   1.0000   1.0000   1.0000
     1.0000   1.0000   1.0000   1.0000   1.0000   1.0000   1.0000   1.0000
     1.0000   1.0000   1.0000   1.0000   1.0000   1.0000   1.0000   1.0000
     1.0000   1.0000   1.0000   1.0000   1.0000   1.0000   1.0000   1.0000
     1.0000   1.0000   1.0000   1.0000   1.0000   1.0000   1.0000   1.0000
     1.0000   1.0000   1.0000   1.0000   1.0000   1.0000   1.0000   1.0000
     1.0000   1.0000   1.0000   1.0000   1.0000   1.0000   1.0000   1.0000
     1.0000   1.0000   1.0000   1.0000   1.0000   1.0000   1.0000   1.0000
     1.0000   1.0000   1.0000   1.0000   1.0000   1.0000   1.0000   1.0000
     1.0000   1.0000   1.0000   1.0000   1.0000   1.0000   1.0000   1.0000
     1.0000   1.0000   1.0000   1.0000   1.0000   1.0000   1.0000   1.0000
     1.0000   1.0000   1.0000   1.0000   1.0000   1.0000   1.0000   1.0000
     1.0000   1.0000   1.0000   1.0000   1.0000   1.0000   1.0000   1.0000
     1.0000   1.0000   1.0000   1.0000   1.0000   1.0000   1.0000   1.0000
     1.0000   1.0000   1.0000   1.0000   1.0000   1.0000   1.0000   1.0000
     1.0000   1.0000   1.0000   1.0000   1.0000   1.0000   1.0000   1.0000
     1.0000   1.0000   1.0000   1.0000   1.0000   1.0000   1.0000   1.0000
     1.0000   1.0000   1.0000   1.0000   1.0000   1.0000   1.0000   1.0000
     1.0000   1.0000   1.0000   1.0000   1.0000   1.0000   1.0000   1.0000
     1.0000   1.0000   1.0000   1.0000   1.0000   1.0000   1.0000   1.0000
     1.0000   1.0000   1.0000   1.0000   1.0000   1.0000   1.0000   1.0000
     1.0000   1.0000   1.0000   1.0000   0.9998   0.9998   0.9997   0.9996
     0.4216   0.2958   0.2372   0.0000   0.0000   0.0000   0.0000   0.0000
     0.0000   0.0000   0.0000   0.0000   0.0000   0.0000   0.0000   0.0000
     0.0000   0.0000   0.0000   0.0000   0.0000   0.0000   0.0000   0.0000
     0.0000   0.0000   0.0000   0.0000   0.0000   0.0000   0.0000   0.0000
     0.0000   0.0000   0.0000   0.0000   0.0000   0.0000   0.0000   0.0000
     0.0000   0.0000   0.0000   0.0000   0.0000   0.0000   0.0000   0.0000
     0.0000   0.0000   0.0000   0.0000   0.0000   0.0000   0.0000   0.0000
     0.0000   0.0000   0.0000   0.0000   0.0000   0.0000   0.0000   0.0000
     0.0000   0.0000   0.0000   0.0000   0.0000   0.0000   0.0000   0.0000
     0.0000   0.0000   0.0000   0.0000   0.0000   0.0000   0.0000   0.0000
     0.0000   0.0000   0.0000   0.0000   0.0000   0.0000   0.0000   0.0000

          k = 0.5000-0.2887 0.0000 (170366 PWs)   bands (ev):

   -42.7387 -42.7386 -42.7140 -42.7121 -42.7093 -41.2484 -41.2448 -41.2428
   -41.2390 -41.2390 -41.2388 -41.2202 -41.2191 -41.2168 -41.2157 -41.2147
   -41.2142 -41.2111 -41.2111 -41.2109 -41.2106 -41.2103 -41.2101 -41.1319
   -41.1314 -41.1290 -41.1285 -41.1276 -41.1271 -41.1246 -41.1241 -41.1240
   -41.1238 -41.1235 -41.1233 -40.9231 -40.9230 -40.9228 -40.9228 -40.9226
   -40.9226 -40.9225 -40.9225 -40.9210 -40.9208 -40.9203 -40.9202 -40.9130
   -40.9127 -40.9127 -40.9125 -40.9105 -40.9099 -40.9077 -40.9074 -40.9074
   -40.9072 -40.9062 -40.9058 -40.9057 -40.9057 -40.9050 -40.9043 -40.9033
   -40.9027 -40.8482 -40.8481 -40.8474 -40.8473 -40.8471 -40.8471 -40.8470
   -40.8470 -40.8465 -40.8465 -40.8464 -40.8464 -40.8442 -40.8441 -40.8430
   -40.8430 -40.8426 -40.8426 -40.8425 -40.8424 -40.8420 -40.8420 -40.8416
   -40.8416 -40.8415 -40.8414 -40.8408 -40.8408 -40.8404 -40.8404 -40.7097
   -40.7097 -40.7076 -40.7076 -40.7075 -40.7074 -40.7069 -40.7068 -40.7055
   -40.7053 -40.7046 -40.7045 -40.7045 -40.7043 -40.7026 -40.7025 -40.7017
   -40.7016 -40.7007 -40.7006 -40.7001 -40.7000 -40.6980 -40.6979 -40.6975
   -40.6973 -40.6958 -40.6957 -40.6952 -40.6951 -40.6910 -40.6908 -40.6908
   -40.6908 -40.6894 -40.6893 -40.6893 -40.6892 -40.6886 -40.6885 -40.6884
   -40.6882 -40.6880 -40.6880 -40.6865 -40.6864 -40.6858 -40.6857 -40.6849
   -40.6847 -40.6843 -40.6842 -40.6842 -40.6841 -40.6837 -40.6837 -40.6812
   -40.6811 -40.6807 -40.6806 -40.6717 -40.6717 -40.6714 -40.6714 -40.6702
   -40.6702 -40.6698 -40.6697 -40.6697 -40.6697 -40.6697 -40.6697 -40.6694
   -40.6694 -40.6694 -40.6692 -40.6688 -40.6688 -40.6684 -40.6684 -40.6682
   -40.6681 -40.6677 -40.6677 -40.6677 -40.6676 -40.6674 -40.6673 -40.6673
   -40.6672 -13.0347 -13.0347 -13.0314 -13.0279 -13.0257 -13.0250 -13.0224
   -13.0218 -13.0186 -13.0172 -13.0150 -13.0132 -13.0129 -13.0124 -13.0101
   -13.0093 -13.0092 -13.0086 -13.0083 -13.0078 -13.0072 -13.0064 -13.0062
   -13.0061 -13.0045 -13.0039 -13.0029 -13.0029 -13.0012 -13.0008 -12.9842
   -12.9833 -12.9831 -12.9828 -12.9710 -12.9708 -12.9697 -12.9695 -12.9693
   -12.9691 -12.8513 -12.8501 -12.8496 -12.8495 -12.8335 -12.8333 -12.8329
   -12.8328 -12.8327 -12.8326 -12.8250 -12.8248 -12.8235 -12.8215 -12.8183
   -12.8165 -12.8146 -12.8124 -12.8102 -12.8097 -12.8091 -12.8082 -12.8070
   -12.8064 -12.8063 -12.8031 -12.8030 -12.8016 -12.8016 -12.8010 -12.8005
   -12.8001 -12.7998 -12.7986 -12.7981 -12.7978 -12.7970 -12.7963 -12.7953
   -12.7944 -12.7940 -12.7938 -12.7855 -12.7837 -12.7837  -9.2956  -8.1150
    -8.0241  -8.0031  -7.8790  -7.8695  -7.8687  -7.8533  -7.8476  -7.8463
    -7.8104  -7.7737  -7.7140  -7.7109  -7.6945  -7.6816  -7.6767  -7.6640
    -7.6598  -7.6298  -7.5964  -7.5930  -7.5481  -7.5273  -7.5237  -7.5223
    -7.5180  -7.5082  -7.4910  -7.4859  -7.4316  -7.4314  -7.4132  -7.4020
    -7.3991  -7.3938  -7.3928  -3.7279  -3.7217  -3.7162  -3.7028  -3.5854
    -3.5292  -3.5273  -3.5250  -3.5140  -3.5121  -3.5119  -3.3950  -3.3353
    -3.3205  -3.3137  -3.1486  -3.1373   0.2794   0.2922   0.3650   0.9654
     1.0064   1.0189   1.1585   1.2072   1.2126   1.3009   1.3130   1.3477
     1.3574   1.4541   1.4775   1.4783   1.5043   1.5103   1.5849   1.6430
     1.6520   1.6651   1.6674   1.7053   1.7078   1.7090   1.7340   1.7738
     1.7798   1.8001   1.8227   1.8266   1.8795   1.8857   1.9700   1.9761
     1.9798   1.9925   2.0547   2.0656   2.0724   2.0854   2.1493   2.1765
     2.2343   2.2463   2.2476   2.2886   2.3276   2.3322   2.3671   2.3729
     2.4211   2.4465   2.4592   2.4667   2.4779   2.4915   2.5323   2.5426
     2.5592   2.5630   2.5919   2.6053   2.6109   2.6311   2.6417   2.6464
     2.6582   2.6762   2.6878   2.6937   2.7685   2.8043   2.8164   2.8198
     2.8266   2.8367   2.8529   2.8587   2.8903   2.8903   2.8965   2.9231
     2.9927   3.0216   3.0228   3.0229   3.0293   3.0531   3.0644   3.0720
     3.1122   3.1454   3.1501   3.2069   3.2340   3.2463   3.2598   3.2817
     3.3036   3.3301   3.3328   3.3334   3.4456   3.4508   3.4571   3.4639
     3.8063   3.8396   3.8577   6.3836   6.5068   6.5564   6.5694   6.7231
     6.7471   6.8023   6.8163   6.8883   6.9001   6.9032   6.9395   6.9498
     6.9561   6.9615   6.9847   7.0141   7.0550   7.0878   7.1347   7.1362
     7.1490   7.1525   7.1625   7.1735   7.1841   7.2294   7.2507   7.2570
     7.2685   7.2738   7.3237   7.3323   7.3480   7.3856   7.4496   7.4515
     7.4548   7.4629   7.4666   7.5343   7.5354   7.5432   7.5508   7.5561
     7.5873   7.8606   7.8714   7.8906   7.8926   8.0312   9.1352   9.5556
     9.5634   9.6611   9.6676   9.7465   9.9469  10.0795  10.1061  10.1645
    10.1972  10.2094  10.2109  10.2257  10.2298  10.2778  10.2861  10.2913
    10.3873  10.3892  10.6521  10.7140  10.7315  10.7733  10.8427  10.8917
    10.9069  10.9104  10.9128  10.9358  10.9723  10.9866  11.0023  11.0134

     occupation numbers 
     1.0000   1.0000   1.0000   1.0000   1.0000   1.0000   1.0000   1.0000
     1.0000   1.0000   1.0000   1.0000   1.0000   1.0000   1.0000   1.0000
     1.0000   1.0000   1.0000   1.0000   1.0000   1.0000   1.0000   1.0000
     1.0000   1.0000   1.0000   1.0000   1.0000   1.0000   1.0000   1.0000
     1.0000   1.0000   1.0000   1.0000   1.0000   1.0000   1.0000   1.0000
     1.0000   1.0000   1.0000   1.0000   1.0000   1.0000   1.0000   1.0000
     1.0000   1.0000   1.0000   1.0000   1.0000   1.0000   1.0000   1.0000
     1.0000   1.0000   1.0000   1.0000   1.0000   1.0000   1.0000   1.0000
     1.0000   1.0000   1.0000   1.0000   1.0000   1.0000   1.0000   1.0000
     1.0000   1.0000   1.0000   1.0000   1.0000   1.0000   1.0000   1.0000
     1.0000   1.0000   1.0000   1.0000   1.0000   1.0000   1.0000   1.0000
     1.0000   1.0000   1.0000   1.0000   1.0000   1.0000   1.0000   1.0000
     1.0000   1.0000   1.0000   1.0000   1.0000   1.0000   1.0000   1.0000
     1.0000   1.0000   1.0000   1.0000   1.0000   1.0000   1.0000   1.0000
     1.0000   1.0000   1.0000   1.0000   1.0000   1.0000   1.0000   1.0000
     1.0000   1.0000   1.0000   1.0000   1.0000   1.0000   1.0000   1.0000
     1.0000   1.0000   1.0000   1.0000   1.0000   1.0000   1.0000   1.0000
     1.0000   1.0000   1.0000   1.0000   1.0000   1.0000   1.0000   1.0000
     1.0000   1.0000   1.0000   1.0000   1.0000   1.0000   1.0000   1.0000
     1.0000   1.0000   1.0000   1.0000   1.0000   1.0000   1.0000   1.0000
     1.0000   1.0000   1.0000   1.0000   1.0000   1.0000   1.0000   1.0000
     1.0000   1.0000   1.0000   1.0000   1.0000   1.0000   1.0000   1.0000
     1.0000   1.0000   1.0000   1.0000   1.0000   1.0000   1.0000   1.0000
     1.0000   1.0000   1.0000   1.0000   1.0000   1.0000   1.0000   1.0000
     1.0000   1.0000   1.0000   1.0000   1.0000   1.0000   1.0000   1.0000
     1.0000   1.0000   1.0000   1.0000   1.0000   1.0000   1.0000   1.0000
     1.0000   1.0000   1.0000   1.0000   1.0000   1.0000   1.0000   1.0000
     1.0000   1.0000   1.0000   1.0000   1.0000   1.0000   1.0000   1.0000
     1.0000   1.0000   1.0000   1.0000   1.0000   1.0000   1.0000   1.0000
     1.0000   1.0000   1.0000   1.0000   1.0000   1.0000   1.0000   1.0000
     1.0000   1.0000   1.0000   1.0000   1.0000   1.0000   1.0000   1.0000
     1.0000   1.0000   1.0000   1.0000   1.0000   1.0000   1.0000   1.0000
     1.0000   1.0000   1.0000   1.0000   1.0000   1.0000   1.0000   1.0000
     1.0000   1.0000   1.0000   1.0000   1.0000   1.0000   1.0000   1.0000
     1.0000   1.0000   1.0000   1.0000   1.0000   1.0000   1.0000   1.0000
     1.0000   1.0000   1.0000   1.0000   1.0000   1.0000   1.0000   1.0000
     1.0000   1.0000   1.0000   1.0000   1.0000   1.0000   1.0000   1.0000
     1.0000   1.0000   1.0000   1.0000   1.0000   1.0000   1.0000   1.0000
     1.0000   1.0000   1.0000   1.0000   1.0000   1.0000   1.0000   1.0000
     1.0000   1.0000   1.0000   1.0000   1.0000   1.0000   1.0000   1.0000
     1.0000   1.0000   1.0000   1.0000   1.0000   1.0000   1.0000   1.0000
     1.0000   1.0000   1.0000   1.0000   1.0000   1.0000   1.0000   1.0000
     1.0000   1.0000   1.0000   1.0000   1.0000   1.0000   1.0000   1.0000
     1.0000   1.0000   1.0000   1.0000   1.0000   1.0000   1.0000   1.0000
     1.0000   1.0000   1.0000   1.0000   1.0000   1.0000   1.0000   1.0000
     1.0000   1.0000   1.0000   1.0000   1.0000   1.0000   1.0000   1.0000
     1.0000   1.0000   1.0000   1.0000   1.0000   1.0000   1.0000   1.0000
     1.0000   1.0000   1.0000   1.0000   1.0000   1.0000   1.0000   1.0000
     1.0000   1.0000   1.0000   1.0000   1.0000   1.0000   1.0000   1.0000
     1.0000   1.0000   1.0000   1.0000   1.0000   1.0000   1.0000   1.0000
     1.0000   1.0000   1.0000   1.0000   1.0000   1.0000   1.0000   1.0000
     1.0000   1.0000   1.0000   1.0000   1.0000   1.0000   1.0000   1.0000
     1.0000   1.0000   1.0000   1.0000   1.0000   1.0000   1.0000   1.0000
     1.0000   1.0000   1.0000   1.0000   0.9998   0.9998   0.9997   0.9996
     0.4249   0.2961   0.2348   0.0000   0.0000   0.0000   0.0000   0.0000
     0.0000   0.0000   0.0000   0.0000   0.0000   0.0000   0.0000   0.0000
     0.0000   0.0000   0.0000   0.0000   0.0000   0.0000   0.0000   0.0000
     0.0000   0.0000   0.0000   0.0000   0.0000   0.0000   0.0000   0.0000
     0.0000   0.0000   0.0000   0.0000   0.0000   0.0000   0.0000   0.0000
     0.0000   0.0000   0.0000   0.0000   0.0000   0.0000   0.0000   0.0000
     0.0000   0.0000   0.0000   0.0000   0.0000   0.0000   0.0000   0.0000
     0.0000   0.0000   0.0000   0.0000   0.0000   0.0000   0.0000   0.0000
     0.0000   0.0000   0.0000   0.0000   0.0000   0.0000   0.0000   0.0000
     0.0000   0.0000   0.0000   0.0000   0.0000   0.0000   0.0000   0.0000
     0.0000   0.0000   0.0000   0.0000   0.0000   0.0000   0.0000   0.0000

          k =-0.5000-0.2887 0.0000 (170366 PWs)   bands (ev):

   -42.7387 -42.7386 -42.7140 -42.7121 -42.7093 -41.2484 -41.2448 -41.2428
   -41.2390 -41.2390 -41.2388 -41.2202 -41.2191 -41.2168 -41.2157 -41.2147
   -41.2142 -41.2111 -41.2111 -41.2109 -41.2106 -41.2103 -41.2101 -41.1319
   -41.1314 -41.1290 -41.1285 -41.1276 -41.1271 -41.1246 -41.1241 -41.1240
   -41.1238 -41.1235 -41.1233 -40.9231 -40.9230 -40.9228 -40.9228 -40.9226
   -40.9226 -40.9225 -40.9225 -40.9210 -40.9208 -40.9203 -40.9202 -40.9130
   -40.9127 -40.9127 -40.9125 -40.9105 -40.9099 -40.9077 -40.9074 -40.9074
   -40.9072 -40.9062 -40.9058 -40.9057 -40.9057 -40.9050 -40.9043 -40.9033
   -40.9027 -40.8482 -40.8481 -40.8474 -40.8473 -40.8471 -40.8471 -40.8470
   -40.8470 -40.8465 -40.8465 -40.8464 -40.8464 -40.8442 -40.8441 -40.8430
   -40.8430 -40.8426 -40.8426 -40.8425 -40.8424 -40.8420 -40.8420 -40.8416
   -40.8416 -40.8415 -40.8414 -40.8408 -40.8408 -40.8404 -40.8404 -40.7097
   -40.7097 -40.7076 -40.7076 -40.7075 -40.7074 -40.7069 -40.7068 -40.7055
   -40.7053 -40.7046 -40.7045 -40.7045 -40.7043 -40.7026 -40.7025 -40.7017
   -40.7016 -40.7007 -40.7006 -40.7001 -40.7000 -40.6980 -40.6979 -40.6975
   -40.6973 -40.6958 -40.6957 -40.6952 -40.6951 -40.6910 -40.6908 -40.6908
   -40.6908 -40.6894 -40.6893 -40.6893 -40.6892 -40.6886 -40.6885 -40.6884
   -40.6882 -40.6880 -40.6880 -40.6865 -40.6864 -40.6858 -40.6857 -40.6849
   -40.6847 -40.6843 -40.6842 -40.6842 -40.6841 -40.6837 -40.6837 -40.6812
   -40.6811 -40.6807 -40.6806 -40.6717 -40.6717 -40.6714 -40.6714 -40.6702
   -40.6702 -40.6698 -40.6697 -40.6697 -40.6697 -40.6697 -40.6697 -40.6694
   -40.6694 -40.6694 -40.6692 -40.6688 -40.6688 -40.6684 -40.6684 -40.6682
   -40.6681 -40.6677 -40.6677 -40.6677 -40.6676 -40.6674 -40.6673 -40.6673
   -40.6672 -13.0355 -13.0333 -13.0320 -13.0274 -13.0268 -13.0249 -13.0228
   -13.0204 -13.0195 -13.0167 -13.0149 -13.0139 -13.0133 -13.0117 -13.0100
   -13.0096 -13.0091 -13.0084 -13.0083 -13.0078 -13.0073 -13.0069 -13.0063
   -13.0057 -13.0040 -13.0037 -13.0031 -13.0025 -13.0016 -13.0011 -12.9841
   -12.9836 -12.9830 -12.9828 -12.9710 -12.9708 -12.9697 -12.9695 -12.9693
   -12.9692 -12.8512 -12.8502 -12.8496 -12.8494 -12.8336 -12.8333 -12.8329
   -12.8328 -12.8327 -12.8326 -12.8267 -12.8250 -12.8212 -12.8200 -12.8190
   -12.8175 -12.8137 -12.8127 -12.8104 -12.8099 -12.8090 -12.8081 -12.8080
   -12.8063 -12.8061 -12.8033 -12.8031 -12.8019 -12.8016 -12.8012 -12.8011
   -12.8000 -12.7995 -12.7983 -12.7978 -12.7971 -12.7969 -12.7959 -12.7955
   -12.7947 -12.7945 -12.7935 -12.7855 -12.7839 -12.7835  -9.2956  -8.1161
    -8.0232  -8.0010  -7.8803  -7.8710  -7.8680  -7.8513  -7.8495  -7.8476
    -7.8098  -7.7733  -7.7142  -7.7109  -7.6936  -7.6821  -7.6759  -7.6636
    -7.6596  -7.6307  -7.5967  -7.5932  -7.5477  -7.5266  -7.5239  -7.5220
    -7.5188  -7.5084  -7.4910  -7.4857  -7.4316  -7.4316  -7.4129  -7.4020
    -7.3985  -7.3945  -7.3929  -3.7284  -3.7210  -3.7172  -3.7034  -3.5839
    -3.5287  -3.5278  -3.5248  -3.5141  -3.5119  -3.5116  -3.3949  -3.3359
    -3.3210  -3.3136  -3.1482  -3.1375   0.2827   0.2879   0.3658   0.9645
     1.0071   1.0198   1.1581   1.2072   1.2122   1.3009   1.3137   1.3473
     1.3572   1.4527   1.4769   1.4787   1.5032   1.5118   1.5845   1.6456
     1.6520   1.6653   1.6676   1.7057   1.7072   1.7096   1.7332   1.7726
     1.7778   1.7998   1.8238   1.8284   1.8790   1.8873   1.9696   1.9761
     1.9791   1.9922   2.0563   2.0671   2.0722   2.0853   2.1493   2.1739
     2.2360   2.2454   2.2471   2.2885   2.3291   2.3332   2.3686   2.3705
     2.4206   2.4467   2.4588   2.4651   2.4783   2.4920   2.5324   2.5408
     2.5593   2.5623   2.5908   2.6059   2.6114   2.6300   2.6413   2.6464
     2.6574   2.6771   2.6884   2.6934   2.7682   2.8044   2.8169   2.8209
     2.8272   2.8356   2.8533   2.8582   2.8894   2.8910   2.8972   2.9235
     2.9927   3.0213   3.0224   3.0243   3.0291   3.0535   3.0646   3.0718
     3.1115   3.1452   3.1501   3.2067   3.2330   3.2472   3.2601   3.2831
     3.3031   3.3299   3.3327   3.3340   3.4443   3.4525   3.4570   3.4634
     3.8071   3.8401   3.8566   6.3817   6.5072   6.5555   6.5708   6.7201
     6.7545   6.8064   6.8193   6.8897   6.8972   6.9008   6.9372   6.9501
     6.9535   6.9575   6.9818   7.0127   7.0538   7.0880   7.1381   7.1392
     7.1506   7.1527   7.1648   7.1774   7.1831   7.2305   7.2499   7.2586
     7.2681   7.2770   7.3198   7.3296   7.3473   7.3845   7.4499   7.4530
     7.4558   7.4628   7.4641   7.5304   7.5353   7.5423   7.5506   7.5572
     7.5870   7.8609   7.8705   7.8894   7.8930   8.0330   9.1337   9.5562
     9.5638   9.6616   9.6673   9.7466   9.9475  10.0782  10.1055  10.1640
    10.1961  10.2108  10.2132  10.2269  10.2299  10.2791  10.2847  10.2921
    10.3877  10.3890  10.6525  10.7110  10.7322  10.7755  10.8413  10.8918
    10.9082  10.9104  10.9123  10.9354  10.9685  10.9879  11.0022  11.0091

     occupation numbers 
     1.0000   1.0000   1.0000   1.0000   1.0000   1.0000   1.0000   1.0000
     1.0000   1.0000   1.0000   1.0000   1.0000   1.0000   1.0000   1.0000
     1.0000   1.0000   1.0000   1.0000   1.0000   1.0000   1.0000   1.0000
     1.0000   1.0000   1.0000   1.0000   1.0000   1.0000   1.0000   1.0000
     1.0000   1.0000   1.0000   1.0000   1.0000   1.0000   1.0000   1.0000
     1.0000   1.0000   1.0000   1.0000   1.0000   1.0000   1.0000   1.0000
     1.0000   1.0000   1.0000   1.0000   1.0000   1.0000   1.0000   1.0000
     1.0000   1.0000   1.0000   1.0000   1.0000   1.0000   1.0000   1.0000
     1.0000   1.0000   1.0000   1.0000   1.0000   1.0000   1.0000   1.0000
     1.0000   1.0000   1.0000   1.0000   1.0000   1.0000   1.0000   1.0000
     1.0000   1.0000   1.0000   1.0000   1.0000   1.0000   1.0000   1.0000
     1.0000   1.0000   1.0000   1.0000   1.0000   1.0000   1.0000   1.0000
     1.0000   1.0000   1.0000   1.0000   1.0000   1.0000   1.0000   1.0000
     1.0000   1.0000   1.0000   1.0000   1.0000   1.0000   1.0000   1.0000
     1.0000   1.0000   1.0000   1.0000   1.0000   1.0000   1.0000   1.0000
     1.0000   1.0000   1.0000   1.0000   1.0000   1.0000   1.0000   1.0000
     1.0000   1.0000   1.0000   1.0000   1.0000   1.0000   1.0000   1.0000
     1.0000   1.0000   1.0000   1.0000   1.0000   1.0000   1.0000   1.0000
     1.0000   1.0000   1.0000   1.0000   1.0000   1.0000   1.0000   1.0000
     1.0000   1.0000   1.0000   1.0000   1.0000   1.0000   1.0000   1.0000
     1.0000   1.0000   1.0000   1.0000   1.0000   1.0000   1.0000   1.0000
     1.0000   1.0000   1.0000   1.0000   1.0000   1.0000   1.0000   1.0000
     1.0000   1.0000   1.0000   1.0000   1.0000   1.0000   1.0000   1.0000
     1.0000   1.0000   1.0000   1.0000   1.0000   1.0000   1.0000   1.0000
     1.0000   1.0000   1.0000   1.0000   1.0000   1.0000   1.0000   1.0000
     1.0000   1.0000   1.0000   1.0000   1.0000   1.0000   1.0000   1.0000
     1.0000   1.0000   1.0000   1.0000   1.0000   1.0000   1.0000   1.0000
     1.0000   1.0000   1.0000   1.0000   1.0000   1.0000   1.0000   1.0000
     1.0000   1.0000   1.0000   1.0000   1.0000   1.0000   1.0000   1.0000
     1.0000   1.0000   1.0000   1.0000   1.0000   1.0000   1.0000   1.0000
     1.0000   1.0000   1.0000   1.0000   1.0000   1.0000   1.0000   1.0000
     1.0000   1.0000   1.0000   1.0000   1.0000   1.0000   1.0000   1.0000
     1.0000   1.0000   1.0000   1.0000   1.0000   1.0000   1.0000   1.0000
     1.0000   1.0000   1.0000   1.0000   1.0000   1.0000   1.0000   1.0000
     1.0000   1.0000   1.0000   1.0000   1.0000   1.0000   1.0000   1.0000
     1.0000   1.0000   1.0000   1.0000   1.0000   1.0000   1.0000   1.0000
     1.0000   1.0000   1.0000   1.0000   1.0000   1.0000   1.0000   1.0000
     1.0000   1.0000   1.0000   1.0000   1.0000   1.0000   1.0000   1.0000
     1.0000   1.0000   1.0000   1.0000   1.0000   1.0000   1.0000   1.0000
     1.0000   1.0000   1.0000   1.0000   1.0000   1.0000   1.0000   1.0000
     1.0000   1.0000   1.0000   1.0000   1.0000   1.0000   1.0000   1.0000
     1.0000   1.0000   1.0000   1.0000   1.0000   1.0000   1.0000   1.0000
     1.0000   1.0000   1.0000   1.0000   1.0000   1.0000   1.0000   1.0000
     1.0000   1.0000   1.0000   1.0000   1.0000   1.0000   1.0000   1.0000
     1.0000   1.0000   1.0000   1.0000   1.0000   1.0000   1.0000   1.0000
     1.0000   1.0000   1.0000   1.0000   1.0000   1.0000   1.0000   1.0000
     1.0000   1.0000   1.0000   1.0000   1.0000   1.0000   1.0000   1.0000
     1.0000   1.0000   1.0000   1.0000   1.0000   1.0000   1.0000   1.0000
     1.0000   1.0000   1.0000   1.0000   1.0000   1.0000   1.0000   1.0000
     1.0000   1.0000   1.0000   1.0000   1.0000   1.0000   1.0000   1.0000
     1.0000   1.0000   1.0000   1.0000   1.0000   1.0000   1.0000   1.0000
     1.0000   1.0000   1.0000   1.0000   1.0000   1.0000   1.0000   1.0000
     1.0000   1.0000   1.0000   1.0000   1.0000   1.0000   1.0000   1.0000
     1.0000   1.0000   1.0000   1.0000   0.9998   0.9998   0.9997   0.9996
     0.4218   0.2943   0.2380   0.0000   0.0000   0.0000   0.0000   0.0000
     0.0000   0.0000   0.0000   0.0000   0.0000   0.0000   0.0000   0.0000
     0.0000   0.0000   0.0000   0.0000   0.0000   0.0000   0.0000   0.0000
     0.0000   0.0000   0.0000   0.0000   0.0000   0.0000   0.0000   0.0000
     0.0000   0.0000   0.0000   0.0000   0.0000   0.0000   0.0000   0.0000
     0.0000   0.0000   0.0000   0.0000   0.0000   0.0000   0.0000   0.0000
     0.0000   0.0000   0.0000   0.0000   0.0000   0.0000   0.0000   0.0000
     0.0000   0.0000   0.0000   0.0000   0.0000   0.0000   0.0000   0.0000
     0.0000   0.0000   0.0000   0.0000   0.0000   0.0000   0.0000   0.0000
     0.0000   0.0000   0.0000   0.0000   0.0000   0.0000   0.0000   0.0000
     0.0000   0.0000   0.0000   0.0000   0.0000   0.0000   0.0000   0.0000

     the Fermi energy is     3.7881 ev

!    total energy              =  -36092.68037683 Ry
     total all-electron energy =  -1237501.160829 Ry
     estimated scf accuracy    <       0.00000001 Ry
     smearing contrib. (-TS)   =      -0.01483947 Ry
     internal energy E=F+TS    =  -36092.66553736 Ry

     The total energy is F=E-TS. E is the sum of the following terms:
     one-electron contribution =   -6800.61679120 Ry
     hartree contribution      =    3788.31263081 Ry
     xc contribution           =   -2571.09073730 Ry
     ewald contribution        =   -5600.94329428 Ry
     one-center paw contrib.   =  -24908.32734540 Ry
      -> PAW hartree energy AE =      95.85146477 Ry
      -> PAW hartree energy PS =     -96.08775460 Ry
      -> PAW xc energy AE      =    -798.42518340 Ry
      -> PAW xc energy PS      =      33.30563124 Ry
      -> total E_H with PAW    =    3788.07634098 Ry
      -> total E_XC with PAW   =   -3336.21028946 Ry

     convergence has been achieved in   1 iterations


     -----------------------------------------------
     Non-local corr. energy    =      26.19276388 Ry
     -----------------------------------------------


     Forces acting on atoms (cartesian axes, Ry/au):

     atom    1 type  1   force =    -0.00000385   -0.00000773   -0.00000174
     atom    2 type  1   force =    -0.00033272    0.00060942   -0.00005254
     atom    3 type  1   force =     0.00011222   -0.00020743   -0.00007211
     atom    4 type  1   force =     0.00032286   -0.00048501    0.00002691
     atom    5 type  1   force =    -0.00013037    0.00017333   -0.00009487
     atom    6 type  1   force =     0.00070027    0.00000509    0.00006765
     atom    7 type  1   force =    -0.00023792   -0.00001011    0.00006421
     atom    8 type  1   force =     0.00036906    0.00065250    0.00001678
     atom    9 type  1   force =    -0.00010973   -0.00018735   -0.00000066
     atom   10 type  1   force =     0.00007307    0.00017148    0.00023439
     atom   11 type  1   force =     0.00004024   -0.00004544   -0.00059587
     atom   12 type  1   force =    -0.00058883    0.00004614   -0.00004524
     atom   13 type  1   force =     0.00021624   -0.00002605    0.00008864
     atom   14 type  1   force =     0.00011502    0.00015421   -0.00023358
     atom   15 type  1   force =    -0.00005833    0.00001477    0.00058844
     atom   16 type  1   force =    -0.00029063   -0.00052351   -0.00001695
     atom   17 type  1   force =     0.00012419    0.00021241    0.00000189
     atom   18 type  2   force =     0.00003577   -0.00005260   -0.00005592
     atom   19 type  2   force =    -0.00010406    0.00006250   -0.00023895
     atom   20 type  2   force =    -0.00012157   -0.00000017   -0.00001750
     atom   21 type  2   force =     0.00010487   -0.00026054   -0.00025492
     atom   22 type  2   force =    -0.00032637   -0.00023136    0.00017221
     atom   23 type  2   force =     0.00011343    0.00011917    0.00008520
     atom   24 type  2   force =     0.00008752   -0.00005203   -0.00043103
     atom   25 type  2   force =    -0.00011631    0.00016176    0.00024110
     atom   26 type  2   force =     0.00010715    0.00003232   -0.00004552
     atom   27 type  2   force =    -0.00021701   -0.00021961   -0.00023039
     atom   28 type  2   force =     0.00013174   -0.00027804   -0.00051704
     atom   29 type  2   force =     0.00003025   -0.00001784    0.00015107
     atom   30 type  2   force =     0.00021411    0.00002622   -0.00035354
     atom   31 type  2   force =     0.00013580    0.00011620    0.00012038
     atom   32 type  2   force =    -0.00001910    0.00029163    0.00026759
     atom   33 type  2   force =    -0.00001421   -0.00007988    0.00005065
     atom   34 type  2   force =     0.00025403   -0.00014893    0.00018024
     atom   35 type  2   force =    -0.00001140   -0.00004612    0.00000829
     atom   36 type  2   force =     0.00017883   -0.00001513    0.00022204
     atom   37 type  2   force =    -0.00005298   -0.00000852    0.00006732
     atom   38 type  2   force =     0.00020866   -0.00000334   -0.00023939
     atom   39 type  2   force =    -0.00008710    0.00005827    0.00042515
     atom   40 type  2   force =     0.00004295    0.00016851   -0.00013458
     atom   41 type  2   force =    -0.00007821    0.00020485    0.00036900
     atom   42 type  2   force =    -0.00027766   -0.00004050    0.00026875
     atom   43 type  2   force =     0.00004938   -0.00013334    0.00001940
     atom   44 type  2   force =    -0.00006531   -0.00017083    0.00025280
     atom   45 type  2   force =    -0.00003700    0.00011364    0.00003385
     atom   46 type  2   force =    -0.00005725   -0.00006552   -0.00005502
     atom   47 type  2   force =     0.00025603    0.00013182   -0.00026174
     atom   48 type  2   force =     0.00001865    0.00015284   -0.00008525
     atom   49 type  2   force =    -0.00003671   -0.00040638   -0.00017703
     atom   50 type  2   force =    -0.00004162    0.00002121   -0.00013210
     atom   51 type  2   force =    -0.00030091   -0.00001745    0.00050088
     atom   52 type  2   force =    -0.00005025   -0.00006751   -0.00000796
     atom   53 type  2   force =    -0.00025302    0.00015206   -0.00017851
     atom   54 type  2   force =    -0.00002186   -0.00004406    0.00000513
     The non-local contrib.  to forces
     atom    1 type  1   force =    -0.00031220   -0.00050971   -0.00001827
     atom    2 type  1   force =    -0.01424799    0.02390694    0.00103512
     atom    3 type  1   force =     0.00191253   -0.00291022    0.00164667
     atom    4 type  1   force =     0.01351511   -0.02532456   -0.00015939
     atom    5 type  1   force =    -0.00266827    0.00408479    0.00131286
     atom    6 type  1   force =     0.02788675   -0.00048662   -0.00087661
     atom    7 type  1   force =    -0.00345980    0.00018708   -0.00164057
     atom    8 type  1   force =     0.01357674    0.02383469    0.00011890
     atom    9 type  1   force =    -0.00110911   -0.00185510   -0.00004769
     atom   10 type  1   force =     0.00040421   -0.00114728   -0.02643400
     atom   11 type  1   force =     0.00077041    0.00118671    0.02082837
     atom   12 type  1   force =    -0.02877578   -0.00086397    0.00006004
     atom   13 type  1   force =     0.00488281   -0.00028879   -0.00127231
     atom   14 type  1   force =    -0.00120950   -0.00020123    0.02643244
     atom   15 type  1   force =     0.00066716    0.00131315   -0.02076873
     atom   16 type  1   force =    -0.01378734   -0.02407077   -0.00012552
     atom   17 type  1   force =     0.00188862    0.00331256   -0.00003442
     atom   18 type  2   force =    -0.00022547   -0.00070023    0.23860611
     atom   19 type  2   force =    -0.00043016   -0.04563236    0.20960123
     atom   20 type  2   force =    -0.00055751    0.00027459    0.23874588
     atom   21 type  2   force =    -0.04019087    0.02345294    0.20948137
     atom   22 type  2   force =    -0.00232462   -0.00198895    0.24101599
     atom   23 type  2   force =     0.01193471    0.00691141    0.25661075
     atom   24 type  2   force =    -0.00664248    0.00291732    0.22873224
     atom   25 type  2   force =     0.00640757   -0.00411291    0.25380459
     atom   26 type  2   force =    -0.00020927    0.00025092    0.23870343
     atom   27 type  2   force =     0.03953314    0.02332255    0.20980328
     atom   28 type  2   force =    -0.00051993   -0.00829742    0.22855787
     atom   29 type  2   force =    -0.00031684    0.00757154    0.25392398
     atom   30 type  2   force =     0.00696778    0.00363060    0.22879109
     atom   31 type  2   force =    -0.00662783   -0.00392539    0.25363596
     atom   32 type  2   force =     0.00039232    0.00298922    0.24122538
     atom   33 type  2   force =     0.00060459   -0.01301344    0.25664680
     atom   34 type  2   force =     0.00233943   -0.00126233    0.24097665
     atom   35 type  2   force =    -0.01138190    0.00712392    0.25650501
     atom   36 type  2   force =    -0.03888077   -0.02290264   -0.20979403
     atom   37 type  2   force =    -0.00047058   -0.00053722   -0.23861748
     atom   38 type  2   force =    -0.00673485    0.00349018   -0.25381265
     atom   39 type  2   force =     0.00586724   -0.00429361   -0.22874652
     atom   40 type  2   force =    -0.00008730   -0.00769792   -0.25367797
     atom   41 type  2   force =    -0.00033562    0.00782384   -0.22885103
     atom   42 type  2   force =     0.04047321   -0.02303150   -0.20946860
     atom   43 type  2   force =     0.00049949   -0.00033569   -0.23873738
     atom   44 type  2   force =     0.00049437    0.04645332   -0.20961858
     atom   45 type  2   force =     0.00033248   -0.00006589   -0.23869830
     atom   46 type  2   force =    -0.01149164   -0.00604031   -0.25660553
     atom   47 type  2   force =     0.00241068    0.00183560   -0.24123123
     atom   48 type  2   force =    -0.00005948    0.01384600   -0.25664795
     atom   49 type  2   force =    -0.00056536   -0.00300530   -0.24102050
     atom   50 type  2   force =     0.00667022    0.00348429   -0.25387671
     atom   51 type  2   force =    -0.00696380   -0.00461593   -0.22850209
     atom   52 type  2   force =     0.01179835   -0.00646170   -0.25650859
     atom   53 type  2   force =    -0.00226398    0.00137988   -0.24097557
     atom   54 type  2   force =    -0.00064912   -0.00111457   -0.00002664
     The ionic contribution  to forces
     atom    1 type  1   force =     0.01280835    0.01902234   -0.00036611
     atom    2 type  1   force =     0.34016532   -0.56717037   -0.07021022
     atom    3 type  1   force =    -0.12926952    0.25045138   -0.14110753
     atom    4 type  1   force =    -0.28717241    0.59593067    0.02421418
     atom    5 type  1   force =     0.16482252   -0.26972417   -0.07653843
     atom    6 type  1   force =    -0.66340900    0.01331195    0.07166634
     atom    7 type  1   force =     0.27980128    0.01304421    0.13735609
     atom    8 type  1   force =    -0.32273472   -0.57096383    0.00101801
     atom    9 type  1   force =     0.12369377    0.21108648    0.00191881
     atom   10 type  1   force =    -0.01998589    0.02730626    0.43715425
     atom   11 type  1   force =    -0.01586578   -0.03979805   -0.56389254
     atom   12 type  1   force =     0.65992174    0.04326663   -0.01888228
     atom   13 type  1   force =    -0.31726016    0.00709674    0.06895792
     atom   14 type  1   force =     0.03184213   -0.00503545   -0.43503270
     atom   15 type  1   force =    -0.02826804   -0.03467214    0.55665922
     atom   16 type  1   force =     0.30131787    0.52994022    0.00401967
     atom   17 type  1   force =    -0.14299653   -0.24866305   -0.00091666
     atom   18 type  2   force =    -0.06411228   -0.21885061  -14.13645846
     atom   19 type  2   force =    -0.00357319   -0.55156355  -14.16957500
     atom   20 type  2   force =    -0.10707016    0.07721566  -14.14221450
     atom   21 type  2   force =    -0.47555300    0.29185028  -14.11953694
     atom   22 type  2   force =     0.16440514    0.15205575  -14.10886910
     atom   23 type  2   force =    -0.49644943   -0.33940277  -14.70771771
     atom   24 type  2   force =     0.37072554   -0.31290009  -13.86251549
     atom   25 type  2   force =    -0.26253146    0.13515824  -14.53090541
     atom   26 type  2   force =     0.09158131    0.11708608  -14.15120567
     atom   27 type  2   force =     0.47606215    0.29073575  -14.15500077
     atom   28 type  2   force =    -0.02212867    0.46504939  -13.86577051
     atom   29 type  2   force =     0.02582443   -0.32304641  -14.53007129
     atom   30 type  2   force =    -0.32016253   -0.28680218  -13.82780170
     atom   31 type  2   force =     0.31400104    0.11963796  -14.57668901
     atom   32 type  2   force =     0.03262521   -0.11473785  -14.08753206
     atom   33 type  2   force =     0.01477464    0.56056138  -14.77714760
     atom   34 type  2   force =    -0.12278009    0.17461756  -14.11408547
     atom   35 type  2   force =     0.45989941   -0.27332106  -14.75927907
     atom   36 type  2   force =    -0.48593791   -0.28640004   14.17707277
     atom   37 type  2   force =    -0.15723932   -0.16624895   14.13094028
     atom   38 type  2   force =     0.24851607   -0.16307946   14.53588861
     atom   39 type  2   force =    -0.45576834    0.16354189   13.85603480
     atom   40 type  2   force =    -0.05466369    0.33456817   14.58517903
     atom   41 type  2   force =    -0.09082181   -0.41901711   13.82071319
     atom   42 type  2   force =     0.49147055   -0.26572862   14.12530290
     atom   43 type  2   force =     0.12198743   -0.05007586   14.13805150
     atom   44 type  2   force =     0.01559108    0.54062494   14.15445653
     atom   45 type  2   force =     0.06039435    0.13775917   14.14693063
     atom   46 type  2   force =     0.47636372    0.30185235   14.78208920
     atom   47 type  2   force =    -0.11264606   -0.02787875   14.08507556
     atom   48 type  2   force =    -0.04283049   -0.60481058   14.71263389
     atom   49 type  2   force =     0.04838777    0.21596123   14.10460856
     atom   50 type  2   force =    -0.29676447   -0.14147749   14.52990857
     atom   51 type  2   force =     0.40666258    0.21130972   13.86471193
     atom   52 type  2   force =    -0.46420595    0.27320115   14.76276082
     atom   53 type  2   force =     0.21226503   -0.01978749   14.11074560
     atom   54 type  2   force =     0.01629046    0.02791239    0.00325334
     The local contribution  to forces
     atom    1 type  1   force =    -0.01255126   -0.01860484    0.00038670
     atom    2 type  1   force =    -0.32662438    0.54435279    0.06911343
     atom    3 type  1   force =     0.12749966   -0.24793090    0.13943561
     atom    4 type  1   force =     0.27421318   -0.57167266   -0.02404083
     atom    5 type  1   force =    -0.16241779    0.26591221    0.07515417
     atom    6 type  1   force =     0.63681326   -0.01285889   -0.07077688
     atom    7 type  1   force =    -0.27674345   -0.01329492   -0.13566989
     atom    8 type  1   force =     0.30985620    0.54827081   -0.00117750
     atom    9 type  1   force =    -0.12276667   -0.20956381   -0.00184903
     atom   10 type  1   force =     0.01967591   -0.02599951   -0.41095749
     atom   11 type  1   force =     0.01514304    0.03855600    0.54282150
     atom   12 type  1   force =    -0.63233104   -0.04248301    0.01883026
     atom   13 type  1   force =     0.31274205   -0.00691181   -0.06763118
     atom   14 type  1   force =    -0.03056317    0.00535430    0.40882767
     atom   15 type  1   force =     0.02751921    0.03335214   -0.53564704
     atom   16 type  1   force =    -0.28815241   -0.50688207   -0.00386300
     atom   17 type  1   force =     0.14127680    0.24566686    0.00093614
     atom   18 type  2   force =     0.06414192    0.21939515   13.90286441
     atom   19 type  2   force =     0.00398185    0.59654845   13.96431407
     atom   20 type  2   force =     0.10754637   -0.07759861   13.90859051
     atom   21 type  2   force =     0.51518395   -0.31510415   13.91436712
     atom   22 type  2   force =    -0.16242996   -0.15020707   13.87313805
     atom   23 type  2   force =     0.48484165    0.33253520   14.45679755
     atom   24 type  2   force =    -0.36429455    0.30991236   13.63848036
     atom   25 type  2   force =     0.25616757   -0.13113849   14.28273218
     atom   26 type  2   force =    -0.09141170   -0.11730369   13.91757836
     atom   27 type  2   force =    -0.51513048   -0.31389867   13.94955984
     atom   28 type  2   force =     0.02260737   -0.45713495   13.64181344
     atom   29 type  2   force =    -0.02544766    0.31550636   14.28171579
     atom   30 type  2   force =     0.31368678    0.28323361   13.60368954
     atom   31 type  2   force =    -0.30720497   -0.11581872   14.32861936
     atom   32 type  2   force =    -0.03293865    0.11222557   13.85163361
     atom   33 type  2   force =    -0.01528988   -0.54802991   14.52612257
     atom   34 type  2   force =     0.12084020   -0.17337503   13.87833692
     atom   35 type  2   force =    -0.44880354    0.26633739   14.50835715
     atom   36 type  2   force =     0.52431288    0.30899976  -13.97164071
     atom   37 type  2   force =     0.15764901    0.16655906  -13.89735816
     atom   38 type  2   force =    -0.24190826    0.15952178  -14.28771493
     atom   39 type  2   force =     0.44994021   -0.15948844  -13.63198216
     atom   40 type  2   force =     0.05454024   -0.32677578  -14.33704077
     atom   41 type  2   force =     0.09095215    0.41161498  -13.59658081
     atom   42 type  2   force =    -0.53148402    0.28839038  -13.92014126
     atom   43 type  2   force =    -0.12251250    0.05033895  -13.90442880
     atom   44 type  2   force =    -0.01616662   -0.58652019  -13.94919547
     atom   45 type  2   force =    -0.06064937   -0.13772189  -13.91327313
     atom   46 type  2   force =    -0.46533639   -0.29594055  -14.53110608
     atom   47 type  2   force =     0.11063164    0.02635177  -13.84916116
     atom   48 type  2   force =     0.04279936    0.59128151  -14.46168343
     atom   49 type  2   force =    -0.04777088   -0.21331630  -13.86886911
     atom   50 type  2   force =     0.29010284    0.13803771  -14.28163610
     atom   51 type  2   force =    -0.40004380   -0.20694934  -13.64075967
     atom   52 type  2   force =     0.45270330   -0.26685691  -14.51183852
     atom   53 type  2   force =    -0.21022317    0.01873473  -13.87499277
     atom   54 type  2   force =    -0.01567663   -0.02684892   -0.00322540
     The core correction contribution to forces
     atom    1 type  1   force =     0.00000951    0.00001611    0.00000078
     atom    2 type  1   force =     0.00031036   -0.00053382   -0.00002224
     atom    3 type  1   force =    -0.00004448    0.00008540   -0.00003299
     atom    4 type  1   force =    -0.00029514    0.00055241   -0.00000017
     atom    5 type  1   force =     0.00006758   -0.00009295   -0.00001797
     atom    6 type  1   force =    -0.00061910    0.00000531    0.00001726
     atom    7 type  1   force =     0.00009618    0.00000510    0.00003417
     atom    8 type  1   force =    -0.00030582   -0.00053761   -0.00000413
     atom    9 type  1   force =     0.00003726    0.00006278    0.00000153
     atom   10 type  1   force =    -0.00000845    0.00000917    0.00046263
     atom   11 type  1   force =    -0.00001476   -0.00001204   -0.00037123
     atom   12 type  1   force =     0.00062836    0.00001789    0.00000387
     atom   13 type  1   force =    -0.00011471    0.00001233    0.00001767
     atom   14 type  1   force =     0.00001189   -0.00000426   -0.00046249
     atom   15 type  1   force =    -0.00000371   -0.00002034    0.00037096
     atom   16 type  1   force =     0.00030438    0.00053351    0.00000430
     atom   17 type  1   force =    -0.00004799   -0.00008316    0.00000039
     atom   18 type  2   force =     0.00015241    0.00010740   -0.00508616
     atom   19 type  2   force =    -0.00014058    0.00069497   -0.00453190
     atom   20 type  2   force =    -0.00005966   -0.00002992   -0.00514298
     atom   21 type  2   force =     0.00064757   -0.00057017   -0.00453559
[...]
              0.125627262318727E+03
              0.570410752674356E+02
              0.928454187655968E+02
             -0.520064589099224E+01
              0.285325767384899E+03
              0.478044405237031E+02
             -0.440548189362811E+02
              0.523958907335395E+01
             -0.288514116388901E+02
              0.234236709747150E+03
             -0.134000002616299E+02
              0.503826137893503E+02
              0.168932078281511E+03
              0.370851854404050E+02
             -0.133326318650554E+03
             -0.194296968692158E+03
              0.205570496008932E+01
             -0.218530796115710E+03
              0.741303601478597E+02
             -0.442690421180398E+02
             -0.102575181646948E+03
              0.923157736057747E+02
              0.354815316715005E+02
              0.832895729054682E+02
              0.740035491244794E+01
              0.132580603818031E+03
             -0.216691113080958E+03
             -0.198155125585024E+02
             -0.188980961232638E+03
              0.340990831456104E+02
              0.102338210805620E+03
             -0.188461486562603E+02
             -0.711550198492042E+02
              0.152285847863568E+03
             -0.706181428314861E+02
              0.495852793001325E+02
             -0.442939526544333E+02
              0.108741763833407E+03
              0.131275164348384E+03
             -0.566151900173063E+02
              0.112958688139378E+03
              0.433318179435873E+02
             -0.116437247295705E+03
             -0.696775990076439E+02
              0.187841896151032E+03
              0.889902594071706E+02
             -0.860058275157689E+01
             -0.252661771104738E+02
              0.276094183751349E+03
              0.165561789812543E+03
              0.606570639713325E+02
             -0.176858004291433E+03
              0.277127187618977E+03
             -0.125357105489116E+03
             -0.155334729240948E+03
             -0.240594244538378E+03
              0.115980270475462E+03
             -0.220166750116139E+03
              0.954842311899636E+02
              0.156797477753205E+03
              0.116200648380639E+03
              0.246471379817425E+02
              0.692396831453578E+02
             -0.173467595404098E+03
             -0.616886548503516E+02
             -0.559081970365652E+02
              0.838321186607680E+02
              0.187106688357795E+03
              0.184483830521586E+03
              0.141219751992652E+03
             -0.348215525921387E+02
              0.501624279725929E+02
              0.705107514856820E+01
             -0.554517075322026E+02
              0.827773960658921E+02
              0.791770994126191E+02
             -0.113011471122084E+03
             -0.114488072299799E+03
             -0.524521798871280E+02
              0.121552636778337E+03
              0.619171008525795E+02
             -0.828054018229093E+02
             -0.144250598152362E+03
             -0.198112249462393E+03
              0.413215382486433E+01
              0.563941715110211E+02
             -0.766300633386359E+02
              0.281448092393391E+03
              0.261304592751389E+01
             -0.326878615809249E+03
              0.819602247030239E+02
              0.134935227178660E+03
             -0.489855850176953E+02
              0.515955470877185E+01
             -0.739370267425247E+02
              0.125514626425272E+03
              0.619460831722278E+02
             -0.165190363350553E+03
              0.196158360912280E+03
              0.133227992923525E+02
             -0.783612366767222E+02
             -0.965563438180232E+02
              0.393249330616604E+03
              0.175824091574679E+03
             -0.441131237841712E+02
              0.970234749315905E+02
             -0.191616651080594E+03
             -0.415970262166056E+02
             -0.170324977399329E+03
              0.658323828844207E+02
              0.122305634002169E+03
              0.134460222220581E+03
             -0.589165927340443E+02
              0.101485208999984E+02
              0.167524441413958E+03
              0.536065385759221E+02
              0.998185556685841E+02
              0.406242409876045E+02
             -0.224907274258300E+02
              0.449765683368923E+00
             -0.311961779893049E+02
              0.347150750723747E+02
              0.116696033689695E+02
             -0.152209407753482E+03
              0.233122112775139E+03
              0.897382175043798E+02
             -0.165248922938588E+03
             -0.121423991636186E+03
             -0.171383416739619E+03
             -0.742673579416069E+02
             -0.538894831986461E+02
             -0.135569085064277E+03
             -0.133815489638282E+03
              0.161163175982143E+03
              0.128281709217205E+03
             -0.177132306373071E+02
              0.192573933642590E+03
              0.277538878510322E+02
             -0.309425399480419E+03
              0.166123424120644E+03
              0.283802349714740E+02
              0.130469346325063E+03
              0.176270041427080E+02
              0.146882126538430E+02
              0.265560420854184E+02
              0.705284754680727E+02
             -0.129150111974704E+03
             -0.609411339470535E+02
             -0.122058019108337E+03
             -0.101092575506635E+03
              0.420297650623512E+02
             -0.112103901998201E+03
              0.540652502840219E+02
              0.742542700573875E+02
             -0.686971014502797E+02
             -0.438441103413748E+02
              0.285260343773530E+01
              0.192310711532188E+03
              0.291176125064297E+02
              0.184625162591867E+03
              0.661690801644120E+02
             -0.244123818770432E+03
             -0.809371322583295E+02
              0.832638043647189E+02
              0.192089592699998E+03
              0.317505207250515E+02
              0.789355858858885E+02
              0.176749819858366E+03
             -0.102349742776069E+03
             -0.157142773728173E+03
              0.217851878337058E+03
              0.126420874776720E+02
             -0.230303579937637E+03
              0.841301628542069E+02
              0.145697880122524E+03
             -0.373330159529828E+02
             -0.151758707990497E+03
              0.315925406806829E+02
              0.649701407892780E+01
             -0.737709740514339E+02
              0.282380368095287E+02
             -0.245843582390670E+02
              0.342582850462901E+03
              0.997121916904886E+02
             -0.145054364286732E+03
              0.428672792480072E+02
              0.208621111297037E+03
             -0.140966157941420E+03
             -0.367130578920898E+02
             -0.133362779740680E+03
              0.106833601243265E+03
              0.337851182106491E+02
              0.706835976797965E+02
              0.128067904750286E+02
              0.242367872011848E+03
             -0.137819093617803E+03
             -0.108860969317008E+03
             -0.105078747643097E+03
              0.923043824846484E+02
              0.240816625028378E+03
             -0.402867513674265E+02
              0.985061129622906E+02
             -0.139928631177931E+03
              0.268203839658961E+02
             -0.448198778829759E+02
              0.975092243347865E+01
             -0.542171852072029E+02
             -0.442233281601794E+02
             -0.434349830127447E+02
              0.358198940841753E+02
              0.700120671624413E+02
             -0.152617429723709E+03
              0.112970933855529E+03
             -0.181894967096292E+03
              0.137277706560955E+03
             -0.145064470029527E+03
              0.235045134399009E+03
              0.129125066047224E+03
              0.148669571984451E+03
              0.369092041783119E+02
              0.433976586023739E+02
             -0.324774863101749E+03
              0.527283443176963E+02
              0.119188703498230E+02
              0.309552264671088E+02
             -0.529718820751424E+02
              0.251095182578163E+03
             -0.583495939597408E+02
             -0.103806204059523E+03
             -0.242992408202777E+03
             -0.843076431098675E+02
             -0.116586670829140E+03
             -0.101395198825348E+03
             -0.228583829682871E+02
             -0.555428806819359E+02
             -0.704913154263569E+02
             -0.108144499648922E+03
              0.827860932287026E+02
              0.260901119542973E+03
              0.220402814452111E+03
             -0.390899281820225E+02
             -0.265043026828394E+03
             -0.112950645606590E+03
              0.542053507443273E+02
              0.541982601958712E+02
              0.866021338134290E+02
              0.608725230188797E+02
              0.107416942451816E+02
              0.258879419979268E+03
             -0.629440158536680E+02
              0.127235707606338E+03
              0.653818202071930E+02
             -0.881714028091931E+02
             -0.422580068435742E+02
              0.117263806307481E+03
             -0.626136714636305E+02
             -0.385097396639427E+02
             -0.285584957709834E+02
              0.151034094994375E+03
             -0.198647381563665E+03
             -0.159317218315366E+02
             -0.153306222026440E+03
             -0.325723997848508E+03
             -0.836709895549234E+00
             -0.480213950818627E+02
              0.126613364540110E+03
              0.140768628405606E+03
              0.192594816262250E+03
             -0.125258641792882E+03
              0.194626561235722E+03
              0.486595120145858E+02
             -0.722894302578475E+02
              0.260267487053162E+02
             -0.614951560237530E+02
             -0.364036401458557E+02
              0.112466960729611E+03
             -0.931099185289827E+02
              0.249726332704236E+03
             -0.666425170268253E+02
             -0.138004649260738E+03
              0.261131253308759E+03
             -0.141378772591306E+03
             -0.114022371590127E+02
              0.137418606471253E+02
              0.754346307284939E+02
             -0.110398490413529E+03
             -0.841046804614707E+02
              0.134112637639433E+03
             -0.201760915486693E+03
              0.166427614454054E+03
              0.246179532754323E+02
              0.119281004551475E+03
              0.172804655061791E+03
              0.442530202289007E+02
             -0.240109035791526E+03
             -0.103902436616168E+03
             -0.173317931970851E+03
             -0.103169965995554E+03
             -0.274454401295493E+02
              0.371779625113275E+02
             -0.809258823038301E+02
             -0.142760977034914E+01
             -0.241163814136569E+03
              0.134400319503323E+02
             -0.155480849241620E+03
              0.150714175590969E+03
             -0.884195520178501E+02
             -0.212419194378049E+02
              0.113753682523050E+03
              0.224467952187583E+02
              0.105768692874340E+03
             -0.201512051863517E+03
              0.335531489486261E+02
              0.137632857443410E+02
              0.867606431142044E+02
              0.139148016136310E+03
             -0.257384615715362E+02
             -0.158384613167351E+03
             -0.915219380953895E+02
             -0.646333247548762E+02
             -0.190674739349747E+02
              0.147637092542806E+03
              0.958409439002721E+02
             -0.971157152285214E+02
             -0.911504116249374E+02
              0.668713310076682E+02
              0.728610036700394E+02
             -0.196851705215059E+03
              0.459249550337877E+02
              0.141219120531048E+03
             -0.628422224744827E+01
              0.177743310059145E+03
              0.821640143424395E+02
              0.139923537397219E+03
              0.212741065684600E+03
              0.320661773265838E+02
             -0.289858837618182E+03
              0.400066928571375E+02
              0.313434158928246E+03
              0.227781665631723E+03
             -0.157067017488147E+03
              0.141644107062971E+02
              0.203927727880592E+03
              0.176692115224767E+03
              0.777215527385908E+02
             -0.470148699987507E+02
              0.780730267120157E+02
              0.161509669563930E+03
             -0.746345968866794E+02
             -0.480708995362927E+02
              0.109405781777397E+03
             -0.663553010759335E+01
              0.981738165031849E+02
             -0.303614827736160E+02
              0.204823203230829E+03
             -0.781349430349633E+02
              0.470256423376977E+02
             -0.868201657950115E+02
              0.101378129406720E+03
             -0.137631540674884E+02
              0.151077492455973E+03
              0.108443178638970E+02
              0.675681073527799E+02
             -0.960332956484873E+02
             -0.671254694627088E+02
             -0.342218597761706E+02
             -0.311570729425541E+02
              0.164428137215124E+03
              0.808985223705770E+02
              0.199553790320330E+03
              0.184155147587228E+03
              0.516573929619376E+02
              0.929078673403629E+01
              0.196283153842454E+03
              0.110342646985379E+03
              0.148999990071047E+00
              0.191188077489885E+03
             -0.156903525222130E+03
              0.549862875405721E+02
             -0.102150968232375E+03
             -0.277461725490268E+02
              0.264346934524220E+03
             -0.370102155384743E+02
             -0.110027326363290E+02
             -0.287873694828397E+02
              0.217166464707630E+03
             -0.466382195291903E+02
             -0.400776881937838E+01
              0.438139923416986E+03
             -0.129718371041316E+03
             -0.161892614526389E+03
             -0.161976981241230E+03
             -0.103487308273968E+03
              0.943153422232723E+02
             -0.423283031008962E+02
              0.239703512623366E+02
             -0.109931028930318E+02
              0.555120626908430E+02
              0.891594243286329E+02
              0.103939335377665E+03
              0.149502367467158E+03
              0.958133964594414E+02
              0.976861693323601E+02
             -0.180747081815119E+03
             -0.186723917030111E+03
             -0.420867410017616E+02
             -0.166875959069197E+03
              0.264945224899001E+03
              0.223173144154188E+03
              0.105215104573039E+03
              0.290171887179731E+03
             -0.145075457284404E+03
             -0.624208203590513E+02
             -0.899736768820434E+02
              0.250999545300036E+03
 
 BEEF-vdW xc energy contributions
            1 :    -2268.767300641480     
            2 :     2079.008759166516     
            3 :    -1755.390147160832     
            4 :     1384.090430841667     
            5 :    -1046.318592901111     
            6 :     792.1545524374287     
            7 :    -632.3508471901760     
            8 :     545.7752159837978     
            9 :    -495.4438486784220     
           10 :     446.2521318543825     
           11 :    -378.3609170206596     
           12 :     291.6196743822052     
           13 :    -200.2359660425882     
           14 :     121.8871764563132     
           15 :    -67.82463393759463     
           16 :     38.56649644450954     
           17 :    -25.72077628984516     
           18 :     17.50935847177243     
           19 :    -4.769649572782328     
           20 :    -15.21470894272716     
           21 :     38.52954419872458     
           22 :    -57.90689914398081     
           23 :     67.50949987446711     
           24 :    -66.45662215108132     
           25 :     59.20047475431511     
           26 :    -52.84661399057859     
           27 :     53.19131466332965     
           28 :    -61.68363700910095     
           29 :     74.79610181864109     
           30 :    -86.00783707321716     
           31 :    -194.6635471919299     
           32 :    -139.9622720427683     

     Writing all to output data dir ./PbI2.save/
 
     init_run     :      5.27s CPU      9.71s WALL (       1 calls)
     electrons    :     87.44s CPU     91.23s WALL (       1 calls)
     forces       :      5.47s CPU      5.60s WALL (       1 calls)
     stress       :     73.77s CPU     74.39s WALL (       1 calls)

     Called by init_run:
     wfcinit      :      2.43s CPU      6.60s WALL (       1 calls)
     potinit      :      1.01s CPU      1.19s WALL (       1 calls)
     hinit0       :      0.73s CPU      0.78s WALL (       1 calls)

     Called by electrons:
     c_bands      :     80.33s CPU     83.45s WALL (       2 calls)
     sum_band     :      4.78s CPU      5.14s WALL (       2 calls)
     v_of_rho     :      1.34s CPU      1.45s WALL (       2 calls)
     v_h          :      0.01s CPU      0.01s WALL (       2 calls)
     v_xc         :     20.73s CPU     21.12s WALL (      38 calls)
     newd         :      0.36s CPU      0.37s WALL (       2 calls)
     PAW_pot      :      0.34s CPU      0.35s WALL (       2 calls)
     mix_rho      :      0.00s CPU      0.00s WALL (       2 calls)
     vdW_kernel   :      0.25s CPU      0.26s WALL (       1 calls)

     Called by c_bands:
     init_us_2    :      0.41s CPU      0.42s WALL (      12 calls)
     init_us_2:cp :      0.41s CPU      0.42s WALL (      12 calls)
     cegterg      :     79.06s CPU     81.10s WALL (       4 calls)

     Called by sum_band:
     sum_band:wei :      0.00s CPU      0.00s WALL (       2 calls)
     sum_band:loo :      4.41s CPU      4.47s WALL (       2 calls)
     sum_band:buf :      0.11s CPU      0.11s WALL (       4 calls)
     sum_band:ini :      0.16s CPU      0.17s WALL (       4 calls)
     sum_band:cal :      1.68s CPU      1.69s WALL (       4 calls)
     sum_band:bec :      0.02s CPU      0.02s WALL (       4 calls)
     addusdens    :      0.32s CPU      0.47s WALL (       2 calls)
     addusd:skk   :      0.01s CPU      0.01s WALL (       4 calls)
     addusd:dgemm :      0.17s CPU      0.32s WALL (       4 calls)
     addusd:qvan2 :      0.12s CPU      0.12s WALL (       4 calls)

     Called by *egterg:
     cdiaghg      :     43.81s CPU     44.71s WALL (      31 calls)
     cegterg:over :      5.87s CPU      6.02s WALL (      31 calls)
     cegterg:upda :      3.18s CPU      3.32s WALL (      31 calls)
     cegterg:last :      1.85s CPU      1.86s WALL (       4 calls)
     h_psi        :     17.80s CPU     18.12s WALL (      35 calls)
     s_psi        :      3.79s CPU      3.82s WALL (      35 calls)
     g_psi        :      0.04s CPU      0.04s WALL (      31 calls)

     Called by h_psi:
     h_psi:calbec :      4.13s CPU      4.16s WALL (      35 calls)
     vloc_psi     :      9.70s CPU      9.81s WALL (      35 calls)
     add_vuspsi   :      3.80s CPU      3.84s WALL (      35 calls)

     General routines
     calbec       :     12.61s CPU     12.70s WALL (      49 calls)
     fft          :      8.94s CPU      9.07s WALL (    2232 calls)
     ffts         :      0.02s CPU      0.02s WALL (       4 calls)
     fftw         :     11.17s CPU     11.30s WALL (   10920 calls)
     interpolate  :      0.01s CPU      0.02s WALL (       2 calls)
 
     Parallel routines

     PAW routines
     PAW_pot      :      0.34s CPU      0.35s WALL (       2 calls)
 
     PWSCF        :   3m13.10s CPU   3m27.43s WALL

 
   This run was terminated on:  12: 8: 3  18Feb2024            

=------------------------------------------------------------------------------=
   JOB DONE.
=------------------------------------------------------------------------------=
