
     Program PWSCF v.7.2 starts on 19Feb2024 at 16:21:56 

     This program is part of the open-source Quantum ESPRESSO suite
     for quantum simulation of materials; please cite
         "P. Giannozzi et al., J. Phys.:Condens. Matter 21 395502 (2009);
         "P. Giannozzi et al., J. Phys.:Condens. Matter 29 465901 (2017);
         "P. Giannozzi et al., J. Chem. Phys. 152 154105 (2020);
          URL http://www.quantum-espresso.org", 
     in publications or presentations arising from this work. More details at
     http://www.quantum-espresso.org/quote

     Parallel version (MPI & OpenMP), running on     128 processor cores
     Number of MPI processes:               128
     Threads/MPI process:                     1

     MPI processes distributed on     1 nodes
     979226 MiB available memory on the printing compute node when the environment starts
 
     Reading input from espresso.pwi
Warning: card &CELL ignored
Warning: card    CELL_DYNAMICS    = 'BFGS' ignored
Warning: card / ignored

     Current dimensions of program PWSCF are:
     Max number of different atomic species (ntypx) = 10
     Max number of k-points (npk) =  40000
     Max angular momentum in pseudopotentials (lmaxx) =  4
     file C.pbe-n-kjpaw_psl.1.0.0.UPF: wavefunction(s)  2S 2P renormalized

     **************************************************************************
     Initializing libbeef V0.1.2 with the BEEF-vdW functional.
     Citation: Wellendorff et al., PRB 85, 235149 (2012).
     **************************************************************************


     IMPORTANT: XC functional enforced from input :
     Exchange-correlation= BEEF-VDW
                           (   1   4  43  14   2   0   0)
     Any further DFT definition will be discarded
     Please, verify this is what you really want

     Found identity + (  0.0000  0.0000  0.5000) symmetry
     This is a supercell, fractional translations are disabled
 
     K-points division:     npool     =       4
     R & G space division:  proc/nbgrp/npool/nimage =      32
     Subspace diagonalization in iterative solution of the eigenvalue problem:
     a serial algorithm will be used

 
     Parallelization info
     --------------------
     sticks:   dense  smooth     PW     G-vecs:    dense   smooth      PW
     Min         158     126     34                 8504     6078     876
     Max         160     127     35                 8506     6081     881
     Sum        5073    4049   1109               272153   194543   28113
 
     Using Slab Decomposition
 


     bravais-lattice index     =            1
     lattice parameter (alat)  =      13.5013  a.u.
     unit-cell volume          =    2461.1121 (a.u.)^3
     number of atoms/cell      =           64
     number of atomic types    =            1
     number of electrons       =       256.00
     number of Kohn-Sham states=          154
     kinetic-energy cutoff     =      70.0000  Ry
     charge density cutoff     =     350.0000  Ry
     scf convergence threshold =      1.0E-07
     mixing beta               =       0.7000
     number of iterations used =            8  plain     mixing
     Exchange-correlation= BEEF-VDW
                           (   1   4  43  14   2   0   0)

     celldm(1)=  13.501348  celldm(2)=   0.000000  celldm(3)=   0.000000
     celldm(4)=   0.000000  celldm(5)=   0.000000  celldm(6)=   0.000000

     crystal axes: (cart. coord. in units of alat)
               a(1) = (   1.000000   0.000000   0.000000 )  
               a(2) = (   0.000000   1.000000   0.000000 )  
               a(3) = (   0.000000   0.000000   1.000000 )  

     reciprocal axes: (cart. coord. in units 2 pi/alat)
               b(1) = (  1.000000  0.000000  0.000000 )  
               b(2) = (  0.000000  1.000000  0.000000 )  
               b(3) = (  0.000000  0.000000  1.000000 )  


     PseudoPot. # 1 for C  read from file:
     /trace/group/acmegroup/atimmins/packages/espresso/pseudo/psl_1.0.0/pslibrary.1.0.0/pbe/PSEUDOPOTENTIALS/C.pbe-n-kjpaw_psl.1.0.0.UPF
     MD5 check sum: 5459cf7f2c8c37df2f7cde8914797f4d
     Pseudo is Projector augmented-wave + core cor, Zval =  4.0
     Generated using 'atomic' code by A. Dal Corso  v.7.1
     Shape of augmentation charge: PSQ
     Using radial grid of 1073 points,  4 beta functions with: 
                l(1) =   0
                l(2) =   0
                l(3) =   1
                l(4) =   1
     Q(r) pseudized with 0 coefficients 


     atomic species   valence    mass     pseudopotential
        C              4.00    12.01100     C ( 1.00)

     24 Sym. Ops. (no inversion) found


                                    s                        frac. trans.

      isym =  1     identity                                     

 cryst.   s( 1) = (     1          0          0      )
                  (     0          1          0      )
                  (     0          0          1      )

 cart.    s( 1) = (  1.0000000  0.0000000  0.0000000 )
                  (  0.0000000  1.0000000  0.0000000 )
                  (  0.0000000  0.0000000  1.0000000 )


      isym =  2     180 deg rotation - cart. axis [0,0,1]        

 cryst.   s( 2) = (    -1          0          0      )
                  (     0         -1          0      )
                  (     0          0          1      )

 cart.    s( 2) = ( -1.0000000  0.0000000  0.0000000 )
                  (  0.0000000 -1.0000000  0.0000000 )
                  (  0.0000000  0.0000000  1.0000000 )


      isym =  3     180 deg rotation - cart. axis [0,1,0]        

 cryst.   s( 3) = (    -1          0          0      )
                  (     0          1          0      )
                  (     0          0         -1      )

 cart.    s( 3) = ( -1.0000000  0.0000000  0.0000000 )
                  (  0.0000000  1.0000000  0.0000000 )
                  (  0.0000000  0.0000000 -1.0000000 )


      isym =  4     180 deg rotation - cart. axis [1,0,0]        

 cryst.   s( 4) = (     1          0          0      )
                  (     0         -1          0      )
                  (     0          0         -1      )

 cart.    s( 4) = (  1.0000000  0.0000000  0.0000000 )
                  (  0.0000000 -1.0000000  0.0000000 )
                  (  0.0000000  0.0000000 -1.0000000 )


      isym =  5     120 deg rotation - cart. axis [-1,-1,-1]     

 cryst.   s( 5) = (     0          0          1      )
                  (     1          0          0      )
                  (     0          1          0      )

 cart.    s( 5) = (  0.0000000  1.0000000  0.0000000 )
                  (  0.0000000  0.0000000  1.0000000 )
                  (  1.0000000  0.0000000  0.0000000 )


      isym =  6     120 deg rotation - cart. axis [-1,1,1]       

 cryst.   s( 6) = (     0          0         -1      )
                  (    -1          0          0      )
                  (     0          1          0      )

 cart.    s( 6) = (  0.0000000 -1.0000000  0.0000000 )
                  (  0.0000000  0.0000000  1.0000000 )
                  ( -1.0000000  0.0000000  0.0000000 )


      isym =  7     120 deg rotation - cart. axis [1,1,-1]       

 cryst.   s( 7) = (     0          0         -1      )
                  (     1          0          0      )
                  (     0         -1          0      )

 cart.    s( 7) = (  0.0000000  1.0000000  0.0000000 )
                  (  0.0000000  0.0000000 -1.0000000 )
                  ( -1.0000000  0.0000000  0.0000000 )


      isym =  8     120 deg rotation - cart. axis [1,-1,1]       

 cryst.   s( 8) = (     0          0          1      )
                  (    -1          0          0      )
                  (     0         -1          0      )

 cart.    s( 8) = (  0.0000000 -1.0000000  0.0000000 )
                  (  0.0000000  0.0000000 -1.0000000 )
                  (  1.0000000  0.0000000  0.0000000 )


      isym =  9     120 deg rotation - cart. axis [1,1,1]        

 cryst.   s( 9) = (     0          1          0      )
                  (     0          0          1      )
                  (     1          0          0      )

 cart.    s( 9) = (  0.0000000  0.0000000  1.0000000 )
                  (  1.0000000  0.0000000  0.0000000 )
                  (  0.0000000  1.0000000  0.0000000 )


      isym = 10     120 deg rotation - cart. axis [-1,1,-1]      

 cryst.   s(10) = (     0         -1          0      )
                  (     0          0         -1      )
                  (     1          0          0      )

 cart.    s(10) = (  0.0000000  0.0000000  1.0000000 )
                  ( -1.0000000  0.0000000  0.0000000 )
                  (  0.0000000 -1.0000000  0.0000000 )


      isym = 11     120 deg rotation - cart. axis [1,-1,-1]      

 cryst.   s(11) = (     0         -1          0      )
                  (     0          0          1      )
                  (    -1          0          0      )

 cart.    s(11) = (  0.0000000  0.0000000 -1.0000000 )
                  ( -1.0000000  0.0000000  0.0000000 )
                  (  0.0000000  1.0000000  0.0000000 )


      isym = 12     120 deg rotation - cart. axis [-1,-1,1]      

 cryst.   s(12) = (     0          1          0      )
                  (     0          0         -1      )
                  (    -1          0          0      )

 cart.    s(12) = (  0.0000000  0.0000000 -1.0000000 )
                  (  1.0000000  0.0000000  0.0000000 )
                  (  0.0000000 -1.0000000  0.0000000 )


      isym = 13     inv. 180 deg rotation - cart. axis [1,1,0]   

 cryst.   s(13) = (     0         -1          0      )
                  (    -1          0          0      )
                  (     0          0          1      )

 cart.    s(13) = (  0.0000000 -1.0000000  0.0000000 )
                  ( -1.0000000  0.0000000  0.0000000 )
                  (  0.0000000  0.0000000  1.0000000 )


      isym = 14     inv. 180 deg rotation - cart. axis [1,-1,0]  

 cryst.   s(14) = (     0          1          0      )
                  (     1          0          0      )
                  (     0          0          1      )

 cart.    s(14) = (  0.0000000  1.0000000  0.0000000 )
                  (  1.0000000  0.0000000  0.0000000 )
                  (  0.0000000  0.0000000  1.0000000 )


      isym = 15     inv.  90 deg rotation - cart. axis [0,0,-1]  

 cryst.   s(15) = (     0          1          0      )
                  (    -1          0          0      )
                  (     0          0         -1      )

 cart.    s(15) = (  0.0000000 -1.0000000  0.0000000 )
                  (  1.0000000  0.0000000  0.0000000 )
                  (  0.0000000  0.0000000 -1.0000000 )


      isym = 16     inv.  90 deg rotation - cart. axis [0,0,1]   

 cryst.   s(16) = (     0         -1          0      )
                  (     1          0          0      )
                  (     0          0         -1      )

 cart.    s(16) = (  0.0000000  1.0000000  0.0000000 )
                  ( -1.0000000  0.0000000  0.0000000 )
                  (  0.0000000  0.0000000 -1.0000000 )


      isym = 17     inv. 180 deg rotation - cart. axis [1,0,1]   

 cryst.   s(17) = (     0          0         -1      )
                  (     0          1          0      )
                  (    -1          0          0      )

 cart.    s(17) = (  0.0000000  0.0000000 -1.0000000 )
                  (  0.0000000  1.0000000  0.0000000 )
                  ( -1.0000000  0.0000000  0.0000000 )


      isym = 18     inv. 180 deg rotation - cart. axis [-1,0,1]  

 cryst.   s(18) = (     0          0          1      )
                  (     0          1          0      )
                  (     1          0          0      )

 cart.    s(18) = (  0.0000000  0.0000000  1.0000000 )
                  (  0.0000000  1.0000000  0.0000000 )
                  (  1.0000000  0.0000000  0.0000000 )


      isym = 19     inv.  90 deg rotation - cart. axis [0,1,0]   

 cryst.   s(19) = (     0          0          1      )
                  (     0         -1          0      )
                  (    -1          0          0      )

 cart.    s(19) = (  0.0000000  0.0000000 -1.0000000 )
                  (  0.0000000 -1.0000000  0.0000000 )
                  (  1.0000000  0.0000000  0.0000000 )


      isym = 20     inv.  90 deg rotation - cart. axis [0,-1,0]  

 cryst.   s(20) = (     0          0         -1      )
                  (     0         -1          0      )
                  (     1          0          0      )

 cart.    s(20) = (  0.0000000  0.0000000  1.0000000 )
                  (  0.0000000 -1.0000000  0.0000000 )
                  ( -1.0000000  0.0000000  0.0000000 )


      isym = 21     inv. 180 deg rotation - cart. axis [0,1,1]   

 cryst.   s(21) = (     1          0          0      )
                  (     0          0         -1      )
                  (     0         -1          0      )

 cart.    s(21) = (  1.0000000  0.0000000  0.0000000 )
                  (  0.0000000  0.0000000 -1.0000000 )
                  (  0.0000000 -1.0000000  0.0000000 )


      isym = 22     inv. 180 deg rotation - cart. axis [0,1,-1]  

 cryst.   s(22) = (     1          0          0      )
                  (     0          0          1      )
                  (     0          1          0      )

 cart.    s(22) = (  1.0000000  0.0000000  0.0000000 )
                  (  0.0000000  0.0000000  1.0000000 )
                  (  0.0000000  1.0000000  0.0000000 )


      isym = 23     inv.  90 deg rotation - cart. axis [-1,0,0]  

 cryst.   s(23) = (    -1          0          0      )
                  (     0          0          1      )
                  (     0         -1          0      )

 cart.    s(23) = ( -1.0000000  0.0000000  0.0000000 )
                  (  0.0000000  0.0000000 -1.0000000 )
                  (  0.0000000  1.0000000  0.0000000 )


      isym = 24     inv.  90 deg rotation - cart. axis [1,0,0]   

 cryst.   s(24) = (    -1          0          0      )
                  (     0          0         -1      )
                  (     0          1          0      )

 cart.    s(24) = ( -1.0000000  0.0000000  0.0000000 )
                  (  0.0000000  0.0000000  1.0000000 )
                  (  0.0000000 -1.0000000  0.0000000 )


     point group T_d (-43m) 
     there are  5 classes
     the character table:

       E     8C3   3C2   6S4   6s_d 
A_1    1.00  1.00  1.00  1.00  1.00
A_2    1.00  1.00  1.00 -1.00 -1.00
E      2.00 -1.00  2.00  0.00  0.00
T_1    3.00  0.00 -1.00  1.00 -1.00
T_2    3.00  0.00 -1.00 -1.00  1.00

     the symmetry operations in each class and the name of the first element:

     E        1
          identity                                               
     8C3      5    7    8    6   12    9   10   11
          120 deg rotation - cart. axis [-1,-1,-1]               
     3C2      2    3    4
          180 deg rotation - cart. axis [0,0,1]                  
     6S4     15   16   20   19   23   24
          inv.  90 deg rotation - cart. axis [0,0,-1]            
     6s_d    13   14   17   18   21   22
          inv. 180 deg rotation - cart. axis [1,1,0]             

   Cartesian axes

     site n.     atom                  positions (alat units)
         1           C   tau(   1) = (   0.1250031   0.3749969   0.1250031  )
         2           C   tau(   2) = (   0.1250031   0.3749969   0.6250031  )
         3           C   tau(   3) = (   0.1250031   0.8749969   0.1250031  )
         4           C   tau(   4) = (   0.1250031   0.8749969   0.6250031  )
         5           C   tau(   5) = (   0.6250031   0.3749969   0.1250031  )
         6           C   tau(   6) = (   0.6250031   0.3749969   0.6250031  )
         7           C   tau(   7) = (   0.6250031   0.8749969   0.1250031  )
         8           C   tau(   8) = (   0.6250031   0.8749969   0.6250031  )
         9           C   tau(   9) = (   0.0000000   0.0000000   0.2500000  )
        10           C   tau(  10) = (   0.0000000   0.0000000   0.7500000  )
        11           C   tau(  11) = (   0.0000000   0.5000000   0.2500000  )
        12           C   tau(  12) = (   0.0000000   0.5000000   0.7500000  )
        13           C   tau(  13) = (   0.5000000   0.0000000   0.2500000  )
        14           C   tau(  14) = (   0.5000000   0.0000000   0.7500000  )
        15           C   tau(  15) = (   0.5000000   0.5000000   0.2500000  )
        16           C   tau(  16) = (   0.5000000   0.5000000   0.7500000  )
        17           C   tau(  17) = (   0.1250031   0.1250031   0.3749969  )
        18           C   tau(  18) = (   0.1250031   0.1250031   0.8749969  )
        19           C   tau(  19) = (   0.1250031   0.6250031   0.3749969  )
        20           C   tau(  20) = (   0.1250031   0.6250031   0.8749969  )
        21           C   tau(  21) = (   0.6250031   0.1250031   0.3749969  )
        22           C   tau(  22) = (   0.6250031   0.1250031   0.8749969  )
        23           C   tau(  23) = (   0.6250031   0.6250031   0.3749969  )
        24           C   tau(  24) = (   0.6250031   0.6250031   0.8749969  )
        25           C   tau(  25) = (   0.0000000   0.2500000   0.0000000  )
        26           C   tau(  26) = (   0.0000000   0.2500000   0.5000000  )
        27           C   tau(  27) = (   0.0000000   0.7500000   0.0000000  )
        28           C   tau(  28) = (   0.0000000   0.7500000   0.5000000  )
        29           C   tau(  29) = (   0.5000000   0.2500000   0.0000000  )
        30           C   tau(  30) = (   0.5000000   0.2500000   0.5000000  )
        31           C   tau(  31) = (   0.5000000   0.7500000   0.0000000  )
        32           C   tau(  32) = (   0.5000000   0.7500000   0.5000000  )
        33           C   tau(  33) = (   0.3749969   0.3749969   0.3749969  )
        34           C   tau(  34) = (   0.3749969   0.3749969   0.8749969  )
        35           C   tau(  35) = (   0.3749969   0.8749969   0.3749969  )
        36           C   tau(  36) = (   0.3749969   0.8749969   0.8749969  )
        37           C   tau(  37) = (   0.8749969   0.3749969   0.3749969  )
        38           C   tau(  38) = (   0.8749969   0.3749969   0.8749969  )
        39           C   tau(  39) = (   0.8749969   0.8749969   0.3749969  )
        40           C   tau(  40) = (   0.8749969   0.8749969   0.8749969  )
        41           C   tau(  41) = (   0.2500000   0.0000000   0.0000000  )
        42           C   tau(  42) = (   0.2500000   0.0000000   0.5000000  )
        43           C   tau(  43) = (   0.2500000   0.5000000   0.0000000  )
        44           C   tau(  44) = (   0.2500000   0.5000000   0.5000000  )
        45           C   tau(  45) = (   0.7500000   0.0000000   0.0000000  )
        46           C   tau(  46) = (   0.7500000   0.0000000   0.5000000  )
        47           C   tau(  47) = (   0.7500000   0.5000000   0.0000000  )
        48           C   tau(  48) = (   0.7500000   0.5000000   0.5000000  )
        49           C   tau(  49) = (   0.3749969   0.1250031   0.1250031  )
        50           C   tau(  50) = (   0.3749969   0.1250031   0.6250031  )
        51           C   tau(  51) = (   0.3749969   0.6250031   0.1250031  )
        52           C   tau(  52) = (   0.3749969   0.6250031   0.6250031  )
        53           C   tau(  53) = (   0.8749969   0.1250031   0.1250031  )
        54           C   tau(  54) = (   0.8749969   0.1250031   0.6250031  )
        55           C   tau(  55) = (   0.8749969   0.6250031   0.1250031  )
        56           C   tau(  56) = (   0.8749969   0.6250031   0.6250031  )
        57           C   tau(  57) = (   0.2500000   0.2500000   0.2500000  )
        58           C   tau(  58) = (   0.2500000   0.2500000   0.7500000  )
        59           C   tau(  59) = (   0.2500000   0.7500000   0.2500000  )
        60           C   tau(  60) = (   0.2500000   0.7500000   0.7500000  )
        61           C   tau(  61) = (   0.7500000   0.2500000   0.2500000  )
        62           C   tau(  62) = (   0.7500000   0.2500000   0.7500000  )
        63           C   tau(  63) = (   0.7500000   0.7500000   0.2500000  )
        64           C   tau(  64) = (   0.7500000   0.7500000   0.7500000  )

   Crystallographic axes

     site n.     atom                  positions (cryst. coord.)
         1           C   tau(   1) = (  0.1250031  0.3749969  0.1250031  )
         2           C   tau(   2) = (  0.1250031  0.3749969  0.6250031  )
         3           C   tau(   3) = (  0.1250031  0.8749969  0.1250031  )
         4           C   tau(   4) = (  0.1250031  0.8749969  0.6250031  )
         5           C   tau(   5) = (  0.6250031  0.3749969  0.1250031  )
         6           C   tau(   6) = (  0.6250031  0.3749969  0.6250031  )
         7           C   tau(   7) = (  0.6250031  0.8749969  0.1250031  )
         8           C   tau(   8) = (  0.6250031  0.8749969  0.6250031  )
         9           C   tau(   9) = (  0.0000000  0.0000000  0.2500000  )
        10           C   tau(  10) = (  0.0000000  0.0000000  0.7500000  )
        11           C   tau(  11) = (  0.0000000  0.5000000  0.2500000  )
        12           C   tau(  12) = (  0.0000000  0.5000000  0.7500000  )
        13           C   tau(  13) = (  0.5000000  0.0000000  0.2500000  )
        14           C   tau(  14) = (  0.5000000  0.0000000  0.7500000  )
        15           C   tau(  15) = (  0.5000000  0.5000000  0.2500000  )
        16           C   tau(  16) = (  0.5000000  0.5000000  0.7500000  )
        17           C   tau(  17) = (  0.1250031  0.1250031  0.3749969  )
        18           C   tau(  18) = (  0.1250031  0.1250031  0.8749969  )
        19           C   tau(  19) = (  0.1250031  0.6250031  0.3749969  )
        20           C   tau(  20) = (  0.1250031  0.6250031  0.8749969  )
        21           C   tau(  21) = (  0.6250031  0.1250031  0.3749969  )
        22           C   tau(  22) = (  0.6250031  0.1250031  0.8749969  )
        23           C   tau(  23) = (  0.6250031  0.6250031  0.3749969  )
        24           C   tau(  24) = (  0.6250031  0.6250031  0.8749969  )
        25           C   tau(  25) = (  0.0000000  0.2500000  0.0000000  )
        26           C   tau(  26) = (  0.0000000  0.2500000  0.5000000  )
        27           C   tau(  27) = (  0.0000000  0.7500000  0.0000000  )
        28           C   tau(  28) = (  0.0000000  0.7500000  0.5000000  )
        29           C   tau(  29) = (  0.5000000  0.2500000  0.0000000  )
        30           C   tau(  30) = (  0.5000000  0.2500000  0.5000000  )
        31           C   tau(  31) = (  0.5000000  0.7500000  0.0000000  )
        32           C   tau(  32) = (  0.5000000  0.7500000  0.5000000  )
        33           C   tau(  33) = (  0.3749969  0.3749969  0.3749969  )
        34           C   tau(  34) = (  0.3749969  0.3749969  0.8749969  )
        35           C   tau(  35) = (  0.3749969  0.8749969  0.3749969  )
        36           C   tau(  36) = (  0.3749969  0.8749969  0.8749969  )
        37           C   tau(  37) = (  0.8749969  0.3749969  0.3749969  )
        38           C   tau(  38) = (  0.8749969  0.3749969  0.8749969  )
        39           C   tau(  39) = (  0.8749969  0.8749969  0.3749969  )
        40           C   tau(  40) = (  0.8749969  0.8749969  0.8749969  )
        41           C   tau(  41) = (  0.2500000  0.0000000  0.0000000  )
        42           C   tau(  42) = (  0.2500000  0.0000000  0.5000000  )
        43           C   tau(  43) = (  0.2500000  0.5000000  0.0000000  )
        44           C   tau(  44) = (  0.2500000  0.5000000  0.5000000  )
        45           C   tau(  45) = (  0.7500000  0.0000000  0.0000000  )
        46           C   tau(  46) = (  0.7500000  0.0000000  0.5000000  )
        47           C   tau(  47) = (  0.7500000  0.5000000  0.0000000  )
        48           C   tau(  48) = (  0.7500000  0.5000000  0.5000000  )
        49           C   tau(  49) = (  0.3749969  0.1250031  0.1250031  )
        50           C   tau(  50) = (  0.3749969  0.1250031  0.6250031  )
        51           C   tau(  51) = (  0.3749969  0.6250031  0.1250031  )
        52           C   tau(  52) = (  0.3749969  0.6250031  0.6250031  )
        53           C   tau(  53) = (  0.8749969  0.1250031  0.1250031  )
        54           C   tau(  54) = (  0.8749969  0.1250031  0.6250031  )
        55           C   tau(  55) = (  0.8749969  0.6250031  0.1250031  )
        56           C   tau(  56) = (  0.8749969  0.6250031  0.6250031  )
        57           C   tau(  57) = (  0.2500000  0.2500000  0.2500000  )
        58           C   tau(  58) = (  0.2500000  0.2500000  0.7500000  )
        59           C   tau(  59) = (  0.2500000  0.7500000  0.2500000  )
        60           C   tau(  60) = (  0.2500000  0.7500000  0.7500000  )
        61           C   tau(  61) = (  0.7500000  0.2500000  0.2500000  )
        62           C   tau(  62) = (  0.7500000  0.2500000  0.7500000  )
        63           C   tau(  63) = (  0.7500000  0.7500000  0.2500000  )
        64           C   tau(  64) = (  0.7500000  0.7500000  0.7500000  )

     number of k points=     4  Gaussian smearing, width (Ry)=  0.0100
                       cart. coord. in units 2pi/alat
        k(    1) = (   0.0000000   0.0000000   0.0000000), wk =   0.2500000
        k(    2) = (   0.0000000   0.0000000  -0.5000000), wk =   0.7500000
        k(    3) = (   0.0000000  -0.5000000  -0.5000000), wk =   0.7500000
        k(    4) = (  -0.5000000  -0.5000000  -0.5000000), wk =   0.2500000

                       cryst. coord.
        k(    1) = (   0.0000000   0.0000000   0.0000000), wk =   0.2500000
        k(    2) = (   0.0000000   0.0000000  -0.5000000), wk =   0.7500000
        k(    3) = (   0.0000000  -0.5000000  -0.5000000), wk =   0.7500000
        k(    4) = (  -0.5000000  -0.5000000  -0.5000000), wk =   0.2500000

     Dense  grid:   272153 G-vectors     FFT dimensions: (  81,  81,  81)

     Smooth grid:   194543 G-vectors     FFT dimensions: (  72,  72,  72)

     Dynamical RAM for                 wfc:       1.79 MB

     Dynamical RAM for     wfc (w. buffer):       1.79 MB

     Dynamical RAM for           str. fact:       0.13 MB

     Dynamical RAM for           local pot:       0.00 MB

     Dynamical RAM for          nlocal pot:       5.94 MB

     Dynamical RAM for                qrad:       0.43 MB

     Dynamical RAM for          rho,v,vnew:       0.84 MB

     Dynamical RAM for               rhoin:       0.28 MB

     Dynamical RAM for            rho*nmix:       2.08 MB

     Dynamical RAM for           G-vectors:       0.53 MB

     Dynamical RAM for          h,s,v(r/c):      17.37 MB

     Dynamical RAM for          <psi|beta>:       1.20 MB

     Dynamical RAM for                 psi:       7.14 MB

     Dynamical RAM for                hpsi:       7.14 MB

     Dynamical RAM for                spsi:       7.14 MB

     Dynamical RAM for      wfcinit/wfcrot:       4.12 MB

     Dynamical RAM for           addusdens:       3.57 MB

     Dynamical RAM for          addusforce:       7.68 MB

     Dynamical RAM for         addusstress:       1.67 MB

     Estimated static dynamical RAM per process >      10.95 MB

     Estimated max dynamical RAM per process >      53.03 MB

     Estimated total dynamical RAM >       6.43 GB

     Atomic positions and unit cell read from directory:
     ./diamond.save/
 

     Check: negative core charge=   -0.000014

     The initial density is read from file :
     ./diamond.save/charge-density



     %%%%%%%%%%%%%%%%%%%%%%%%%%%%%%%%%%%%%%%%%%%%%%%%%%%%%%%%%%%%%%%%%%%%%%%%
     %                                                                      %
     % You are using vdW-DF, which was implemented by the Thonhauser group. %
     % Please cite the following two papers that made this development      %
     % possible and the two reviews that describe the various versions:     %
     %                                                                      %
     %   T. Thonhauser et al., PRL 115, 136402 (2015).                      %
     %   T. Thonhauser et al., PRB 76, 125112 (2007).                       %
     %   K. Berland et al., Rep. Prog. Phys. 78, 066501 (2015).             %
     %   D.C. Langreth et al., J. Phys.: Condens. Matter 21, 084203 (2009). %
     %                                                                      %
     % If you are calculating stress with vdW-DF, please also cite:         %
     %                                                                      %
     %   R. Sabatini et al., J. Phys.: Condens. Matter 24, 424209 (2012).   %
     %                                                                      %
     %%%%%%%%%%%%%%%%%%%%%%%%%%%%%%%%%%%%%%%%%%%%%%%%%%%%%%%%%%%%%%%%%%%%%%%%

     %%%%%%%%%%%%%%%%%%%%%%%%%%%%%%%%%%%%%%%%%%%%%%%%%%%%%%%%%%%%%%%%%%%%%%%%
     %                                                                      %
     %  vdW-DF NEWS:                                                        %
     %                                                                      %
     %  * vdW-DF3 is now available. DOI: 10.1021/acs.jctc.0c00471           %
     %    use with input_dft = 'vdW-DF3-opt1' or 'vdW-DF3-opt2'             %
     %                                                                      %
     %  * Unscreened and range-separated hybrid vdW-DF-cx functionals       %
     %    DOI: 10.1063/1.4986522 and 10.1088/1361-648X/ac2ad2               %
     %    use with input_dft = 'vdW-DF-cx0'    and 'vdW-DF-ahcx'            %
     %  * Unscreened and range-separated hybrid vdW-DF2-b86r functionals    %
     %    DOI: 10.1063/1.4986522 and DOI: 10.1103/PhysRevX.12.041003        %
     %    use with input_dft = 'vdW-DF2-br0' and 'vdW-DF2-ahbr'             %
     %                                                                      %
     %%%%%%%%%%%%%%%%%%%%%%%%%%%%%%%%%%%%%%%%%%%%%%%%%%%%%%%%%%%%%%%%%%%%%%%%


     Carrying out vdW-DF run using the following parameters:
     Nqs    =  20  Npoints =  1024  r_max =  100.000
     q_mesh =  0.00001000  0.04494208  0.09755937  0.15916263
               0.23128650  0.31572767  0.41458969  0.53033537
               0.66584808  0.82450364  1.01025438  1.22772762
               1.48234092  1.78043706  2.12944203  2.53805004
               3.01644009  3.57652955  4.23227104  5.00000000


     -----------------------------------------------
     Non-local corr. energy    =       2.18792087 Ry
     -----------------------------------------------

     Starting wfcs from file
     Checking if some PAW data can be deallocated... 

     total cpu time spent up to now is        2.2 secs

     Self-consistent Calculation

     iteration #  1     ecut=    70.00 Ry     beta= 0.70
     Davidson diagonalization with overlap

---- Real-time Memory Report at c_bands before calling an iterative solver
           165 MiB given to the printing process from OS
             0 MiB allocation reported by mallinfo(arena+hblkhd)
        975330 MiB available memory on the node where the printing process lives
------------------
     ethr =  1.00E-05,  avg # of iterations =  2.0

     Threshold (ethr) on eigenvalues was too large:
     Diagonalizing with lowered threshold

     Davidson diagonalization with overlap

---- Real-time Memory Report at c_bands before calling an iterative solver
           205 MiB given to the printing process from OS
             0 MiB allocation reported by mallinfo(arena+hblkhd)
        972313 MiB available memory on the node where the printing process lives
------------------
     ethr =  5.88E-11,  avg # of iterations = 18.5


     -----------------------------------------------
     Non-local corr. energy    =       2.18792139 Ry
     -----------------------------------------------


     total cpu time spent up to now is        9.2 secs

     total energy              =   -1215.53743289 Ry
     estimated scf accuracy    <       0.00000020 Ry

     iteration #  2     ecut=    70.00 Ry     beta= 0.70
     Davidson diagonalization with overlap

---- Real-time Memory Report at c_bands before calling an iterative solver
           218 MiB given to the printing process from OS
             0 MiB allocation reported by mallinfo(arena+hblkhd)
        971717 MiB available memory on the node where the printing process lives
------------------
     ethr =  7.95E-11,  avg # of iterations = 13.8


     -----------------------------------------------
     Non-local corr. energy    =       2.18792136 Ry
     -----------------------------------------------


     total cpu time spent up to now is       15.1 secs

     total energy              =   -1215.53743291 Ry
     estimated scf accuracy    <       0.00000046 Ry

     iteration #  3     ecut=    70.00 Ry     beta= 0.70
     Davidson diagonalization with overlap

---- Real-time Memory Report at c_bands before calling an iterative solver
           222 MiB given to the printing process from OS
             0 MiB allocation reported by mallinfo(arena+hblkhd)
        971496 MiB available memory on the node where the printing process lives
------------------
     ethr =  7.95E-11,  avg # of iterations = 13.3


     -----------------------------------------------
     Non-local corr. energy    =       2.18792124 Ry
     -----------------------------------------------


     total cpu time spent up to now is       19.9 secs

     End of self-consistent calculation

          k = 0.0000 0.0000 0.0000 ( 24303 PWs)   bands (ev):

    -8.4621  -6.1938  -6.1938  -6.1938  -6.1935  -6.1935  -6.1935  -4.0353
    -4.0353  -4.0353  -4.0349  -4.0349  -4.0349  -4.0348  -4.0348  -4.0348
    -4.0346  -4.0346  -4.0346  -2.7976  -2.7971  -2.7971  -2.7971  -0.2751
    -0.2751  -0.2751  -0.2746   0.1816   0.1819   0.1819   0.1819   0.1820
     0.1820   0.9216   0.9216   0.9216   0.9218   0.9218   0.9218   0.9219
     0.9219   0.9219   0.9220   0.9220   0.9221   4.2491   4.2493   4.2493
     4.2493   4.2493   4.2493   4.2493   4.2494   4.2494   4.2495   4.2495
     4.2495   4.7807   4.7808   4.7808   4.7808   4.7808   4.7808   4.7808
     4.7810   4.7810   4.7810   4.7810   4.7810   5.4478   5.4479   5.4479
     5.4479   5.4481   5.4481   5.4481   5.4482   5.4482   5.4483   5.4483
     5.4483   6.7175   6.7175   6.7175   6.7177   6.7177   6.7177   8.3880
     8.3882   8.3882   8.3882   8.3885   8.3885   8.8796   8.8796   8.8796
     8.8799   8.8799   8.8799   8.8802   8.8802   8.8802   8.8804   8.8804
     8.8804   9.9673   9.9673   9.9673   9.9675   9.9675   9.9675   9.9676
     9.9676   9.9676   9.9680   9.9680   9.9683  10.1708  10.1708  10.1708
    10.1712  10.1712  10.1712  10.1716  10.1716  12.9574  12.9574  12.9574
    17.5316  17.5321  17.5321  17.5322  17.5322  17.5322  17.9336  17.9336
    17.9339  17.9339  17.9339  17.9346  18.6208  18.6208  18.6208  21.0179
    21.0179  21.0179  21.0182  21.0185  21.0185  21.0185  21.0185  21.0185
    21.0185  21.0187

     occupation numbers 
     1.0000   1.0000   1.0000   1.0000   1.0000   1.0000   1.0000   1.0000
     1.0000   1.0000   1.0000   1.0000   1.0000   1.0000   1.0000   1.0000
     1.0000   1.0000   1.0000   1.0000   1.0000   1.0000   1.0000   1.0000
     1.0000   1.0000   1.0000   1.0000   1.0000   1.0000   1.0000   1.0000
     1.0000   1.0000   1.0000   1.0000   1.0000   1.0000   1.0000   1.0000
     1.0000   1.0000   1.0000   1.0000   1.0000   1.0000   1.0000   1.0000
     1.0000   1.0000   1.0000   1.0000   1.0000   1.0000   1.0000   1.0000
     1.0000   1.0000   1.0000   1.0000   1.0000   1.0000   1.0000   1.0000
     1.0000   1.0000   1.0000   1.0000   1.0000   1.0000   1.0000   1.0000
     1.0000   1.0000   1.0000   1.0000   1.0000   1.0000   1.0000   1.0000
     1.0000   1.0000   1.0000   1.0000   1.0000   1.0000   1.0000   1.0000
     1.0000   1.0000   1.0000   1.0000   1.0000   1.0000   1.0000   1.0000
     1.0000   1.0000   1.0000   1.0000   1.0000   1.0000   1.0000   1.0000
     1.0000   1.0000   1.0000   1.0000   1.0000   1.0000   1.0000   1.0000
     1.0000   1.0000   1.0000   1.0000   1.0000   1.0000   1.0000   1.0000
     1.0000   1.0000   1.0000   1.0000   1.0000   1.0000   1.0000   1.0000
     0.0000   0.0000   0.0000   0.0000   0.0000   0.0000   0.0000   0.0000
     0.0000   0.0000   0.0000   0.0000   0.0000   0.0000   0.0000   0.0000
     0.0000   0.0000   0.0000   0.0000   0.0000   0.0000   0.0000   0.0000
     0.0000   0.0000

          k = 0.0000 0.0000-0.5000 ( 24268 PWs)   bands (ev):

    -7.8901  -7.8899  -5.6433  -5.6433  -5.6431  -5.6431  -5.6429  -5.6429
    -5.6428  -5.6427  -3.5697  -3.5696  -3.5692  -3.5692  -3.5690  -3.5690
    -3.5690  -3.5689  -3.4457  -3.4457  -1.5778  -1.5778  -1.5777  -1.5777
    -1.5775  -1.5774  -1.5774  -1.5774   0.5019   0.5020   0.5020   0.5020
     0.5022   0.5022   0.5022   0.5024   1.4836   1.4836   1.4838   1.4838
     1.4839   1.4839   1.4843   1.4843   2.5268   2.5268   2.5268   2.5269
     2.5269   2.5269   2.5270   2.5270   4.2202   4.2203   4.2204   4.2204
     4.2204   4.2205   4.2205   4.2205   4.3291   4.3292   5.7414   5.7414
     5.7414   5.7414   5.7415   5.7415   5.7415   5.7416   6.4352   6.4353
     6.4353   6.4353   6.4354   6.4354   6.4354   6.4355   7.2730   7.2730
     7.2735   7.2735   7.5242   7.5243   7.5244   7.5245   7.5245   7.5245
     7.5245   7.5245   7.5520   7.5520   7.5521   7.5521   7.5522   7.5522
     7.5523   7.5524   8.4026   8.4026   8.4027   8.4027   8.4031   8.4031
     8.4034   8.4034  10.0666  10.0666  10.0666  10.0670  10.0670  10.0671
    10.0675  10.0679  10.0860  10.0860  10.0861  10.0864  10.0866  10.0866
    10.0867  10.0869  11.2564  11.2564  11.2567  11.2567  11.6068  11.6073
    17.2642  17.2642  18.2300  18.2305  19.6329  19.6332  19.6333  19.6333
    19.6334  19.6338  19.6338  19.6338  19.9326  19.9326  20.0199  20.0202
    20.0202  20.0204  20.0205  20.0207  20.0207  20.0210  20.8177  20.8177
    20.8180  20.8180

     occupation numbers 
     1.0000   1.0000   1.0000   1.0000   1.0000   1.0000   1.0000   1.0000
     1.0000   1.0000   1.0000   1.0000   1.0000   1.0000   1.0000   1.0000
     1.0000   1.0000   1.0000   1.0000   1.0000   1.0000   1.0000   1.0000
     1.0000   1.0000   1.0000   1.0000   1.0000   1.0000   1.0000   1.0000
     1.0000   1.0000   1.0000   1.0000   1.0000   1.0000   1.0000   1.0000
     1.0000   1.0000   1.0000   1.0000   1.0000   1.0000   1.0000   1.0000
     1.0000   1.0000   1.0000   1.0000   1.0000   1.0000   1.0000   1.0000
     1.0000   1.0000   1.0000   1.0000   1.0000   1.0000   1.0000   1.0000
     1.0000   1.0000   1.0000   1.0000   1.0000   1.0000   1.0000   1.0000
     1.0000   1.0000   1.0000   1.0000   1.0000   1.0000   1.0000   1.0000
     1.0000   1.0000   1.0000   1.0000   1.0000   1.0000   1.0000   1.0000
     1.0000   1.0000   1.0000   1.0000   1.0000   1.0000   1.0000   1.0000
     1.0000   1.0000   1.0000   1.0000   1.0000   1.0000   1.0000   1.0000
     1.0000   1.0000   1.0000   1.0000   1.0000   1.0000   1.0000   1.0000
     1.0000   1.0000   1.0000   1.0000   1.0000   1.0000   1.0000   1.0000
     1.0000   1.0000   1.0000   1.0000   1.0000   1.0000   1.0000   1.0000
     0.0000   0.0000   0.0000   0.0000   0.0000   0.0000   0.0000   0.0000
     0.0000   0.0000   0.0000   0.0000   0.0000   0.0000   0.0000   0.0000
     0.0000   0.0000   0.0000   0.0000   0.0000   0.0000   0.0000   0.0000
     0.0000   0.0000

          k = 0.0000-0.5000-0.5000 ( 24324 PWs)   bands (ev):

    -7.3224  -7.3222  -7.3222  -7.3221  -5.1042  -5.1040  -5.1040  -5.1039
    -5.1039  -5.1037  -5.1037  -5.1035  -2.9461  -2.9460  -2.9460  -2.9459
    -2.9459  -2.9458  -2.9458  -2.9457  -1.7876  -1.7876  -1.7876  -1.7876
    -1.7873  -1.7873  -1.7873  -1.7873  -0.0857  -0.0857  -0.0856  -0.0856
     0.7019   0.7019   0.7019   0.7021   0.7023   0.7024   0.7024   0.7024
     1.2138   1.2139   1.2139   1.2139   3.8071   3.8071   3.8072   3.8072
     3.8869   3.8870   3.8871   3.8871   3.8873   3.8873   3.8875   3.8875
     3.8954   3.8955   3.8955   3.8955   3.8955   3.8955   3.8955   3.8956
     6.0485   6.0485   6.0486   6.0486   6.0486   6.0487   6.0487   6.0487
     6.6723   6.6726   6.6726   6.6727   6.6729   6.6731   6.6731   6.6733
     7.0990   7.0992   7.0992   7.0993   7.0995   7.0996   7.0996   7.0998
     7.6424   7.6424   7.6425   7.6425   8.3262   8.3262   8.3262   8.3262
     8.3266   8.3266   8.3266   8.3266   8.9739   8.9742   8.9742   8.9742
     9.4663   9.4663   9.4664   9.4665   9.4669   9.4669   9.4670   9.4671
     9.7521   9.7524   9.7524   9.7524   9.7657   9.7659   9.7662   9.7662
     9.7664   9.7664   9.7667   9.7668  12.2000  12.2006  12.2006  12.2014
    18.8414  18.8414  18.8414  18.8414  19.4259  19.4259  19.4260  19.4260
    19.4265  19.4265  19.4266  19.4266  19.7752  19.7758  19.7758  19.7766
    20.0781  20.0783  20.0785  20.0785  20.0788  20.0788  20.0789  20.0791
    21.0901  21.0901

     occupation numbers 
     1.0000   1.0000   1.0000   1.0000   1.0000   1.0000   1.0000   1.0000
     1.0000   1.0000   1.0000   1.0000   1.0000   1.0000   1.0000   1.0000
     1.0000   1.0000   1.0000   1.0000   1.0000   1.0000   1.0000   1.0000
     1.0000   1.0000   1.0000   1.0000   1.0000   1.0000   1.0000   1.0000
     1.0000   1.0000   1.0000   1.0000   1.0000   1.0000   1.0000   1.0000
     1.0000   1.0000   1.0000   1.0000   1.0000   1.0000   1.0000   1.0000
     1.0000   1.0000   1.0000   1.0000   1.0000   1.0000   1.0000   1.0000
     1.0000   1.0000   1.0000   1.0000   1.0000   1.0000   1.0000   1.0000
     1.0000   1.0000   1.0000   1.0000   1.0000   1.0000   1.0000   1.0000
     1.0000   1.0000   1.0000   1.0000   1.0000   1.0000   1.0000   1.0000
     1.0000   1.0000   1.0000   1.0000   1.0000   1.0000   1.0000   1.0000
     1.0000   1.0000   1.0000   1.0000   1.0000   1.0000   1.0000   1.0000
     1.0000   1.0000   1.0000   1.0000   1.0000   1.0000   1.0000   1.0000
     1.0000   1.0000   1.0000   1.0000   1.0000   1.0000   1.0000   1.0000
     1.0000   1.0000   1.0000   1.0000   1.0000   1.0000   1.0000   1.0000
     1.0000   1.0000   1.0000   1.0000   1.0000   1.0000   1.0000   1.0000
     0.0000   0.0000   0.0000   0.0000   0.0000   0.0000   0.0000   0.0000
     0.0000   0.0000   0.0000   0.0000   0.0000   0.0000   0.0000   0.0000
     0.0000   0.0000   0.0000   0.0000   0.0000   0.0000   0.0000   0.0000
     0.0000   0.0000

          k =-0.5000-0.5000-0.5000 ( 24464 PWs)   bands (ev):

    -6.7600  -6.7599  -6.7599  -6.7599  -6.7597  -6.7597  -6.7597  -6.7596
    -2.5032  -2.5031  -2.5031  -2.5031  -2.5030  -2.5030  -2.5030  -2.5030
    -2.5030  -2.5029  -2.5029  -2.5029  -2.5029  -2.5028  -2.5028  -2.5028
    -2.5027  -2.5027  -2.5027  -2.5027  -2.5027  -2.5027  -2.5026  -2.5026
     2.2071   2.2071   2.2071   2.2071   2.2072   2.2072   2.2073   2.2073
     2.2073   2.2073   2.2073   2.2073   2.2075   2.2075   2.2076   2.2076
     2.2076   2.2076   2.2076   2.2076   2.2076   2.2076   2.2076   2.2076
     6.2677   6.2681   6.2681   6.2681   6.2683   6.2683   6.2683   6.2683
     6.2683   6.2683   6.2684   6.2684   6.2684   6.2687   6.2687   6.2687
     6.2687   6.2687   6.2687   6.2689   6.2689   6.2689   6.2691   6.2691
     6.4001   6.4003   6.4005   6.4005   6.4005   6.4005   6.4005   6.4005
     8.1248   8.1248   8.1248   8.1249   8.1249   8.1249   8.1249   8.1252
     8.1252   8.1254   8.1254   8.1254   8.1255   8.1255   8.1255   8.1255
     8.1255   8.1255   8.1255   8.1255   8.1258   8.1258   8.1258   8.1260
    11.2241  11.2241  11.2246  11.2246  11.2246  11.2247  11.2247  11.2247
    11.2249  11.2249  11.2249  11.2252  11.2252  11.2252  11.2255  11.2255
    19.2160  19.2160  19.2160  19.2162  19.2162  19.2164  19.2164  19.2164
    19.2165  19.2165  19.2165  19.2165  19.2165  19.2165  19.2166  19.2168
    19.2168  19.2169  19.2169  19.2169  19.2169  19.2170  19.2170  19.2170
    20.8180  20.8180

     occupation numbers 
     1.0000   1.0000   1.0000   1.0000   1.0000   1.0000   1.0000   1.0000
     1.0000   1.0000   1.0000   1.0000   1.0000   1.0000   1.0000   1.0000
     1.0000   1.0000   1.0000   1.0000   1.0000   1.0000   1.0000   1.0000
     1.0000   1.0000   1.0000   1.0000   1.0000   1.0000   1.0000   1.0000
     1.0000   1.0000   1.0000   1.0000   1.0000   1.0000   1.0000   1.0000
     1.0000   1.0000   1.0000   1.0000   1.0000   1.0000   1.0000   1.0000
     1.0000   1.0000   1.0000   1.0000   1.0000   1.0000   1.0000   1.0000
     1.0000   1.0000   1.0000   1.0000   1.0000   1.0000   1.0000   1.0000
     1.0000   1.0000   1.0000   1.0000   1.0000   1.0000   1.0000   1.0000
     1.0000   1.0000   1.0000   1.0000   1.0000   1.0000   1.0000   1.0000
     1.0000   1.0000   1.0000   1.0000   1.0000   1.0000   1.0000   1.0000
     1.0000   1.0000   1.0000   1.0000   1.0000   1.0000   1.0000   1.0000
     1.0000   1.0000   1.0000   1.0000   1.0000   1.0000   1.0000   1.0000
     1.0000   1.0000   1.0000   1.0000   1.0000   1.0000   1.0000   1.0000
     1.0000   1.0000   1.0000   1.0000   1.0000   1.0000   1.0000   1.0000
     1.0000   1.0000   1.0000   1.0000   1.0000   1.0000   1.0000   1.0000
     0.0000   0.0000   0.0000   0.0000   0.0000   0.0000   0.0000   0.0000
     0.0000   0.0000   0.0000   0.0000   0.0000   0.0000   0.0000   0.0000
     0.0000   0.0000   0.0000   0.0000   0.0000   0.0000   0.0000   0.0000
     0.0000   0.0000

     the Fermi energy is    14.3824 ev

!    total energy              =   -1215.53743300 Ry
     total all-electron energy =     -4912.439648 Ry
     estimated scf accuracy    <          8.0E-09 Ry
     smearing contrib. (-TS)   =      -0.00000000 Ry
     internal energy E=F+TS    =   -1215.53743300 Ry

     The total energy is F=E-TS. E is the sum of the following terms:
     one-electron contribution =     268.64294958 Ry
     hartree contribution      =      63.60329673 Ry
     xc contribution           =    -312.03474258 Ry
     ewald contribution        =    -817.11562415 Ry
     one-center paw contrib.   =    -418.63331258 Ry
      -> PAW hartree energy AE =       8.97863454 Ry
      -> PAW hartree energy PS =      -8.97032474 Ry
      -> PAW xc energy AE      =     -11.11068028 Ry
      -> PAW xc energy PS      =       4.56122186 Ry
      -> total E_H with PAW    =      63.61160653 Ry
      -> total E_XC with PAW   =    -318.58420100 Ry

     convergence has been achieved in   3 iterations


     -----------------------------------------------
     Non-local corr. energy    =       2.18792124 Ry
     -----------------------------------------------


     Forces acting on atoms (cartesian axes, Ry/au):

     atom    1 type  1   force =     0.00021947    0.00046631    0.00021947
     atom    2 type  1   force =     0.00009878    0.00041437   -0.00041437
     atom    3 type  1   force =     0.00023469   -0.00023469    0.00023469
     atom    4 type  1   force =     0.00021947   -0.00021947   -0.00046631
     atom    5 type  1   force =    -0.00041437    0.00041437    0.00009878
     atom    6 type  1   force =    -0.00010541    0.00010541   -0.00010541
     atom    7 type  1   force =    -0.00046631   -0.00021947    0.00021947
     atom    8 type  1   force =    -0.00041437   -0.00009878   -0.00041437
     atom    9 type  1   force =     0.00000000    0.00000000    0.00060441
     atom   10 type  1   force =     0.00000000    0.00000000   -0.00060441
     atom   11 type  1   force =     0.00000000    0.00000000    0.00037615
     atom   12 type  1   force =     0.00000000    0.00000000   -0.00037615
     atom   13 type  1   force =     0.00000000   -0.00000000    0.00037615
     atom   14 type  1   force =     0.00000000   -0.00000000   -0.00037615
     atom   15 type  1   force =     0.00000000    0.00000000    0.00005813
     atom   16 type  1   force =     0.00000000    0.00000000   -0.00005813
     atom   17 type  1   force =     0.00021947    0.00021947    0.00046631
     atom   18 type  1   force =     0.00023469    0.00023469   -0.00023469
     atom   19 type  1   force =     0.00009878   -0.00041437    0.00041437
     atom   20 type  1   force =     0.00021947   -0.00046631   -0.00021947
     atom   21 type  1   force =    -0.00041437    0.00009878    0.00041437
     atom   22 type  1   force =    -0.00046631    0.00021947   -0.00021947
     atom   23 type  1   force =    -0.00010541   -0.00010541    0.00010541
     atom   24 type  1   force =    -0.00041437   -0.00041437   -0.00009878
     atom   25 type  1   force =     0.00000000    0.00060441    0.00000000
     atom   26 type  1   force =     0.00000000    0.00037615    0.00000000
     atom   27 type  1   force =     0.00000000   -0.00060441    0.00000000
     atom   28 type  1   force =     0.00000000   -0.00037615    0.00000000
     atom   29 type  1   force =     0.00000000    0.00037615    0.00000000
     atom   30 type  1   force =     0.00000000    0.00005813    0.00000000
     atom   31 type  1   force =     0.00000000   -0.00037615    0.00000000
     atom   32 type  1   force =     0.00000000   -0.00005813    0.00000000
     atom   33 type  1   force =     0.00010541    0.00010541    0.00010541
     atom   34 type  1   force =     0.00041437    0.00041437   -0.00009878
     atom   35 type  1   force =     0.00041437   -0.00009878    0.00041437
     atom   36 type  1   force =     0.00046631   -0.00021947   -0.00021947
     atom   37 type  1   force =    -0.00009878    0.00041437    0.00041437
     atom   38 type  1   force =    -0.00021947    0.00046631   -0.00021947
     atom   39 type  1   force =    -0.00021947   -0.00021947    0.00046631
     atom   40 type  1   force =    -0.00023469   -0.00023469   -0.00023469
     atom   41 type  1   force =     0.00060441    0.00000000    0.00000000
     atom   42 type  1   force =     0.00037615    0.00000000    0.00000000
     atom   43 type  1   force =     0.00037615    0.00000000    0.00000000
     atom   44 type  1   force =     0.00005813    0.00000000    0.00000000
     atom   45 type  1   force =    -0.00060441    0.00000000    0.00000000
     atom   46 type  1   force =    -0.00037615    0.00000000    0.00000000
     atom   47 type  1   force =    -0.00037615    0.00000000    0.00000000
     atom   48 type  1   force =    -0.00005813    0.00000000    0.00000000
     atom   49 type  1   force =     0.00046631    0.00021947    0.00021947
     atom   50 type  1   force =     0.00041437    0.00009878   -0.00041437
     atom   51 type  1   force =     0.00041437   -0.00041437    0.00009878
     atom   52 type  1   force =     0.00010541   -0.00010541   -0.00010541
     atom   53 type  1   force =    -0.00023469    0.00023469    0.00023469
     atom   54 type  1   force =    -0.00021947    0.00021947   -0.00046631
     atom   55 type  1   force =    -0.00021947   -0.00046631    0.00021947
     atom   56 type  1   force =    -0.00009878   -0.00041437   -0.00041437
     atom   57 type  1   force =     0.00046218    0.00046218    0.00046218
     atom   58 type  1   force =     0.00040428    0.00040428   -0.00040428
     atom   59 type  1   force =     0.00040428   -0.00040428    0.00040428
     atom   60 type  1   force =     0.00046218   -0.00046218   -0.00046218
     atom   61 type  1   force =    -0.00040428    0.00040428    0.00040428
     atom   62 type  1   force =    -0.00046218    0.00046218   -0.00046218
     atom   63 type  1   force =    -0.00046218   -0.00046218    0.00046218
     atom   64 type  1   force =    -0.00040428   -0.00040428   -0.00040428
     The non-local contrib.  to forces
     atom    1 type  1   force =    -0.00025020   -0.00018317   -0.00025020
     atom    2 type  1   force =    -0.00005056   -0.00006272    0.00006272
     atom    3 type  1   force =    -0.00031788    0.00031788   -0.00031788
     atom    4 type  1   force =    -0.00025020    0.00025020    0.00018317
     atom    5 type  1   force =     0.00006272   -0.00006272   -0.00005056
     atom    6 type  1   force =     0.00002780   -0.00002780    0.00002780
     atom    7 type  1   force =     0.00018317    0.00025020   -0.00025020
     atom    8 type  1   force =     0.00006272    0.00005056    0.00006272
     atom    9 type  1   force =    -0.00000000   -0.00000000   -0.00037438
     atom   10 type  1   force =     0.00000000   -0.00000000    0.00037438
     atom   11 type  1   force =     0.00000000    0.00000000   -0.00029241
     atom   12 type  1   force =    -0.00000000    0.00000000    0.00029241
     atom   13 type  1   force =     0.00000000    0.00000000   -0.00029241
     atom   14 type  1   force =     0.00000000    0.00000000    0.00029241
     atom   15 type  1   force =     0.00000000    0.00000000    0.00006361
     atom   16 type  1   force =     0.00000000    0.00000000   -0.00006361
     atom   17 type  1   force =    -0.00025020   -0.00025020   -0.00018317
     atom   18 type  1   force =    -0.00031788   -0.00031788    0.00031788
     atom   19 type  1   force =    -0.00005056    0.00006272   -0.00006272
     atom   20 type  1   force =    -0.00025020    0.00018317    0.00025020
     atom   21 type  1   force =     0.00006272   -0.00005056   -0.00006272
     atom   22 type  1   force =     0.00018317   -0.00025020    0.00025020
     atom   23 type  1   force =     0.00002780    0.00002780   -0.00002780
     atom   24 type  1   force =     0.00006272    0.00006272    0.00005056
     atom   25 type  1   force =     0.00000000   -0.00037438    0.00000000
     atom   26 type  1   force =     0.00000000   -0.00029241    0.00000000
     atom   27 type  1   force =     0.00000000    0.00037438    0.00000000
     atom   28 type  1   force =     0.00000000    0.00029241    0.00000000
     atom   29 type  1   force =     0.00000000   -0.00029241    0.00000000
     atom   30 type  1   force =    -0.00000000    0.00006361    0.00000000
     atom   31 type  1   force =    -0.00000000    0.00029241   -0.00000000
     atom   32 type  1   force =    -0.00000000   -0.00006361    0.00000000
     atom   33 type  1   force =    -0.00002780   -0.00002780   -0.00002780
     atom   34 type  1   force =    -0.00006272   -0.00006272    0.00005056
     atom   35 type  1   force =    -0.00006272    0.00005056   -0.00006272
     atom   36 type  1   force =    -0.00018317    0.00025020    0.00025020
     atom   37 type  1   force =     0.00005056   -0.00006272   -0.00006272
     atom   38 type  1   force =     0.00025020   -0.00018317    0.00025020
     atom   39 type  1   force =     0.00025020    0.00025020   -0.00018317
     atom   40 type  1   force =     0.00031788    0.00031788    0.00031788
     atom   41 type  1   force =    -0.00037438    0.00000000    0.00000000
     atom   42 type  1   force =    -0.00029241    0.00000000    0.00000000
     atom   43 type  1   force =    -0.00029241    0.00000000    0.00000000
     atom   44 type  1   force =     0.00006361    0.00000000    0.00000000
     atom   45 type  1   force =     0.00037438    0.00000000    0.00000000
     atom   46 type  1   force =     0.00029241    0.00000000   -0.00000000
     atom   47 type  1   force =     0.00029241   -0.00000000    0.00000000
     atom   48 type  1   force =    -0.00006361    0.00000000    0.00000000
     atom   49 type  1   force =    -0.00018317   -0.00025020   -0.00025020
     atom   50 type  1   force =    -0.00006272   -0.00005056    0.00006272
     atom   51 type  1   force =    -0.00006272    0.00006272   -0.00005056
     atom   52 type  1   force =    -0.00002780    0.00002780    0.00002780
     atom   53 type  1   force =     0.00031788   -0.00031788   -0.00031788
     atom   54 type  1   force =     0.00025020   -0.00025020    0.00018317
     atom   55 type  1   force =     0.00025020    0.00018317   -0.00025020
     atom   56 type  1   force =     0.00005056    0.00006272    0.00006272
     atom   57 type  1   force =    -0.00015332   -0.00015332   -0.00015332
     atom   58 type  1   force =    -0.00024184   -0.00024184    0.00024184
     atom   59 type  1   force =    -0.00024184    0.00024184   -0.00024184
     atom   60 type  1   force =    -0.00015332    0.00015332    0.00015332
     atom   61 type  1   force =     0.00024184   -0.00024184   -0.00024184
     atom   62 type  1   force =     0.00015332   -0.00015332    0.00015332
     atom   63 type  1   force =     0.00015332    0.00015332   -0.00015332
     atom   64 type  1   force =     0.00024184    0.00024184    0.00024184
     The ionic contribution  to forces
     atom    1 type  1   force =    -0.00021959    0.00021936   -0.00021959
     atom    2 type  1   force =    -0.00021959    0.00021936   -0.00021928
     atom    3 type  1   force =    -0.00021959    0.00021956   -0.00021959
     atom    4 type  1   force =    -0.00021959    0.00021956   -0.00021928
     atom    5 type  1   force =    -0.00021928    0.00021936   -0.00021959
     atom    6 type  1   force =    -0.00021928    0.00021936   -0.00021928
     atom    7 type  1   force =    -0.00021928    0.00021956   -0.00021959
     atom    8 type  1   force =    -0.00021928    0.00021956   -0.00021928
     atom    9 type  1   force =    -0.00000016   -0.00000016   -0.00000013
     atom   10 type  1   force =    -0.00000016   -0.00000016    0.00000019
     atom   11 type  1   force =    -0.00000016    0.00000004   -0.00000013
     atom   12 type  1   force =    -0.00000016    0.00000004    0.00000019
     atom   13 type  1   force =     0.00000004   -0.00000016   -0.00000013
     atom   14 type  1   force =     0.00000004   -0.00000016    0.00000019
     atom   15 type  1   force =     0.00000004    0.00000004   -0.00000013
     atom   16 type  1   force =     0.00000004    0.00000004    0.00000019
     atom   17 type  1   force =    -0.00021959   -0.00021959    0.00021936
     atom   18 type  1   force =    -0.00021959   -0.00021959    0.00021956
     atom   19 type  1   force =    -0.00021959   -0.00021928    0.00021936
     atom   20 type  1   force =    -0.00021959   -0.00021928    0.00021956
     atom   21 type  1   force =    -0.00021928   -0.00021959    0.00021936
     atom   22 type  1   force =    -0.00021928   -0.00021959    0.00021956
     atom   23 type  1   force =    -0.00021928   -0.00021928    0.00021936
     atom   24 type  1   force =    -0.00021928   -0.00021928    0.00021956
     atom   25 type  1   force =    -0.00000016   -0.00000013   -0.00000016
     atom   26 type  1   force =    -0.00000016   -0.00000013    0.00000004
     atom   27 type  1   force =    -0.00000016    0.00000019   -0.00000016
     atom   28 type  1   force =    -0.00000016    0.00000019    0.00000004
     atom   29 type  1   force =     0.00000004   -0.00000013   -0.00000016
     atom   30 type  1   force =     0.00000004   -0.00000013    0.00000004
     atom   31 type  1   force =     0.00000004    0.00000019   -0.00000016
     atom   32 type  1   force =     0.00000004    0.00000019    0.00000004
     atom   33 type  1   force =     0.00021936    0.00021936    0.00021936
     atom   34 type  1   force =     0.00021936    0.00021936    0.00021956
     atom   35 type  1   force =     0.00021936    0.00021956    0.00021936
     atom   36 type  1   force =     0.00021936    0.00021956    0.00021956
     atom   37 type  1   force =     0.00021956    0.00021936    0.00021936
     atom   38 type  1   force =     0.00021956    0.00021936    0.00021956
     atom   39 type  1   force =     0.00021956    0.00021956    0.00021936
     atom   40 type  1   force =     0.00021956    0.00021956    0.00021956
     atom   41 type  1   force =    -0.00000013   -0.00000016   -0.00000016
     atom   42 type  1   force =    -0.00000013   -0.00000016    0.00000004
     atom   43 type  1   force =    -0.00000013    0.00000004   -0.00000016
     atom   44 type  1   force =    -0.00000013    0.00000004    0.00000004
     atom   45 type  1   force =     0.00000019   -0.00000016   -0.00000016
     atom   46 type  1   force =     0.00000019   -0.00000016    0.00000004
     atom   47 type  1   force =     0.00000019    0.00000004   -0.00000016
     atom   48 type  1   force =     0.00000019    0.00000004    0.00000004
     atom   49 type  1   force =     0.00021936   -0.00021959   -0.00021959
     atom   50 type  1   force =     0.00021936   -0.00021959   -0.00021928
     atom   51 type  1   force =     0.00021936   -0.00021928   -0.00021959
     atom   52 type  1   force =     0.00021936   -0.00021928   -0.00021928
     atom   53 type  1   force =     0.00021956   -0.00021959   -0.00021959
     atom   54 type  1   force =     0.00021956   -0.00021959   -0.00021928
     atom   55 type  1   force =     0.00021956   -0.00021928   -0.00021959
     atom   56 type  1   force =     0.00021956   -0.00021928   -0.00021928
     atom   57 type  1   force =    -0.00000013   -0.00000013   -0.00000013
     atom   58 type  1   force =    -0.00000013   -0.00000013    0.00000019
     atom   59 type  1   force =    -0.00000013    0.00000019   -0.00000013
     atom   60 type  1   force =    -0.00000013    0.00000019    0.00000019
     atom   61 type  1   force =     0.00000019   -0.00000013   -0.00000013
     atom   62 type  1   force =     0.00000019   -0.00000013    0.00000019
     atom   63 type  1   force =     0.00000019    0.00000019   -0.00000013
     atom   64 type  1   force =     0.00000019    0.00000019    0.00000019
     The local contribution  to forces
     atom    1 type  1   force =     0.00038660   -0.00003164    0.00038660
     atom    2 type  1   force =     0.00015223   -0.00014052    0.00014082
     atom    3 type  1   force =     0.00045702   -0.00045673    0.00045702
     atom    4 type  1   force =     0.00038660   -0.00038630    0.00003194
     atom    5 type  1   force =     0.00014082   -0.00014052    0.00015223
     atom    6 type  1   force =     0.00015331   -0.00015301    0.00015331
     atom    7 type  1   force =     0.00003194   -0.00038630    0.00038660
     atom    8 type  1   force =     0.00014082   -0.00015193    0.00014082
     atom    9 type  1   force =    -0.00000000   -0.00000000    0.00031216
     atom   10 type  1   force =     0.00000000    0.00000000   -0.00031186
     atom   11 type  1   force =    -0.00000000    0.00000015    0.00026786
     atom   12 type  1   force =     0.00000000    0.00000015   -0.00026757
     atom   13 type  1   force =     0.00000015   -0.00000000    0.00026786
     atom   14 type  1   force =     0.00000015    0.00000000   -0.00026757
     atom   15 type  1   force =     0.00000015    0.00000015   -0.00012231
     atom   16 type  1   force =     0.00000015    0.00000015    0.00012261
     atom   17 type  1   force =     0.00038660    0.00038660   -0.00003164
     atom   18 type  1   force =     0.00045702    0.00045702   -0.00045673
     atom   19 type  1   force =     0.00015223    0.00014082   -0.00014052
     atom   20 type  1   force =     0.00038660    0.00003194   -0.00038630
     atom   21 type  1   force =     0.00014082    0.00015223   -0.00014052
     atom   22 type  1   force =     0.00003194    0.00038660   -0.00038630
     atom   23 type  1   force =     0.00015331    0.00015331   -0.00015301
     atom   24 type  1   force =     0.00014082    0.00014082   -0.00015193
     atom   25 type  1   force =     0.00000000    0.00031216    0.00000000
     atom   26 type  1   force =    -0.00000000    0.00026786    0.00000015
     atom   27 type  1   force =    -0.00000000   -0.00031186    0.00000000
     atom   28 type  1   force =     0.00000000   -0.00026757    0.00000015
     atom   29 type  1   force =     0.00000015    0.00026786   -0.00000000
     atom   30 type  1   force =     0.00000015   -0.00012231    0.00000015
     atom   31 type  1   force =     0.00000015   -0.00026757    0.00000000
     atom   32 type  1   force =     0.00000015    0.00012261    0.00000015
     atom   33 type  1   force =    -0.00015301   -0.00015301   -0.00015301
     atom   34 type  1   force =    -0.00014052   -0.00014052   -0.00015193
     atom   35 type  1   force =    -0.00014052   -0.00015193   -0.00014052
     atom   36 type  1   force =    -0.00003164   -0.00038630   -0.00038630
     atom   37 type  1   force =    -0.00015193   -0.00014052   -0.00014052
     atom   38 type  1   force =    -0.00038630   -0.00003164   -0.00038630
     atom   39 type  1   force =    -0.00038630   -0.00038630   -0.00003164
     atom   40 type  1   force =    -0.00045673   -0.00045673   -0.00045673
     atom   41 type  1   force =     0.00031216    0.00000000   -0.00000000
     atom   42 type  1   force =     0.00026786   -0.00000000    0.00000015
     atom   43 type  1   force =     0.00026786    0.00000015   -0.00000000
     atom   44 type  1   force =    -0.00012231    0.00000015    0.00000015
     atom   45 type  1   force =    -0.00031186   -0.00000000   -0.00000000
     atom   46 type  1   force =    -0.00026757    0.00000000    0.00000015
     atom   47 type  1   force =    -0.00026757    0.00000015    0.00000000
     atom   48 type  1   force =     0.00012261    0.00000015    0.00000015
     atom   49 type  1   force =    -0.00003164    0.00038660    0.00038660
     atom   50 type  1   force =    -0.00014052    0.00015223    0.00014082
     atom   51 type  1   force =    -0.00014052    0.00014082    0.00015223
     atom   52 type  1   force =    -0.00015301    0.00015331    0.00015331
     atom   53 type  1   force =    -0.00045673    0.00045702    0.00045702
     atom   54 type  1   force =    -0.00038630    0.00038660    0.00003194
     atom   55 type  1   force =    -0.00038630    0.00003194    0.00038660
     atom   56 type  1   force =    -0.00015193    0.00014082    0.00014082
     atom   57 type  1   force =     0.00007791    0.00007791    0.00007791
     atom   58 type  1   force =     0.00018120    0.00018120   -0.00018090
     atom   59 type  1   force =     0.00018120   -0.00018090    0.00018120
     atom   60 type  1   force =     0.00007791   -0.00007761   -0.00007761
     atom   61 type  1   force =    -0.00018090    0.00018120    0.00018120
     atom   62 type  1   force =    -0.00007761    0.00007791   -0.00007761
     atom   63 type  1   force =    -0.00007761   -0.00007761    0.00007791
     atom   64 type  1   force =    -0.00018090   -0.00018090   -0.00018090
     The core correction contribution to forces
     atom    1 type  1   force =     0.00027490    0.00043830    0.00027490
     atom    2 type  1   force =     0.00020498    0.00038557   -0.00038559
     atom    3 type  1   force =     0.00027953   -0.00027955    0.00027953
     atom    4 type  1   force =     0.00027490   -0.00027492   -0.00043832
     atom    5 type  1   force =    -0.00038559    0.00038557    0.00020498
     atom    6 type  1   force =    -0.00006805    0.00006803   -0.00006805
     atom    7 type  1   force =    -0.00043832   -0.00027492    0.00027490
     atom    8 type  1   force =    -0.00038559   -0.00020500   -0.00038559
     atom    9 type  1   force =    -0.00000000   -0.00000000    0.00062147
     atom   10 type  1   force =    -0.00000000   -0.00000000   -0.00062149
     atom   11 type  1   force =    -0.00000000   -0.00000001    0.00036905
     atom   12 type  1   force =     0.00000000   -0.00000001   -0.00036907
     atom   13 type  1   force =    -0.00000001   -0.00000000    0.00036905
     atom   14 type  1   force =    -0.00000001    0.00000000   -0.00036907
     atom   15 type  1   force =    -0.00000001   -0.00000001    0.00011356
     atom   16 type  1   force =    -0.00000001   -0.00000001   -0.00011358
     atom   17 type  1   force =     0.00027490    0.00027490    0.00043830
     atom   18 type  1   force =     0.00027953    0.00027953   -0.00027955
     atom   19 type  1   force =     0.00020498   -0.00038559    0.00038557
     atom   20 type  1   force =     0.00027490   -0.00043832   -0.00027492
     atom   21 type  1   force =    -0.00038559    0.00020498    0.00038557
     atom   22 type  1   force =    -0.00043832    0.00027490   -0.00027492
     atom   23 type  1   force =    -0.00006805   -0.00006805    0.00006803
     atom   24 type  1   force =    -0.00038559   -0.00038559   -0.00020500
     atom   25 type  1   force =    -0.00000000    0.00062147   -0.00000000
     atom   26 type  1   force =    -0.00000000    0.00036905   -0.00000001
     atom   27 type  1   force =    -0.00000000   -0.00062149   -0.00000000
     atom   28 type  1   force =     0.00000000   -0.00036907   -0.00000001
     atom   29 type  1   force =    -0.00000001    0.00036905   -0.00000000
     atom   30 type  1   force =    -0.00000001    0.00011356   -0.00000001
     atom   31 type  1   force =    -0.00000001   -0.00036907    0.00000000
     atom   32 type  1   force =    -0.00000001   -0.00011358   -0.00000001
     atom   33 type  1   force =     0.00006803    0.00006803    0.00006803
     atom   34 type  1   force =     0.00038557    0.00038557   -0.00020500
     atom   35 type  1   force =     0.00038557   -0.00020500    0.00038557
     atom   36 type  1   force =     0.00043830   -0.00027492   -0.00027492
     atom   37 type  1   force =    -0.00020500    0.00038557    0.00038557
     atom   38 type  1   force =    -0.00027492    0.00043830   -0.00027492
     atom   39 type  1   force =    -0.00027492   -0.00027492    0.00043830
     atom   40 type  1   force =    -0.00027955   -0.00027955   -0.00027955
     atom   41 type  1   force =     0.00062147   -0.00000000   -0.00000000
     atom   42 type  1   force =     0.00036905   -0.00000000   -0.00000001
     atom   43 type  1   force =     0.00036905   -0.00000001   -0.00000000
     atom   44 type  1   force =     0.00011356   -0.00000001   -0.00000001
     atom   45 type  1   force =    -0.00062149   -0.00000000   -0.00000000
     atom   46 type  1   force =    -0.00036907    0.00000000   -0.00000001
     atom   47 type  1   force =    -0.00036907   -0.00000001    0.00000000
     atom   48 type  1   force =    -0.00011358   -0.00000001   -0.00000001
     atom   49 type  1   force =     0.00043830    0.00027490    0.00027490
     atom   50 type  1   force =     0.00038557    0.00020498   -0.00038559
     atom   51 type  1   force =     0.00038557   -0.00038559    0.00020498
     atom   52 type  1   force =     0.00006803   -0.00006805   -0.00006805
     atom   53 type  1   force =    -0.00027955    0.00027953    0.00027953
     atom   54 type  1   force =    -0.00027492    0.00027490   -0.00043832
     atom   55 type  1   force =    -0.00027492   -0.00043832    0.00027490
     atom   56 type  1   force =    -0.00020500   -0.00038559   -0.00038559
     atom   57 type  1   force =     0.00050862    0.00050862    0.00050862
     atom   58 type  1   force =     0.00043758    0.00043758   -0.00043760
     atom   59 type  1   force =     0.00043758   -0.00043760    0.00043758
     atom   60 type  1   force =     0.00050862   -0.00050864   -0.00050864
     atom   61 type  1   force =    -0.00043760    0.00043758    0.00043758
     atom   62 type  1   force =    -0.00050864    0.00050862   -0.00050864
     atom   63 type  1   force =    -0.00050864   -0.00050864    0.00050862
     atom   64 type  1   force =    -0.00043760   -0.00043760   -0.00043760
     The Hubbard contrib.    to forces
     atom    1 type  1   force =     0.00000000    0.00000000    0.00000000
     atom    2 type  1   force =     0.00000000    0.00000000    0.00000000
     atom    3 type  1   force =     0.00000000    0.00000000    0.00000000
     atom    4 type  1   force =     0.00000000    0.00000000    0.00000000
     atom    5 type  1   force =     0.00000000    0.00000000    0.00000000
     atom    6 type  1   force =     0.00000000    0.00000000    0.00000000
     atom    7 type  1   force =     0.00000000    0.00000000    0.00000000
     atom    8 type  1   force =     0.00000000    0.00000000    0.00000000
     atom    9 type  1   force =     0.00000000    0.00000000    0.00000000
     atom   10 type  1   force =     0.00000000    0.00000000    0.00000000
     atom   11 type  1   force =     0.00000000    0.00000000    0.00000000
     atom   12 type  1   force =     0.00000000    0.00000000    0.00000000
     atom   13 type  1   force =     0.00000000    0.00000000    0.00000000
     atom   14 type  1   force =     0.00000000    0.00000000    0.00000000
     atom   15 type  1   force =     0.00000000    0.00000000    0.00000000
     atom   16 type  1   force =     0.00000000    0.00000000    0.00000000
     atom   17 type  1   force =     0.00000000    0.00000000    0.00000000
     atom   18 type  1   force =     0.00000000    0.00000000    0.00000000
     atom   19 type  1   force =     0.00000000    0.00000000    0.00000000
     atom   20 type  1   force =     0.00000000    0.00000000    0.00000000
     atom   21 type  1   force =     0.00000000    0.00000000    0.00000000
     atom   22 type  1   force =     0.00000000    0.00000000    0.00000000
     atom   23 type  1   force =     0.00000000    0.00000000    0.00000000
     atom   24 type  1   force =     0.00000000    0.00000000    0.00000000
     atom   25 type  1   force =     0.00000000    0.00000000    0.00000000
     atom   26 type  1   force =     0.00000000    0.00000000    0.00000000
     atom   27 type  1   force =     0.00000000    0.00000000    0.00000000
     atom   28 type  1   force =     0.00000000    0.00000000    0.00000000
     atom   29 type  1   force =     0.00000000    0.00000000    0.00000000
     atom   30 type  1   force =     0.00000000    0.00000000    0.00000000
     atom   31 type  1   force =     0.00000000    0.00000000    0.00000000
     atom   32 type  1   force =     0.00000000    0.00000000    0.00000000
     atom   33 type  1   force =     0.00000000    0.00000000    0.00000000
     atom   34 type  1   force =     0.00000000    0.00000000    0.00000000
     atom   35 type  1   force =     0.00000000    0.00000000    0.00000000
     atom   36 type  1   force =     0.00000000    0.00000000    0.00000000
     atom   37 type  1   force =     0.00000000    0.00000000    0.00000000
     atom   38 type  1   force =     0.00000000    0.00000000    0.00000000
     atom   39 type  1   force =     0.00000000    0.00000000    0.00000000
     atom   40 type  1   force =     0.00000000    0.00000000    0.00000000
     atom   41 type  1   force =     0.00000000    0.00000000    0.00000000
     atom   42 type  1   force =     0.00000000    0.00000000    0.00000000
     atom   43 type  1   force =     0.00000000    0.00000000    0.00000000
     atom   44 type  1   force =     0.00000000    0.00000000    0.00000000
     atom   45 type  1   force =     0.00000000    0.00000000    0.00000000
     atom   46 type  1   force =     0.00000000    0.00000000    0.00000000
     atom   47 type  1   force =     0.00000000    0.00000000    0.00000000
     atom   48 type  1   force =     0.00000000    0.00000000    0.00000000
     atom   49 type  1   force =     0.00000000    0.00000000    0.00000000
     atom   50 type  1   force =     0.00000000    0.00000000    0.00000000
     atom   51 type  1   force =     0.00000000    0.00000000    0.00000000
     atom   52 type  1   force =     0.00000000    0.00000000    0.00000000
     atom   53 type  1   force =     0.00000000    0.00000000    0.00000000
     atom   54 type  1   force =     0.00000000    0.00000000    0.00000000
     atom   55 type  1   force =     0.00000000    0.00000000    0.00000000
     atom   56 type  1   force =     0.00000000    0.00000000    0.00000000
     atom   57 type  1   force =     0.00000000    0.00000000    0.00000000
     atom   58 type  1   force =     0.00000000    0.00000000    0.00000000
     atom   59 type  1   force =     0.00000000    0.00000000    0.00000000
     atom   60 type  1   force =     0.00000000    0.00000000    0.00000000
     atom   61 type  1   force =     0.00000000    0.00000000    0.00000000
     atom   62 type  1   force =     0.00000000    0.00000000    0.00000000
     atom   63 type  1   force =     0.00000000    0.00000000    0.00000000
     atom   64 type  1   force =     0.00000000    0.00000000    0.00000000
     The SCF correction term to forces
     atom    1 type  1   force =     0.00002789    0.00002365    0.00002789
     atom    2 type  1   force =     0.00001184    0.00001286   -0.00001286
     atom    3 type  1   force =     0.00003574   -0.00003574    0.00003574
     atom    4 type  1   force =     0.00002789   -0.00002789   -0.00002365
     atom    5 type  1   force =    -0.00001286    0.00001286    0.00001184
     atom    6 type  1   force =     0.00000100   -0.00000100    0.00000100
     atom    7 type  1   force =    -0.00002365   -0.00002789    0.00002789
     atom    8 type  1   force =    -0.00001286   -0.00001184   -0.00001286
     atom    9 type  1   force =     0.00000000    0.00000000    0.00004545
     atom   10 type  1   force =    -0.00000000   -0.00000000   -0.00004545
     atom   11 type  1   force =    -0.00000000    0.00000000    0.00003195
     atom   12 type  1   force =     0.00000000    0.00000000   -0.00003195
     atom   13 type  1   force =     0.00000000   -0.00000000    0.00003195
     atom   14 type  1   force =     0.00000000    0.00000000   -0.00003195
     atom   15 type  1   force =    -0.00000000   -0.00000000    0.00000356
     atom   16 type  1   force =     0.00000000    0.00000000   -0.00000356
     atom   17 type  1   force =     0.00002789    0.00002789    0.00002365
     atom   18 type  1   force =     0.00003574    0.00003574   -0.00003574
     atom   19 type  1   force =     0.00001184   -0.00001286    0.00001286
     atom   20 type  1   force =     0.00002789   -0.00002365   -0.00002789
     atom   21 type  1   force =    -0.00001286    0.00001184    0.00001286
     atom   22 type  1   force =    -0.00002365    0.00002789   -0.00002789
     atom   23 type  1   force =     0.00000100    0.00000100   -0.00000100
     atom   24 type  1   force =    -0.00001286   -0.00001286   -0.00001184
     atom   25 type  1   force =     0.00000000    0.00004545    0.00000000
     atom   26 type  1   force =    -0.00000000    0.00003195    0.00000000
     atom   27 type  1   force =    -0.00000000   -0.00004545   -0.00000000
     atom   28 type  1   force =     0.00000000   -0.00003195    0.00000000
     atom   29 type  1   force =     0.00000000    0.00003195   -0.00000000
     atom   30 type  1   force =    -0.00000000    0.00000356   -0.00000000
     atom   31 type  1   force =     0.00000000   -0.00003195    0.00000000
     atom   32 type  1   force =     0.00000000   -0.00000356    0.00000000
     atom   33 type  1   force =    -0.00000100   -0.00000100   -0.00000100
     atom   34 type  1   force =     0.00001286    0.00001286   -0.00001184
     atom   35 type  1   force =     0.00001286   -0.00001184    0.00001286
     atom   36 type  1   force =     0.00002365   -0.00002789   -0.00002789
     atom   37 type  1   force =    -0.00001184    0.00001286    0.00001286
     atom   38 type  1   force =    -0.00002789    0.00002365   -0.00002789
     atom   39 type  1   force =    -0.00002789   -0.00002789    0.00002365
     atom   40 type  1   force =    -0.00003574   -0.00003574   -0.00003574
     atom   41 type  1   force =     0.00004545    0.00000000    0.00000000
     atom   42 type  1   force =     0.00003195   -0.00000000    0.00000000
     atom   43 type  1   force =     0.00003195    0.00000000   -0.00000000
     atom   44 type  1   force =     0.00000356   -0.00000000   -0.00000000
     atom   45 type  1   force =    -0.00004545   -0.00000000   -0.00000000
     atom   46 type  1   force =    -0.00003195    0.00000000    0.00000000
     atom   47 type  1   force =    -0.00003195    0.00000000    0.00000000
     atom   48 type  1   force =    -0.00000356    0.00000000    0.00000000
     atom   49 type  1   force =     0.00002365    0.00002789    0.00002789
     atom   50 type  1   force =     0.00001286    0.00001184   -0.00001286
     atom   51 type  1   force =     0.00001286   -0.00001286    0.00001184
[...]
             -0.841479450127623E+01
              0.185842998674389E+02
              0.484015785959371E+01
             -0.289668168841204E+02
              0.112468342384066E+02
              0.216564692568467E+01
              0.324010549413121E+01
             -0.170735682355430E+02
              0.268664880446414E+01
              0.123399849241881E+02
              0.164004611235324E+02
              0.229880323089912E+02
              0.114550000019793E+02
              0.325468364557724E+01
             -0.191105593513384E+02
             -0.150698478761489E+02
             -0.236593718973669E+02
             -0.435110421214571E+01
              0.113194443906853E+02
              0.705206109739059E+00
              0.185188480806766E+02
             -0.112934383807850E+02
              0.691354741475644E+01
             -0.684968436060115E+01
             -0.930295549271334E+01
              0.205828755077101E+02
              0.194603203170171E+01
              0.219733017995264E+02
              0.164213499215785E+01
              0.709931787575856E+01
             -0.639897816470511E+01
              0.217592978763644E+02
             -0.496624744238588E+01
             -0.573709277134484E+00
             -0.277382292771814E+02
             -0.256581889134604E+01
              0.247793731011782E+02
              0.228202562323768E+02
              0.932573307907835E+01
             -0.655268483681252E+01
              0.156872224763416E+01
             -0.806989368583930E+01
             -0.632836143133193E+01
              0.319837045643916E+02
              0.240858086200245E+01
             -0.101999912857002E+02
             -0.381820592751771E+02
             -0.160071236529275E+02
             -0.131852159330619E+02
             -0.226469053062381E+02
             -0.202545653372340E+02
             -0.248407351212057E+02
             -0.156449056328613E+02
             -0.103954950444254E+02
             -0.175183708642083E+02
              0.154995218828919E+02
             -0.674568313960427E+01
             -0.309775298175098E+02
              0.140815060824201E+02
             -0.109261585948418E+02
             -0.287423065941283E+02
              0.354044310341716E+02
             -0.879183756563694E+01
              0.580715016387902E+01
              0.133906601073534E+02
              0.324864903687335E+01
              0.936076483385247E+01
              0.644804369828535E+00
              0.597624314961805E+00
             -0.387830456818623E+01
             -0.252783469517771E+02
              0.375178002704592E+01
             -0.428100224920004E+02
              0.247039765061928E+02
             -0.143373663460366E+02
             -0.718799259736059E+01
             -0.801581577175517E+01
              0.660057572647963E+01
             -0.562638181545802E+01
              0.104883472017083E+02
             -0.211046296326101E+02
              0.123393873735557E+02
              0.140273750783790E+02
              0.379370626358795E+01
              0.244949954298484E+01
              0.755914185163229E+01
              0.368073849134076E+01
              0.105389440894880E+02
             -0.123237757983146E+01
             -0.255850996482165E+02
              0.313251698426649E+01
             -0.110254334763831E+02
             -0.101723919375524E+01
              0.190488727726078E+02
             -0.277760761332695E+02
             -0.336245448693916E+00
              0.126481595851726E+01
              0.330084347635454E+01
              0.111258955365211E+02
             -0.404376810001674E+01
              0.302703879215861E+02
              0.138219555285616E+02
             -0.580609470427204E+01
             -0.363007298860126E+01
              0.206400369022356E+01
              0.279601711153140E+02
             -0.184479233728453E+02
             -0.359630856442019E+02
              0.970511493107428E+01
             -0.315195901378759E+01
             -0.444171113044341E+01
              0.693365945603193E+01
              0.270875642509932E+02
              0.150332147581993E+02
             -0.584629383793342E+01
             -0.188765920157646E+02
             -0.416375428085548E+01
              0.992730429303606E+01
             -0.599206938136069E+01
             -0.270423587569955E+02
             -0.277646036521301E+01
             -0.344197749759186E+02
             -0.188629796426656E+02
              0.301377676470878E+02
             -0.181525072685608E+02
             -0.249767768001102E+02
             -0.179354182877582E+02
             -0.138519980933786E+02
              0.111467212973418E+02
              0.301811040290536E+02
             -0.268077343937445E+01
              0.953905386588526E+01
             -0.719264490310871E+01
             -0.246217613321875E+02
              0.170824460260182E+02
             -0.168542155235202E+02
              0.900388691672195E+01
              0.111021586789050E+02
             -0.527365170155808E+01
              0.135157879366048E+02
              0.141854408275765E+02
              0.417519701016379E+02
             -0.367878116052742E+01
             -0.194924728024543E+02
             -0.235253901293983E+02
             -0.729806624718123E+01
             -0.135922700955969E+02
              0.328677752722591E+02
             -0.148007980328655E+02
              0.428803391919592E+01
              0.135523116375325E+01
             -0.722575876619167E+01
             -0.299478522350208E+02
             -0.195002571776611E+01
              0.353234812811740E+02
              0.745702837755224E+01
              0.282365967051024E+01
             -0.208930996759467E+02
             -0.204695250037934E+02
             -0.624418268821037E+01
              0.164122316139938E+02
             -0.890067997960350E+01
              0.362611363058457E+02
             -0.157701117402031E+02
              0.714829493473644E+01
             -0.541192265207755E+01
             -0.223997882100304E+02
              0.235830928043168E+01
             -0.196925527728438E+02
             -0.266435017068970E+02
              0.388741579819703E+01
              0.102167277299109E+01
              0.176997147222565E+02
              0.945993859686623E+01
             -0.118094298262526E+02
              0.771844787290374E+01
             -0.308984536711166E+02
             -0.174311813266489E+02
              0.326369758761939E+02
              0.274463190430254E+01
             -0.223377344517144E+01
             -0.952792110304412E+01
             -0.247370471284654E+00
             -0.430655048784993E+01
              0.309921793800058E+02
              0.139358159920189E+02
             -0.369942055687545E+01
             -0.370522940970602E+00
             -0.137397238047109E+02
             -0.530746633246881E+01
             -0.226914558089476E+02
              0.172167821464725E+02
              0.186703582203545E+01
              0.283310018723890E+01
              0.673696739074136E+01
             -0.420491630148034E+01
             -0.771955166808068E+01
              0.269654079708484E+01
             -0.395321805510619E+02
             -0.381482543826903E+01
             -0.283890224911764E+01
             -0.232462151818839E+01
              0.183357222581412E+02
              0.225997833789800E+02
              0.649642055111372E+01
             -0.333977957060376E+02
              0.231061646523497E+02
             -0.834742065014822E+01
             -0.135033872901006E+02
             -0.313329529913786E+02
             -0.967046961036394E+01
              0.220804704663572E+02
              0.104167807403661E+02
              0.433175623951917E+01
              0.123696341197974E+02
             -0.199478939946408E+02
             -0.175945592137536E+02
              0.211110270171569E+02
              0.148839197593521E+02
              0.172583474195189E+02
              0.203578907079951E+01
              0.299252151774346E+01
              0.191103754855507E+02
              0.351278818001709E+02
             -0.681163856023880E+01
              0.138412178607334E+02
             -0.941228534441908E+01
             -0.153057007863584E+02
             -0.118480504227985E+02
             -0.115508998642481E+02
             -0.514886617202666E+01
             -0.179141460681197E+02
             -0.697696790387096E+01
             -0.464280740608185E+02
              0.103593720390082E+02
              0.100464750381198E+02
             -0.127433585777189E+01
             -0.135805950709688E+02
             -0.713916114267228E+01
             -0.200369607660634E+02
              0.164943157771592E+01
              0.282048148005985E+02
             -0.696659445265470E+01
             -0.638432878280578E+01
              0.747983197627605E+01
             -0.171504947406847E+02
              0.303373379478714E+02
              0.541914208704540E+01
              0.327385753121007E+01
              0.188285658316716E+02
             -0.114242371664713E+01
              0.211227613120835E+02
              0.692988021768882E+01
             -0.738039790126038E+00
              0.492743297202709E+01
             -0.197782717484137E+01
              0.240560787970084E+02
              0.204379973908033E+01
              0.688666915534853E+01
             -0.279411677325260E+01
              0.363081613091127E+01
             -0.335658116911934E+02
             -0.124029535008820E+02
             -0.176888202381442E+02
              0.180917441153707E+02
             -0.122450548514121E+02
             -0.202967380968252E+02
              0.214153496652330E+02
             -0.487221692818417E+01
              0.145384339418953E+02
             -0.320867318660547E+02
              0.608988950426749E+01
              0.222683811810342E+01
              0.253313317121621E+01
             -0.475001182113928E+01
             -0.252052208679615E+01
              0.174185204525105E+02
              0.100567423681566E+01
             -0.190595624888756E+02
             -0.688795072524356E+01
              0.753803623820041E+01
             -0.402608784378935E+02
             -0.310274179432297E+02
              0.366674490619005E+00
              0.586585688073641E+01
             -0.169368760586429E+02
              0.434640001314236E+00
              0.369344865374953E+02
              0.112102607825595E+02
             -0.189701124778032E+02
              0.323870258831320E+01
             -0.438525868401186E+01
              0.369705847034219E+01
             -0.123570929863874E+02
              0.780047205373381E+01
              0.869373729430430E+01
             -0.365952994397972E+01
              0.403183039326399E+02
             -0.119826511110705E+01
             -0.112364814636965E+02
              0.109271851883235E+02
              0.151274992842457E+02
             -0.110565717173091E+02
             -0.790433960913703E+00
              0.342269171185126E+02
             -0.731158502101522E+00
              0.193580598337132E+02
              0.554234813719899E+01
             -0.303305269161539E+01
             -0.636508582064010E+01
              0.180159268968059E+02
             -0.214778532564919E+02
             -0.385508935549908E+00
             -0.711749215039069E+01
             -0.140672507251441E+02
              0.409465513703171E+01
              0.819358669422385E+01
             -0.619008463767443E-01
             -0.283988866580216E+00
             -0.151672358709399E+02
              0.652661799471212E+01
             -0.364709768214666E+00
             -0.855502042707235E+01
             -0.731059518691954E+01
              0.645368144687063E+01
              0.641708592161564E+00
             -0.135716775394819E+02
             -0.378029197422075E+02
              0.282093442670948E+01
              0.533000055425791E+01
             -0.172725790771128E+02
             -0.856998653806232E+01
              0.289812833151463E+02
              0.430656776398776E+01
              0.156481626464160E+02
              0.393594653839826E+01
              0.145390338172538E+02
              0.664566921917071E+00
             -0.142605098692420E+02
             -0.357573675895210E+01
              0.204226316130779E+01
              0.113137382946204E+02
              0.272278808559120E+02
              0.179001867649229E+02
              0.113186655932282E+01
              0.352769053088167E+01
              0.213214808450692E+02
              0.101897934521403E+02
             -0.248196436254553E+02
             -0.980082409142182E+01
              0.334906343547621E+01
              0.368137069014396E+01
              0.955172804850068E+01
             -0.183637895108755E+02
              0.252907073795355E+01
              0.143147664478185E+02
              0.178335527735958E+02
             -0.157351900229602E+02
              0.912948309608936E+00
             -0.115914286865814E+01
             -0.753457178864836E+01
             -0.102884293128831E+02
             -0.468931904318526E+01
             -0.386124965757083E+01
              0.379755373259164E+01
              0.149233508654180E+02
             -0.125425858621812E+02
              0.285064774440708E+02
              0.126454307162101E+02
              0.887682025265971E+01
              0.121464827480492E+02
              0.913831596949156E+01
              0.120173697505599E+02
              0.198720016769768E+02
             -0.165879551625112E+02
              0.220413129638332E+02
             -0.400077813341258E+02
              0.114027324671686E+02
             -0.378049493789011E+02
              0.295306496342198E+02
              0.274471413375024E+02
             -0.333584040471237E+01
             -0.169511697323286E+02
             -0.148633264026358E+02
             -0.194400984429817E+02
             -0.231482843833439E+02
              0.193645213507272E+02
              0.153264186515030E+02
              0.914239275706862E+01
              0.947208191827070E+01
              0.163627258207706E+02
             -0.145589587672131E+02
             -0.566683284172456E+01
              0.182883664938038E+02
             -0.359504508535542E+01
              0.173289631255111E+02
              0.274325388231893E+02
             -0.102325928367241E+01
             -0.266169750583622E+02
              0.745182226191190E+00
              0.354683476558262E+00
             -0.397927471758103E+01
              0.174715962684071E+01
             -0.228477757305962E+02
             -0.385275542814311E+01
              0.404988251262763E+01
              0.434769655006788E+01
              0.178432375057850E+02
             -0.154674532218939E+02
              0.186479081324093E+02
             -0.138345572959879E+02
              0.924589110280208E+01
              0.153126692325175E+02
 
 BEEF-vdW xc energy contributions
            1 :    -262.0511994717872     
            2 :     231.2265638728832     
            3 :    -178.0686573720644     
            4 :     116.3567738007089     
            5 :    -60.16156162022401     
            6 :     19.19746786879710     
            7 :     3.613084173340496     
            8 :    -11.61674711842392     
            9 :     11.57340350628635     
           10 :    -10.04979381643312     
           11 :     10.76205839947636     
           12 :    -13.87001067500404     
           13 :     17.14418557393191     
           14 :    -18.03922216233099     
           15 :     15.43290951524978     
           16 :    -10.18640356262591     
           17 :     4.450623207591036     
           18 :   -0.3304966056633134     
           19 :    -1.231625015036002     
           20 :    0.7525458910498060     
           21 :    0.3602853751520456     
           22 :   -0.7868618087420032     
           23 :    5.6270427039009974E-002
           24 :     1.320753023203054     
           25 :    -2.336029729318682     
           26 :     2.209385273853172     
           27 :   -0.8837944492498764     
           28 :   -0.9849780011252847     
           29 :     2.480877219921524     
           30 :    -2.996360815615674     
           31 :    -34.28112648766108     
           32 :    -24.87741305015703     

     Writing all to output data dir ./diamond.save/
 
     init_run     :      0.77s CPU      1.10s WALL (       1 calls)
     electrons    :     15.64s CPU     17.73s WALL (       1 calls)
     forces       :      0.29s CPU      0.30s WALL (       1 calls)
     stress       :      2.32s CPU      2.38s WALL (       1 calls)

     Called by init_run:
     wfcinit      :      0.12s CPU      0.33s WALL (       1 calls)
     potinit      :      0.41s CPU      0.46s WALL (       1 calls)
     hinit0       :      0.11s CPU      0.14s WALL (       1 calls)

     Called by electrons:
     c_bands      :     14.61s CPU     16.62s WALL (       4 calls)
     sum_band     :      0.37s CPU      0.39s WALL (       4 calls)
     v_of_rho     :      0.67s CPU      0.71s WALL (       4 calls)
     v_h          :      0.00s CPU      0.01s WALL (       4 calls)
     v_xc         :      4.19s CPU      4.31s WALL (      40 calls)
     newd         :      0.02s CPU      0.03s WALL (       4 calls)
     PAW_pot      :      0.16s CPU      0.17s WALL (       4 calls)
     mix_rho      :      0.00s CPU      0.01s WALL (       4 calls)
     vdW_kernel   :      0.25s CPU      0.26s WALL (       1 calls)

     Called by c_bands:
     init_us_2    :      0.03s CPU      0.03s WALL (       8 calls)
     init_us_2:cp :      0.03s CPU      0.03s WALL (       8 calls)
     cegterg      :      9.52s CPU      9.68s WALL (       5 calls)

     Called by sum_band:
     sum_band:wei :      0.00s CPU      0.00s WALL (       4 calls)
     sum_band:loo :      0.30s CPU      0.32s WALL (       4 calls)
     sum_band:buf :      0.00s CPU      0.00s WALL (       4 calls)
     sum_band:ini :      0.03s CPU      0.03s WALL (       4 calls)
     sum_band:cal :      0.10s CPU      0.10s WALL (       4 calls)
     sum_band:bec :      0.00s CPU      0.00s WALL (       4 calls)
     addusdens    :      0.02s CPU      0.02s WALL (       4 calls)
                                        0.00s GPU  (       4 calls)
     addusd:skk   :      0.00s CPU      0.00s WALL (       4 calls)
                                        0.00s GPU  (       4 calls)

     Called by *egterg:
     cdiaghg      :      5.34s CPU      5.37s WALL (      48 calls)
     cegterg:over :      0.61s CPU      0.62s WALL (      46 calls)
     cegterg:upda :      0.49s CPU      0.49s WALL (      46 calls)
     cegterg:last :      0.09s CPU      0.10s WALL (       5 calls)
     h_psi        :      2.36s CPU      2.42s WALL (      51 calls)
     s_psi        :      0.36s CPU      0.37s WALL (      51 calls)
     g_psi        :      0.00s CPU      0.00s WALL (      46 calls)

     Called by h_psi:
     h_psi:calbec :      0.57s CPU      0.58s WALL (      51 calls)
     vloc_psi     :      1.25s CPU      1.28s WALL (      51 calls)
     add_vuspsi   :      0.52s CPU      0.53s WALL (      51 calls)

     General routines
     calbec       :      0.80s CPU      0.82s WALL (      60 calls)
     fft          :      1.84s CPU      1.89s WALL (    2358 calls)
     ffts         :      0.01s CPU      0.01s WALL (       8 calls)
     fftw         :      1.30s CPU      1.33s WALL (    5156 calls)
     interpolate  :      0.01s CPU      0.01s WALL (       4 calls)
 
     Parallel routines

     PAW routines
     PAW_pot      :      0.16s CPU      0.17s WALL (       4 calls)
     PAW_symme    :      0.00s CPU      0.00s WALL (       7 calls)
 
     PWSCF        :     22.62s CPU     27.03s WALL

 
   This run was terminated on:  16:22:23  19Feb2024            

=------------------------------------------------------------------------------=
   JOB DONE.
=------------------------------------------------------------------------------=
