
     Program PWSCF v.7.1 starts on 10Feb2024 at 16: 7:42 

     This program is part of the open-source Quantum ESPRESSO suite
     for quantum simulation of materials; please cite
         "P. Giannozzi et al., J. Phys.:Condens. Matter 21 395502 (2009);
         "P. Giannozzi et al., J. Phys.:Condens. Matter 29 465901 (2017);
         "P. Giannozzi et al., J. Chem. Phys. 152 154105 (2020);
          URL http://www.quantum-espresso.org", 
     in publications or presentations arising from this work. More details at
     http://www.quantum-espresso.org/quote

     Parallel version (MPI & OpenMP), running on     128 processor cores
     Number of MPI processes:               128
     Threads/MPI process:                     1

     MPI processes distributed on     1 nodes
     1971443 MiB available memory on the printing compute node when the environment starts
 
     Reading input from espresso.pwi
Warning: card &CELL ignored
Warning: card    CELL_DYNAMICS    = 'BFGS' ignored
Warning: card / ignored

     Current dimensions of program PWSCF are:
     Max number of different atomic species (ntypx) = 10
     Max number of k-points (npk) =  40000
     Max angular momentum in pseudopotentials (lmaxx) =  4
     file Pb.pbe-dn-kjpaw_psl.1.0.0.UPF: wavefunction(s)  6S 6P 5D renormalized
     file I.pbe-dn-kjpaw_psl.1.0.0.UPF: wavefunction(s)  5S 5P renormalized

     **************************************************************************
     Initializing libbeef V0.1.2 with the BEEF-vdW functional.
     Citation: Wellendorff et al., PRB 85, 235149 (2012).
     **************************************************************************


     IMPORTANT: XC functional enforced from input :
     Exchange-correlation= BEEF-VDW
                           (   1   4  43  14   2   0   0)
     Any further DFT definition will be discarded
     Please, verify this is what you really want

 
     R & G space division:  proc/nbgrp/npool/nimage =     128
     Subspace diagonalization in iterative solution of the eigenvalue problem:
     a serial algorithm will be used

 
     Parallelization info
     --------------------
     sticks:   dense  smooth     PW     G-vecs:    dense   smooth      PW
     Min         238     190     47                26450    18922    2361
     Max         239     191     48                26459    18933    2368
     Sum       30589   24439   6121              3386231  2422955  302835
 
     Using Slab Decomposition
 


     bravais-lattice index     =            4
     lattice parameter (alat)  =      35.6120  a.u.
     unit-cell volume          =   30624.9051 (a.u.)^3
     number of atoms/cell      =           95
     number of atomic types    =            2
     number of electrons       =      1522.00
     number of Kohn-Sham states=          913
     kinetic-energy cutoff     =      70.0000  Ry
     charge density cutoff     =     350.0000  Ry
     scf convergence threshold =      1.0E-07
     mixing beta               =       0.7000
     number of iterations used =            8  plain     mixing
     energy convergence thresh.=      1.0E-04
     force convergence thresh. =      1.0E-03
     Exchange-correlation= BEEF-VDW
                           (   1   4  43  14   2   0   0)
     nstep                     =           50


     celldm(1)=  35.612033  celldm(2)=   0.000000  celldm(3)=   0.782986
     celldm(4)=   0.000000  celldm(5)=   0.000000  celldm(6)=   0.000000

     crystal axes: (cart. coord. in units of alat)
               a(1) = (   1.000000   0.000000   0.000000 )  
               a(2) = (  -0.500000   0.866025   0.000000 )  
               a(3) = (   0.000000   0.000000   0.782986 )  

     reciprocal axes: (cart. coord. in units 2 pi/alat)
               b(1) = (  1.000000  0.577350 -0.000000 )  
               b(2) = (  0.000000  1.154701  0.000000 )  
               b(3) = (  0.000000 -0.000000  1.277163 )  


     PseudoPot. # 1 for Pb read from file:
     /trace/group/acmegroup/atimmins/packages/espresso/pseudo/psl_1.0.0/pslibrary.1.0.0/pbe/PSEUDOPOTENTIALS/Pb.pbe-dn-kjpaw_psl.1.0.0.UPF
     MD5 check sum: 39ab5b8a6bbd56b7735ad9f188aac93a
     Pseudo is Projector augmented-wave + core cor, Zval = 14.0
     Generated using 'atomic' code by A. Dal Corso  v.7.1
     Shape of augmentation charge: PSQ
     Using radial grid of 1281 points,  6 beta functions with: 
                l(1) =   0
                l(2) =   0
                l(3) =   1
                l(4) =   1
                l(5) =   2
                l(6) =   2
     Q(r) pseudized with 0 coefficients 


     PseudoPot. # 2 for I  read from file:
     /trace/group/acmegroup/atimmins/packages/espresso/pseudo/psl_1.0.0/pslibrary.1.0.0/pbe/PSEUDOPOTENTIALS/I.pbe-dn-kjpaw_psl.1.0.0.UPF
     MD5 check sum: bfa8781bc1224d19af3f3980e3fab11e
     Pseudo is Projector augmented-wave + core cor, Zval = 17.0
     Generated using 'atomic' code by A. Dal Corso  v.7.1
     Shape of augmentation charge: PSQ
     Using radial grid of 1247 points,  6 beta functions with: 
                l(1) =   0
                l(2) =   0
                l(3) =   1
                l(4) =   1
                l(5) =   2
                l(6) =   2
     Q(r) pseudized with 0 coefficients 


     atomic species   valence    mass     pseudopotential
        Pb            14.00   207.20000     Pb( 1.00)
        I             17.00   126.90447     I ( 1.00)

     No symmetry found


                                    s                        frac. trans.

      isym =  1     identity                                     

 cryst.   s( 1) = (     1          0          0      )
                  (     0          1          0      )
                  (     0          0          1      )

 cart.    s( 1) = (  1.0000000  0.0000000  0.0000000 )
                  (  0.0000000  1.0000000  0.0000000 )
                  (  0.0000000  0.0000000  1.0000000 )


     point group C_1 (1)    
     there are  1 classes
     the character table:

       E    
A      1.00

     the symmetry operations in each class and the name of the first element:

     E        1
          identity                                               

   Cartesian axes

     site n.     atom                  positions (alat units)
         1           Pb  tau(   1) = (   0.1250034   0.2164918   0.3914896  )
         2           Pb  tau(   2) = (   0.0000077   0.4329926   0.7829784  )
         3           Pb  tau(   3) = (   0.0000026   0.4329971   0.3914855  )
         4           Pb  tau(   4) = (  -0.1249932   0.6494980   0.7829742  )
         5           Pb  tau(   5) = (  -0.1249983   0.6495025   0.3914814  )
         6           Pb  tau(   6) = (  -0.2499940   0.8660033   0.7829701  )
         7           Pb  tau(   7) = (  -0.2499991   0.8660078   0.3914773  )
         8           Pb  tau(   8) = (   0.3750085   0.2164863   0.7829857  )
         9           Pb  tau(   9) = (   0.3750034   0.2164908   0.3914929  )
        10           Pb  tau(  10) = (   0.2500077   0.4329916   0.7829816  )
        11           Pb  tau(  11) = (   0.2500026   0.4329962   0.3914888  )
        12           Pb  tau(  12) = (   0.1250068   0.6494970   0.7829775  )
        13           Pb  tau(  13) = (   0.1250017   0.6495015   0.3914847  )
        14           Pb  tau(  14) = (   0.0000060   0.8660024   0.7829734  )
        15           Pb  tau(  15) = (   0.0000009   0.8660069   0.3914805  )
        16           Pb  tau(  16) = (   0.6250085   0.2164853   0.7829890  )
        17           Pb  tau(  17) = (   0.6250034   0.2164898   0.3914962  )
        18           Pb  tau(  18) = (   0.5000077   0.4329907   0.7829849  )
        19           Pb  tau(  19) = (   0.5000026   0.4329952   0.3914920  )
        20           Pb  tau(  20) = (   0.3750068   0.6494960   0.7829808  )
        21           Pb  tau(  21) = (   0.3750017   0.6495006   0.3914879  )
        22           Pb  tau(  22) = (   0.2500060   0.8660014   0.7829766  )
        23           Pb  tau(  23) = (   0.2500009   0.8660059   0.3914838  )
        24           Pb  tau(  24) = (   0.8750085   0.2164844   0.7829923  )
        25           Pb  tau(  25) = (   0.8750034   0.2164889   0.3914994  )
        26           Pb  tau(  26) = (   0.7500077   0.4329897   0.7829881  )
        27           Pb  tau(  27) = (   0.7500026   0.4329942   0.3914953  )
        28           Pb  tau(  28) = (   0.6250068   0.6494951   0.7829840  )
        29           Pb  tau(  29) = (   0.6250017   0.6494996   0.3914912  )
        30           Pb  tau(  30) = (   0.5000060   0.8660004   0.7829799  )
        31           Pb  tau(  31) = (   0.5000009   0.8660050   0.3914870  )
        32           I   tau(  32) = (   0.1250054   0.0721550   0.2909325  )
        33           I   tau(  33) = (   0.1250105   0.0721505   0.6824253  )
        34           I   tau(  34) = (   0.0000045   0.2886603   0.2909283  )
        35           I   tau(  35) = (   0.0000096   0.2886558   0.6824212  )
        36           I   tau(  36) = (  -0.1249963   0.5051657   0.2909242  )
        37           I   tau(  37) = (  -0.1249912   0.5051612   0.6824171  )
        38           I   tau(  38) = (  -0.2499971   0.7216710   0.2909201  )
        39           I   tau(  39) = (  -0.2499920   0.7216665   0.6824129  )
        40           I   tau(  40) = (   0.3750054   0.0721540   0.2909357  )
        41           I   tau(  41) = (   0.3750105   0.0721495   0.6824286  )
        42           I   tau(  42) = (   0.2500045   0.2886594   0.2909316  )
        43           I   tau(  43) = (   0.2500096   0.2886548   0.6824244  )
        44           I   tau(  44) = (   0.1250037   0.5051647   0.2909275  )
        45           I   tau(  45) = (   0.1250088   0.5051602   0.6824203  )
        46           I   tau(  46) = (   0.0000029   0.7216701   0.2909233  )
        47           I   tau(  47) = (   0.0000080   0.7216656   0.6824162  )
        48           I   tau(  48) = (   0.6250054   0.0721530   0.2909390  )
        49           I   tau(  49) = (   0.6250105   0.0721485   0.6824318  )
        50           I   tau(  50) = (   0.5000045   0.2886584   0.2909348  )
        51           I   tau(  51) = (   0.5000096   0.2886539   0.6824277  )
        52           I   tau(  52) = (   0.3750037   0.5051638   0.2909307  )
        53           I   tau(  53) = (   0.3750088   0.5051592   0.6824236  )
        54           I   tau(  54) = (   0.2500029   0.7216691   0.2909266  )
        55           I   tau(  55) = (   0.2500080   0.7216646   0.6824194  )
        56           I   tau(  56) = (   0.8750054   0.0721521   0.2909422  )
        57           I   tau(  57) = (   0.8750105   0.0721476   0.6824351  )
        58           I   tau(  58) = (   0.7500045   0.2886574   0.2909381  )
        59           I   tau(  59) = (   0.7500096   0.2886529   0.6824310  )
        60           I   tau(  60) = (   0.6250037   0.5051628   0.2909340  )
        61           I   tau(  61) = (   0.6250088   0.5051583   0.6824268  )
        62           I   tau(  62) = (   0.5000029   0.7216681   0.2909299  )
        63           I   tau(  63) = (   0.5000080   0.7216636   0.6824227  )
        64           I   tau(  64) = (  -0.0000017   0.1443297   0.1005555  )
        65           I   tau(  65) = (   0.0000034   0.1443252   0.4920483  )
        66           I   tau(  66) = (  -0.1250025   0.3608351   0.1005514  )
        67           I   tau(  67) = (  -0.1249974   0.3608306   0.4920442  )
        68           I   tau(  68) = (  -0.2500034   0.5773404   0.1005472  )
        69           I   tau(  69) = (  -0.2499983   0.5773359   0.4920401  )
        70           I   tau(  70) = (  -0.3750042   0.7938458   0.1005431  )
        71           I   tau(  71) = (  -0.3749991   0.7938413   0.4920360  )
        72           I   tau(  72) = (   0.2499983   0.1443288   0.1005587  )
        73           I   tau(  73) = (   0.2500034   0.1443242   0.4920516  )
        74           I   tau(  74) = (   0.1249975   0.3608341   0.1005546  )
        75           I   tau(  75) = (   0.1250026   0.3608296   0.4920475  )
        76           I   tau(  76) = (  -0.0000034   0.5773395   0.1005505  )
        77           I   tau(  77) = (   0.0000017   0.5773350   0.4920433  )
        78           I   tau(  78) = (  -0.1250042   0.7938448   0.1005464  )
        79           I   tau(  79) = (  -0.1249991   0.7938403   0.4920392  )
        80           I   tau(  80) = (   0.4999983   0.1443278   0.1005620  )
        81           I   tau(  81) = (   0.5000034   0.1443233   0.4920548  )
        82           I   tau(  82) = (   0.3749975   0.3608332   0.1005579  )
        83           I   tau(  83) = (   0.3750026   0.3608286   0.4920507  )
        84           I   tau(  84) = (   0.2499966   0.5773385   0.1005537  )
        85           I   tau(  85) = (   0.2500017   0.5773340   0.4920466  )
        86           I   tau(  86) = (   0.1249958   0.7938439   0.1005496  )
        87           I   tau(  87) = (   0.1250009   0.7938394   0.4920425  )
        88           I   tau(  88) = (   0.7499983   0.1443268   0.1005653  )
        89           I   tau(  89) = (   0.7500034   0.1443223   0.4920581  )
        90           I   tau(  90) = (   0.6249975   0.3608322   0.1005611  )
        91           I   tau(  91) = (   0.6250026   0.3608277   0.4920540  )
        92           I   tau(  92) = (   0.4999966   0.5773376   0.1005570  )
        93           I   tau(  93) = (   0.5000017   0.5773330   0.4920499  )
        94           I   tau(  94) = (   0.3749958   0.7938429   0.1005529  )
        95           I   tau(  95) = (   0.3750009   0.7938384   0.4920457  )

   Crystallographic axes

     site n.     atom                  positions (cryst. coord.)
         1           Pb  tau(   1) = (  0.2499950  0.2499832  0.4999959  )
         2           Pb  tau(   2) = (  0.2499961  0.4999768  0.9999906  )
         3           Pb  tau(   3) = (  0.2499936  0.4999820  0.4999906  )
         4           Pb  tau(   4) = (  0.2499947  0.7499757  0.9999854  )
         5           Pb  tau(   5) = (  0.2499922  0.7499809  0.4999854  )
         6           Pb  tau(   6) = (  0.2499932  0.9999745  0.9999801  )
         7           Pb  tau(   7) = (  0.2499908  0.9999797  0.4999801  )
         8           Pb  tau(   8) = (  0.4999969  0.2499768  1.0000001  )
         9           Pb  tau(   9) = (  0.4999944  0.2499821  0.5000001  )
        10           Pb  tau(  10) = (  0.4999955  0.4999757  0.9999948  )
        11           Pb  tau(  11) = (  0.4999930  0.4999809  0.4999948  )
        12           Pb  tau(  12) = (  0.4999941  0.7499745  0.9999895  )
        13           Pb  tau(  13) = (  0.4999916  0.7499798  0.4999895  )
        14           Pb  tau(  14) = (  0.4999927  0.9999734  0.9999843  )
        15           Pb  tau(  15) = (  0.4999902  0.9999786  0.4999843  )
        16           Pb  tau(  16) = (  0.7499964  0.2499757  1.0000042  )
        17           Pb  tau(  17) = (  0.7499939  0.2499809  0.5000042  )
        18           Pb  tau(  18) = (  0.7499950  0.4999746  0.9999990  )
        19           Pb  tau(  19) = (  0.7499925  0.4999798  0.4999990  )
        20           Pb  tau(  20) = (  0.7499935  0.7499734  0.9999937  )
        21           Pb  tau(  21) = (  0.7499910  0.7499786  0.4999937  )
        22           Pb  tau(  22) = (  0.7499921  0.9999723  0.9999884  )
        23           Pb  tau(  23) = (  0.7499896  0.9999775  0.4999884  )
        24           Pb  tau(  24) = (  0.9999958  0.2499746  1.0000084  )
        25           Pb  tau(  25) = (  0.9999933  0.2499798  0.5000084  )
        26           Pb  tau(  26) = (  0.9999944  0.4999735  1.0000031  )
        27           Pb  tau(  27) = (  0.9999919  0.4999787  0.5000031  )
        28           Pb  tau(  28) = (  0.9999930  0.7499723  0.9999979  )
        29           Pb  tau(  29) = (  0.9999905  0.7499775  0.4999979  )
        30           Pb  tau(  30) = (  0.9999916  0.9999712  0.9999926  )
        31           Pb  tau(  31) = (  0.9999891  0.9999764  0.4999926  )
        32           I   tau(  32) = (  0.1666641  0.0833174  0.3715680  )
        33           I   tau(  33) = (  0.1666666  0.0833122  0.8715680  )
        34           I   tau(  34) = (  0.1666626  0.3333162  0.3715628  )
        35           I   tau(  35) = (  0.1666651  0.3333110  0.8715628  )
        36           I   tau(  36) = (  0.1666612  0.5833151  0.3715575  )
        37           I   tau(  37) = (  0.1666637  0.5833099  0.8715575  )
        38           I   tau(  38) = (  0.1666598  0.8333139  0.3715522  )
        39           I   tau(  39) = (  0.1666623  0.8333087  0.8715522  )
        40           I   tau(  40) = (  0.4166635  0.0833163  0.3715722  )
        41           I   tau(  41) = (  0.4166660  0.0833111  0.8715722  )
        42           I   tau(  42) = (  0.4166621  0.3333151  0.3715669  )
        43           I   tau(  43) = (  0.4166646  0.3333099  0.8715669  )
        44           I   tau(  44) = (  0.4166607  0.5833140  0.3715617  )
        45           I   tau(  45) = (  0.4166632  0.5833088  0.8715617  )
        46           I   tau(  46) = (  0.4166593  0.8333128  0.3715564  )
        47           I   tau(  47) = (  0.4166618  0.8333076  0.8715564  )
        48           I   tau(  48) = (  0.6666629  0.0833152  0.3715764  )
        49           I   tau(  49) = (  0.6666654  0.0833099  0.8715764  )
        50           I   tau(  50) = (  0.6666615  0.3333140  0.3715711  )
        51           I   tau(  51) = (  0.6666640  0.3333088  0.8715711  )
        52           I   tau(  52) = (  0.6666601  0.5833129  0.3715658  )
        53           I   tau(  53) = (  0.6666626  0.5833076  0.8715658  )
        54           I   tau(  54) = (  0.6666587  0.8333117  0.3715606  )
        55           I   tau(  55) = (  0.6666612  0.8333065  0.8715606  )
        56           I   tau(  56) = (  0.9166624  0.0833141  0.3715805  )
        57           I   tau(  57) = (  0.9166649  0.0833088  0.8715805  )
        58           I   tau(  58) = (  0.9166610  0.3333129  0.3715752  )
        59           I   tau(  59) = (  0.9166635  0.3333077  0.8715752  )
        60           I   tau(  60) = (  0.9166596  0.5833118  0.3715700  )
        61           I   tau(  61) = (  0.9166621  0.5833065  0.8715700  )
        62           I   tau(  62) = (  0.9166582  0.8333106  0.3715647  )
        63           I   tau(  63) = (  0.9166607  0.8333054  0.8715647  )
        64           I   tau(  64) = (  0.0833271  0.1666576  0.1284257  )
        65           I   tau(  65) = (  0.0833296  0.1666524  0.6284257  )
        66           I   tau(  66) = (  0.0833257  0.4166565  0.1284204  )
        67           I   tau(  67) = (  0.0833282  0.4166513  0.6284204  )
        68           I   tau(  68) = (  0.0833243  0.6666553  0.1284152  )
        69           I   tau(  69) = (  0.0833268  0.6666501  0.6284152  )
        70           I   tau(  70) = (  0.0833229  0.9166542  0.1284099  )
        71           I   tau(  71) = (  0.0833254  0.9166489  0.6284099  )
        72           I   tau(  72) = (  0.3333265  0.1666565  0.1284299  )
        73           I   tau(  73) = (  0.3333290  0.1666513  0.6284299  )
        74           I   tau(  74) = (  0.3333251  0.4166554  0.1284246  )
        75           I   tau(  75) = (  0.3333276  0.4166501  0.6284246  )
        76           I   tau(  76) = (  0.3333237  0.6666542  0.1284193  )
        77           I   tau(  77) = (  0.3333262  0.6666490  0.6284193  )
        78           I   tau(  78) = (  0.3333223  0.9166531  0.1284141  )
        79           I   tau(  79) = (  0.3333248  0.9166478  0.6284141  )
        80           I   tau(  80) = (  0.5833260  0.1666554  0.1284340  )
        81           I   tau(  81) = (  0.5833285  0.1666502  0.6284340  )
        82           I   tau(  82) = (  0.5833246  0.4166542  0.1284287  )
        83           I   tau(  83) = (  0.5833271  0.4166490  0.6284287  )
        84           I   tau(  84) = (  0.5833232  0.6666531  0.1284235  )
        85           I   tau(  85) = (  0.5833257  0.6666479  0.6284235  )
        86           I   tau(  86) = (  0.5833218  0.9166519  0.1284182  )
        87           I   tau(  87) = (  0.5833243  0.9166467  0.6284182  )
        88           I   tau(  88) = (  0.8333254  0.1666543  0.1284382  )
        89           I   tau(  89) = (  0.8333279  0.1666491  0.6284382  )
        90           I   tau(  90) = (  0.8333240  0.4166531  0.1284329  )
        91           I   tau(  91) = (  0.8333265  0.4166479  0.6284329  )
        92           I   tau(  92) = (  0.8333226  0.6666520  0.1284276  )
        93           I   tau(  93) = (  0.8333251  0.6666468  0.6284276  )
        94           I   tau(  94) = (  0.8333212  0.9166508  0.1284224  )
        95           I   tau(  95) = (  0.8333237  0.9166456  0.6284224  )

     number of k points=     1  Gaussian smearing, width (Ry)=  0.0100
                       cart. coord. in units 2pi/alat
        k(    1) = (   0.0000000   0.0000000   0.0000000), wk =   2.0000000

                       cryst. coord.
        k(    1) = (   0.0000000   0.0000000   0.0000000), wk =   2.0000000

     Dense  grid:  3386231 G-vectors     FFT dimensions: ( 216, 216, 180)

     Smooth grid:  2422955 G-vectors     FFT dimensions: ( 192, 192, 150)

     Dynamical RAM for                 wfc:      32.96 MB

     Dynamical RAM for     wfc (w. buffer):      32.96 MB

     Dynamical RAM for           str. fact:       0.81 MB

     Dynamical RAM for           local pot:       0.00 MB

     Dynamical RAM for          nlocal pot:      61.73 MB

     Dynamical RAM for                qrad:       3.00 MB

     Dynamical RAM for          rho,v,vnew:       3.35 MB

     Dynamical RAM for               rhoin:       1.12 MB

     Dynamical RAM for            rho*nmix:       6.46 MB

     Dynamical RAM for           G-vectors:       1.66 MB

     Dynamical RAM for          h,s,v(r/c):     610.52 MB

     Dynamical RAM for          <psi|beta>:      23.82 MB

     Dynamical RAM for                 psi:     131.85 MB

     Dynamical RAM for                hpsi:     131.85 MB

     Dynamical RAM for                spsi:     131.85 MB

     Dynamical RAM for      wfcinit/wfcrot:      85.01 MB

     Dynamical RAM for           addusdens:     100.92 MB

     Dynamical RAM for          addusforce:     152.23 MB

     Dynamical RAM for         addusstress:      81.14 MB

     Estimated static dynamical RAM per process >     109.40 MB

     Estimated max dynamical RAM per process >       1.12 GB

     Estimated total dynamical RAM >     143.22 GB

     Check: negative core charge=   -0.000001

     Initial potential from superposition of free atoms

     starting charge    1521.9223, renormalised to    1522.0000


     %%%%%%%%%%%%%%%%%%%%%%%%%%%%%%%%%%%%%%%%%%%%%%%%%%%%%%%%%%%%%%%%%%%%%%%%
     %                                                                      %
     % You are using vdW-DF, which was implemented by the Thonhauser group. %
     % Please cite the following two papers that made this development      %
     % possible and the two reviews that describe the various versions:     %
     %                                                                      %
     %   T. Thonhauser et al., PRL 115, 136402 (2015).                      %
     %   T. Thonhauser et al., PRB 76, 125112 (2007).                       %
     %   K. Berland et al., Rep. Prog. Phys. 78, 066501 (2015).             %
     %   D.C. Langreth et al., J. Phys.: Condens. Matter 21, 084203 (2009). %
     %                                                                      %
     % If you are calculating stress with vdW-DF, please also cite:         %
     %                                                                      %
     %   R. Sabatini et al., J. Phys.: Condens. Matter 24, 424209 (2012).   %
     %                                                                      %
     %%%%%%%%%%%%%%%%%%%%%%%%%%%%%%%%%%%%%%%%%%%%%%%%%%%%%%%%%%%%%%%%%%%%%%%%

     %%%%%%%%%%%%%%%%%%%%%%%%%%%%%%%%%%%%%%%%%%%%%%%%%%%%%%%%%%%%%%%%%%%%%%%%
     %                                                                      %
     %  vdW-DF NEWS:                                                        %
     %                                                                      %
     %  * vdW-DF3 is now available. DOI: 10.1021/acs.jctc.0c00471           %
     %    use with input_dft = 'vdW-DF3-opt1' or 'vdW-DF3-opt2'             %
     %                                                                      %
     %  * Unscreened and range-separated vdW-DF hybrid functionals          %
     %    DOI: 10.1063/1.4986522 and 10.1088/1361-648X/ac2ad2               %
     %    use with input_dft = 'vdW-DF-cx0' (etc) and 'vdW-DF-ahcx'         %
     %                                                                      %
     %%%%%%%%%%%%%%%%%%%%%%%%%%%%%%%%%%%%%%%%%%%%%%%%%%%%%%%%%%%%%%%%%%%%%%%%


     Carrying out vdW-DF run using the following parameters:
     Nqs    =  20  Npoints =  1024  r_max =  100.000
     q_mesh =  0.00001000  0.04494208  0.09755937  0.15916263
               0.23128650  0.31572767  0.41458969  0.53033537
               0.66584808  0.82450364  1.01025438  1.22772762
               1.48234092  1.78043706  2.12944203  2.53805004
               3.01644009  3.57652955  4.23227104  5.00000000


     -----------------------------------------------
     Non-local corr. energy    =      45.57775542 Ry
     -----------------------------------------------

     Starting wfcs are  855 randomized atomic wfcs +   58 random wfcs
     Checking if some PAW data can be deallocated... 
       PAW data deallocated on   66 nodes for type:  1
       PAW data deallocated on   62 nodes for type:  2

     total cpu time spent up to now is       15.2 secs

     Self-consistent Calculation

     iteration #  1     ecut=    70.00 Ry     beta= 0.70
     Davidson diagonalization with overlap

---- Real-time Memory Report at c_bands before calling an iterative solver
           489 MiB given to the printing process from OS
             0 MiB allocation reported by mallinfo(arena+hblkhd)
       1949372 MiB available memory on the node where the printing process lives
------------------
     ethr =  1.00E-02,  avg # of iterations =  8.0

     Threshold (ethr) on eigenvalues was too large:
     Diagonalizing with lowered threshold

     Davidson diagonalization with overlap

---- Real-time Memory Report at c_bands before calling an iterative solver
           958 MiB given to the printing process from OS
             0 MiB allocation reported by mallinfo(arena+hblkhd)
       1938599 MiB available memory on the node where the printing process lives
------------------
     ethr =  2.27E-04,  avg # of iterations = 12.0


     -----------------------------------------------
     Non-local corr. energy    =      45.89454691 Ry
     -----------------------------------------------


     total cpu time spent up to now is      317.3 secs

     total energy              =  -63858.19229543 Ry
     estimated scf accuracy    <       3.22751546 Ry

     iteration #  2     ecut=    70.00 Ry     beta= 0.70
     Davidson diagonalization with overlap

---- Real-time Memory Report at c_bands before calling an iterative solver
          1072 MiB given to the printing process from OS
             0 MiB allocation reported by mallinfo(arena+hblkhd)
       1941411 MiB available memory on the node where the printing process lives
------------------
     ethr =  2.12E-04,  avg # of iterations = 17.0


     -----------------------------------------------
     Non-local corr. energy    =      45.79478050 Ry
     -----------------------------------------------


     total cpu time spent up to now is      559.0 secs

     total energy              =  -63856.49827883 Ry
     estimated scf accuracy    <      13.79892471 Ry

     iteration #  3     ecut=    70.00 Ry     beta= 0.70
     Davidson diagonalization with overlap

---- Real-time Memory Report at c_bands before calling an iterative solver
          1072 MiB given to the printing process from OS
             0 MiB allocation reported by mallinfo(arena+hblkhd)
       1941276 MiB available memory on the node where the printing process lives
------------------
     ethr =  2.12E-04,  avg # of iterations = 11.0


     -----------------------------------------------
     Non-local corr. energy    =      45.75507768 Ry
     -----------------------------------------------


     total cpu time spent up to now is      720.8 secs

     total energy              =  -63859.20483115 Ry
     estimated scf accuracy    <       3.83171290 Ry

     iteration #  4     ecut=    70.00 Ry     beta= 0.70
     Davidson diagonalization with overlap

---- Real-time Memory Report at c_bands before calling an iterative solver
          1084 MiB given to the printing process from OS
             0 MiB allocation reported by mallinfo(arena+hblkhd)
       1941133 MiB available memory on the node where the printing process lives
------------------
     ethr =  2.12E-04,  avg # of iterations = 16.0


     -----------------------------------------------
     Non-local corr. energy    =      45.74925175 Ry
     -----------------------------------------------


     total cpu time spent up to now is      904.3 secs

     total energy              =  -63859.60360403 Ry
     estimated scf accuracy    <       0.33140972 Ry

     iteration #  5     ecut=    70.00 Ry     beta= 0.70
     Davidson diagonalization with overlap

---- Real-time Memory Report at c_bands before calling an iterative solver
          1084 MiB given to the printing process from OS
             0 MiB allocation reported by mallinfo(arena+hblkhd)
       1940997 MiB available memory on the node where the printing process lives
------------------
     c_bands:  1 eigenvalues not converged
     ethr =  2.18E-05,  avg # of iterations = 20.0


     -----------------------------------------------
     Non-local corr. energy    =      45.75680554 Ry
     -----------------------------------------------


     total cpu time spent up to now is     1143.5 secs

     total energy              =  -63859.64989334 Ry
     estimated scf accuracy    <       0.11269441 Ry

     iteration #  6     ecut=    70.00 Ry     beta= 0.70
     Davidson diagonalization with overlap

---- Real-time Memory Report at c_bands before calling an iterative solver
          1084 MiB given to the printing process from OS
             0 MiB allocation reported by mallinfo(arena+hblkhd)
       1940874 MiB available memory on the node where the printing process lives
------------------
     c_bands:  3 eigenvalues not converged
     ethr =  7.40E-06,  avg # of iterations = 20.0


     -----------------------------------------------
     Non-local corr. energy    =      45.75994441 Ry
     -----------------------------------------------


     total cpu time spent up to now is     1380.7 secs

     total energy              =  -63859.65407648 Ry
     estimated scf accuracy    <       0.19140289 Ry

     iteration #  7     ecut=    70.00 Ry     beta= 0.70
     Davidson diagonalization with overlap

---- Real-time Memory Report at c_bands before calling an iterative solver
          1084 MiB given to the printing process from OS
             0 MiB allocation reported by mallinfo(arena+hblkhd)
       1940743 MiB available memory on the node where the printing process lives
------------------
     c_bands:  2 eigenvalues not converged
     ethr =  7.40E-06,  avg # of iterations = 20.0


     -----------------------------------------------
     Non-local corr. energy    =      45.77124793 Ry
     -----------------------------------------------


     total cpu time spent up to now is     1566.3 secs

     total energy              =  -63859.66945635 Ry
     estimated scf accuracy    <       0.03058867 Ry

     iteration #  8     ecut=    70.00 Ry     beta= 0.70
     Davidson diagonalization with overlap

---- Real-time Memory Report at c_bands before calling an iterative solver
          1084 MiB given to the printing process from OS
             0 MiB allocation reported by mallinfo(arena+hblkhd)
       1940618 MiB available memory on the node where the printing process lives
------------------
     c_bands:  2 eigenvalues not converged
     ethr =  2.01E-06,  avg # of iterations = 20.0


     -----------------------------------------------
     Non-local corr. energy    =      45.77529929 Ry
     -----------------------------------------------


     total cpu time spent up to now is     1768.7 secs

     total energy              =  -63859.66861031 Ry
     estimated scf accuracy    <       0.04521527 Ry

     iteration #  9     ecut=    70.00 Ry     beta= 0.70
     Davidson diagonalization with overlap

---- Real-time Memory Report at c_bands before calling an iterative solver
          1084 MiB given to the printing process from OS
             0 MiB allocation reported by mallinfo(arena+hblkhd)
       1940493 MiB available memory on the node where the printing process lives
------------------
     ethr =  2.01E-06,  avg # of iterations = 18.0


     -----------------------------------------------
     Non-local corr. energy    =      45.77932217 Ry
     -----------------------------------------------


     total cpu time spent up to now is     1931.0 secs

     total energy              =  -63859.67246100 Ry
     estimated scf accuracy    <       0.01036451 Ry

     iteration # 10     ecut=    70.00 Ry     beta= 0.70
     Davidson diagonalization with overlap

---- Real-time Memory Report at c_bands before calling an iterative solver
          1084 MiB given to the printing process from OS
             0 MiB allocation reported by mallinfo(arena+hblkhd)
       1940370 MiB available memory on the node where the printing process lives
------------------
     ethr =  6.81E-07,  avg # of iterations = 16.0


     -----------------------------------------------
     Non-local corr. energy    =      45.78224815 Ry
     -----------------------------------------------


     total cpu time spent up to now is     2092.7 secs

     total energy              =  -63859.67235448 Ry
     estimated scf accuracy    <       0.01764254 Ry

     iteration # 11     ecut=    70.00 Ry     beta= 0.70
     Davidson diagonalization with overlap

---- Real-time Memory Report at c_bands before calling an iterative solver
          1084 MiB given to the printing process from OS
             0 MiB allocation reported by mallinfo(arena+hblkhd)
       1940370 MiB available memory on the node where the printing process lives
------------------
     c_bands:  1 eigenvalues not converged
     ethr =  6.81E-07,  avg # of iterations = 20.0


     -----------------------------------------------
     Non-local corr. energy    =      45.78276045 Ry
     -----------------------------------------------


     total cpu time spent up to now is     2283.3 secs

     total energy              =  -63859.67297746 Ry
     estimated scf accuracy    <       0.00903219 Ry

     iteration # 12     ecut=    70.00 Ry     beta= 0.70
     Davidson diagonalization with overlap

---- Real-time Memory Report at c_bands before calling an iterative solver
          1084 MiB given to the printing process from OS
             0 MiB allocation reported by mallinfo(arena+hblkhd)
       1940330 MiB available memory on the node where the printing process lives
------------------
     c_bands:  1 eigenvalues not converged
     ethr =  5.93E-07,  avg # of iterations = 20.0


     -----------------------------------------------
     Non-local corr. energy    =      45.78470576 Ry
     -----------------------------------------------


     total cpu time spent up to now is     2449.6 secs

     total energy              =  -63859.67363354 Ry
     estimated scf accuracy    <       0.00255999 Ry

     iteration # 13     ecut=    70.00 Ry     beta= 0.70
     Davidson diagonalization with overlap

---- Real-time Memory Report at c_bands before calling an iterative solver
          1084 MiB given to the printing process from OS
             0 MiB allocation reported by mallinfo(arena+hblkhd)
       1940360 MiB available memory on the node where the printing process lives
------------------
     c_bands:  2 eigenvalues not converged
     ethr =  1.68E-07,  avg # of iterations = 20.0


     -----------------------------------------------
     Non-local corr. energy    =      45.78583512 Ry
     -----------------------------------------------


     total cpu time spent up to now is     2635.9 secs

     total energy              =  -63859.67373797 Ry
     estimated scf accuracy    <       0.00099551 Ry

     iteration # 14     ecut=    70.00 Ry     beta= 0.70
     Davidson diagonalization with overlap

---- Real-time Memory Report at c_bands before calling an iterative solver
          1084 MiB given to the printing process from OS
             0 MiB allocation reported by mallinfo(arena+hblkhd)
       1940360 MiB available memory on the node where the printing process lives
------------------
     c_bands:  1 eigenvalues not converged
     ethr =  6.54E-08,  avg # of iterations = 20.0


     -----------------------------------------------
     Non-local corr. energy    =      45.78687558 Ry
     -----------------------------------------------


     total cpu time spent up to now is     2827.1 secs

     total energy              =  -63859.67385883 Ry
     estimated scf accuracy    <       0.00060927 Ry

     iteration # 15     ecut=    70.00 Ry     beta= 0.70
     Davidson diagonalization with overlap

---- Real-time Memory Report at c_bands before calling an iterative solver
          1084 MiB given to the printing process from OS
             0 MiB allocation reported by mallinfo(arena+hblkhd)
       1940323 MiB available memory on the node where the printing process lives
------------------
     ethr =  4.00E-08,  avg # of iterations = 20.0


     -----------------------------------------------
     Non-local corr. energy    =      45.78749002 Ry
     -----------------------------------------------


     total cpu time spent up to now is     3028.3 secs

     total energy              =  -63859.67392384 Ry
     estimated scf accuracy    <       0.00011866 Ry

     iteration # 16     ecut=    70.00 Ry     beta= 0.70
     Davidson diagonalization with overlap

---- Real-time Memory Report at c_bands before calling an iterative solver
          1084 MiB given to the printing process from OS
             0 MiB allocation reported by mallinfo(arena+hblkhd)
       1940327 MiB available memory on the node where the printing process lives
------------------
     ethr =  7.80E-09,  avg # of iterations = 14.0


     -----------------------------------------------
     Non-local corr. energy    =      45.78824887 Ry
     -----------------------------------------------


     total cpu time spent up to now is     3319.7 secs

     total energy              =  -63859.67396226 Ry
     estimated scf accuracy    <       0.00020442 Ry

     iteration # 17     ecut=    70.00 Ry     beta= 0.70
     Davidson diagonalization with overlap

---- Real-time Memory Report at c_bands before calling an iterative solver
          1241 MiB given to the printing process from OS
             0 MiB allocation reported by mallinfo(arena+hblkhd)
       1940065 MiB available memory on the node where the printing process lives
------------------
     ethr =  7.80E-09,  avg # of iterations = 18.0


     -----------------------------------------------
     Non-local corr. energy    =      45.78796649 Ry
     -----------------------------------------------


     total cpu time spent up to now is     3501.5 secs

     total energy              =  -63859.67397352 Ry
     estimated scf accuracy    <       0.00001548 Ry

     iteration # 18     ecut=    70.00 Ry     beta= 0.70
     Davidson diagonalization with overlap

---- Real-time Memory Report at c_bands before calling an iterative solver
          1241 MiB given to the printing process from OS
             0 MiB allocation reported by mallinfo(arena+hblkhd)
       1939701 MiB available memory on the node where the printing process lives
------------------
     c_bands:  2 eigenvalues not converged
     ethr =  1.02E-09,  avg # of iterations = 20.0


     -----------------------------------------------
     Non-local corr. energy    =      45.78833896 Ry
     -----------------------------------------------


     total cpu time spent up to now is     3770.3 secs

     total energy              =  -63859.67397288 Ry
     estimated scf accuracy    <       0.00005209 Ry

     iteration # 19     ecut=    70.00 Ry     beta= 0.70
     Davidson diagonalization with overlap

---- Real-time Memory Report at c_bands before calling an iterative solver
          1241 MiB given to the printing process from OS
             0 MiB allocation reported by mallinfo(arena+hblkhd)
       1939691 MiB available memory on the node where the printing process lives
------------------
     c_bands:  2 eigenvalues not converged
     ethr =  1.02E-09,  avg # of iterations = 20.0


     -----------------------------------------------
     Non-local corr. energy    =      45.78832084 Ry
     -----------------------------------------------


     total cpu time spent up to now is     4005.0 secs

     total energy              =  -63859.67397734 Ry
     estimated scf accuracy    <       0.00000673 Ry

     iteration # 20     ecut=    70.00 Ry     beta= 0.70
     Davidson diagonalization with overlap

---- Real-time Memory Report at c_bands before calling an iterative solver
          1241 MiB given to the printing process from OS
             0 MiB allocation reported by mallinfo(arena+hblkhd)
       1939689 MiB available memory on the node where the printing process lives
------------------
     c_bands:  1 eigenvalues not converged
     ethr =  4.42E-10,  avg # of iterations = 20.0


     -----------------------------------------------
     Non-local corr. energy    =      45.78827400 Ry
     -----------------------------------------------


     total cpu time spent up to now is     4216.4 secs

     total energy              =  -63859.67397744 Ry
     estimated scf accuracy    <       0.00000664 Ry

     iteration # 21     ecut=    70.00 Ry     beta= 0.70
     Davidson diagonalization with overlap

---- Real-time Memory Report at c_bands before calling an iterative solver
          1241 MiB given to the printing process from OS
             0 MiB allocation reported by mallinfo(arena+hblkhd)
       1939441 MiB available memory on the node where the printing process lives
------------------
     ethr =  4.36E-10,  avg # of iterations = 15.0


     -----------------------------------------------
     Non-local corr. energy    =      45.78831916 Ry
     -----------------------------------------------


     total cpu time spent up to now is     4374.6 secs

     total energy              =  -63859.67397657 Ry
     estimated scf accuracy    <       0.00003598 Ry

     iteration # 22     ecut=    70.00 Ry     beta= 0.70
     Davidson diagonalization with overlap

---- Real-time Memory Report at c_bands before calling an iterative solver
          1241 MiB given to the printing process from OS
             0 MiB allocation reported by mallinfo(arena+hblkhd)
       1939439 MiB available memory on the node where the printing process lives
------------------
     ethr =  4.36E-10,  avg # of iterations = 15.0


     -----------------------------------------------
     Non-local corr. energy    =      45.78830007 Ry
     -----------------------------------------------


     total cpu time spent up to now is     4524.4 secs

     total energy              =  -63859.67397834 Ry
     estimated scf accuracy    <       0.00000064 Ry

     iteration # 23     ecut=    70.00 Ry     beta= 0.70
     Davidson diagonalization with overlap

---- Real-time Memory Report at c_bands before calling an iterative solver
          1241 MiB given to the printing process from OS
             0 MiB allocation reported by mallinfo(arena+hblkhd)
       1939445 MiB available memory on the node where the printing process lives
------------------
     ethr =  4.24E-11,  avg # of iterations = 18.0


     -----------------------------------------------
     Non-local corr. energy    =      45.78828913 Ry
     -----------------------------------------------


     total cpu time spent up to now is     4712.9 secs

     total energy              =  -63859.67397840 Ry
     estimated scf accuracy    <       0.00000049 Ry

     iteration # 24     ecut=    70.00 Ry     beta= 0.70
     Davidson diagonalization with overlap

---- Real-time Memory Report at c_bands before calling an iterative solver
          1241 MiB given to the printing process from OS
             0 MiB allocation reported by mallinfo(arena+hblkhd)
       1939440 MiB available memory on the node where the printing process lives
------------------
     ethr =  3.23E-11,  avg # of iterations = 14.0


     -----------------------------------------------
     Non-local corr. energy    =      45.78828514 Ry
     -----------------------------------------------


     total cpu time spent up to now is     4850.7 secs

     total energy              =  -63859.67397843 Ry
     estimated scf accuracy    <       0.00000021 Ry

     iteration # 25     ecut=    70.00 Ry     beta= 0.70
     Davidson diagonalization with overlap

---- Real-time Memory Report at c_bands before calling an iterative solver
          1241 MiB given to the printing process from OS
             0 MiB allocation reported by mallinfo(arena+hblkhd)
       1939441 MiB available memory on the node where the printing process lives
------------------
     ethr =  1.35E-11,  avg # of iterations = 11.0


     -----------------------------------------------
     Non-local corr. energy    =      45.78825096 Ry
     -----------------------------------------------


     total cpu time spent up to now is     4956.3 secs

     End of self-consistent calculation

          k = 0.0000 0.0000 0.0000 (302835 PWs)   bands (ev):

   -40.9643 -40.9643 -40.9643 -40.9643 -40.9643 -40.9643 -40.9633 -40.9633
   -40.9632 -40.9632 -40.9619 -40.9618 -40.9618 -40.9618 -40.9618 -40.9617
   -40.9617 -40.9617 -40.9617 -40.9616 -40.9616 -40.9616 -40.9616 -40.9615
   -40.9615 -40.9614 -40.9614 -40.9613 -40.9605 -40.9604 -40.9604 -40.9603
   -40.9603 -40.9602 -40.9602 -40.9602 -40.9602 -40.9601 -40.9600 -40.9600
   -40.9509 -40.9509 -40.9509 -40.9509 -40.9508 -40.9508 -40.9508 -40.9508
   -40.9508 -40.9507 -40.9507 -40.9507 -40.9507 -40.9507 -40.9507 -40.9506
   -40.9506 -40.9506 -40.9506 -40.9506 -40.9505 -40.9505 -40.9505 -40.9504
   -40.9501 -40.9501 -40.9500 -40.9500 -40.9500 -40.9499 -40.9499 -40.9499
   -40.9498 -40.9498 -40.9498 -40.9497 -40.9487 -40.9486 -40.9486 -40.9486
   -40.9485 -40.9485 -40.9485 -40.9485 -40.9485 -40.9485 -40.9485 -40.9484
   -40.9484 -40.9484 -40.9484 -40.9484 -40.9484 -40.9483 -40.9483 -40.9483
   -40.9483 -40.9483 -40.9483 -40.9482 -40.9473 -40.9472 -40.9472 -40.9472
   -40.9471 -40.9471 -40.9463 -40.9462 -40.9462 -40.9462 -40.9461 -40.9461
   -40.9458 -40.9457 -40.9457 -40.9457 -40.9456 -40.9456 -40.9430 -40.9429
   -40.9428 -40.9428 -40.9428 -40.9427 -40.9425 -40.9424 -40.9424 -40.9424
   -40.9423 -40.9423 -40.9243 -40.9242 -40.9242 -40.9241 -40.9241 -40.9241
   -40.9240 -40.9239 -40.9238 -40.9238 -40.9238 -40.9238 -40.9238 -40.9237
   -40.9237 -40.9237 -40.9237 -40.9237 -40.9228 -40.9227 -40.9226 -40.9226
   -40.9226 -40.9225 -40.9225 -40.9224 -40.9223 -40.9223 -40.9223 -40.9223
   -40.9203 -40.9203 -40.9203 -40.9202 -40.9199 -40.9199 -40.9196 -40.9196
   -40.9196 -40.9195 -40.9175 -40.9175 -40.9174 -40.9174 -40.9173 -40.9172
   -40.9172 -40.9171 -40.9171 -40.9171 -40.9170 -40.9169 -40.9155 -40.9155
   -40.9154 -40.9154 -40.9153 -40.9152 -40.9148 -40.9148 -40.9147 -40.9147
   -40.9147 -40.9147 -40.9146 -40.9146 -40.9145 -40.9145 -40.9145 -40.9144
   -40.9067 -40.9067 -40.9067 -40.9067 -40.9067 -40.9066 -40.9066 -40.9066
   -40.9066 -40.9066 -40.9066 -40.9065 -40.9064 -40.9064 -40.9064 -40.9064
   -40.9064 -40.9063 -40.9063 -40.9063 -40.9063 -40.9063 -40.9063 -40.9062
   -40.9060 -40.9060 -40.9060 -40.9060 -40.9059 -40.9059 -40.9059 -40.9059
   -40.9059 -40.9059 -40.9058 -40.9058 -40.9046 -40.9046 -40.9046 -40.9046
   -40.9045 -40.9045 -40.9045 -40.9045 -40.9045 -40.9045 -40.9044 -40.9044
   -40.9044 -40.9043 -40.9043 -40.9043 -40.9043 -40.9043 -40.9043 -40.9042
   -40.9042 -40.9042 -40.9042 -40.9041 -40.8830 -40.8830 -40.8829 -40.8828
   -40.8828 -40.8828 -40.8828 -40.8828 -40.8827 -40.8826 -40.8825 -40.8825
   -40.8803 -40.8803 -40.8802 -40.8801 -40.8800 -40.8800 -40.8795 -40.8795
   -40.8794 -40.8793 -40.8793 -40.8793 -40.8784 -40.8784 -40.8783 -40.8782
   -40.8782 -40.8782 -40.5718 -40.5717 -40.5717 -40.5717 -40.5716 -40.5716
   -40.5716 -40.5716 -40.5715 -40.5715 -40.5715 -40.5714 -40.5375 -40.5374
   -40.5373 -40.5373 -40.5372 -40.5371 -40.5360 -40.5360 -40.5359 -40.5358
   -40.5358 -40.5357 -40.5254 -40.5253 -40.5252 -40.5252 -40.5251 -40.5250
   -13.1327 -13.1326 -13.1299 -13.1269 -13.1255 -13.1243 -13.1243 -13.1234
   -13.1234 -13.1213 -13.1178 -13.1178 -13.1158 -13.1151 -13.1151 -13.1126
   -13.1125 -13.1113 -13.1111 -13.1101 -13.1101 -13.1093 -13.1088 -13.1076
   -13.1076 -13.1076 -13.1076 -13.1069 -13.1066 -13.1066 -13.1066 -13.1061
   -13.1055 -13.1055 -13.1052 -13.1051 -13.1041 -13.1041 -13.1038 -13.1038
   -13.1027 -13.1021 -13.1020 -13.1013 -13.1011 -13.1011 -13.1006 -13.0994
   -13.0994 -13.0991 -13.0991 -13.0933 -13.0933 -13.0925 -13.0925 -13.0906
   -13.0904 -13.0884 -13.0884 -13.0863 -13.0855 -13.0855 -13.0854 -13.0851
   -13.0851 -13.0838 -13.0833 -13.0829 -13.0829 -13.0826 -13.0825 -13.0824
   -13.0816 -13.0811 -13.0811 -13.0804 -13.0804 -13.0800 -13.0797 -13.0794
   -13.0794 -13.0791 -13.0779 -13.0779 -13.0770 -13.0714 -13.0706 -13.0706
   -13.0704 -13.0704 -13.0701 -13.0701 -13.0684 -13.0683 -13.0669 -13.0669
   -13.0661 -13.0661 -13.0636 -13.0635 -13.0631 -13.0630 -13.0630 -13.0627
   -13.0626 -13.0626 -13.0625 -13.0625 -13.0610 -13.0610 -13.0608 -13.0600
   -13.0600 -13.0593 -13.0586 -13.0586 -13.0585 -13.0585 -13.0579 -13.0579
   -13.0578 -13.0571 -13.0568 -13.0561 -13.0561 -12.9758 -12.9725 -12.9725
   -12.9656 -12.9655 -12.9619 -12.9582 -12.9555 -12.9555 -12.9538 -12.9535
   -12.9535 -12.9526 -12.9519 -12.9519 -12.9509 -12.9509 -12.9499 -12.9488
   -12.9487 -12.9484 -12.9475 -12.9475 -12.9456 -12.9385 -12.9381 -12.9381
   -12.9371 -12.9371 -12.9367  -8.2455  -8.1344  -8.0668  -8.0583  -8.0583
    -8.0377  -8.0376  -8.0178  -7.9800  -7.9683  -7.9682  -7.9236  -7.9236
    -7.8434  -7.8183  -7.7990  -7.7986  -7.7986  -7.7894  -7.7893  -7.7851
    -7.7755  -7.7621  -7.7601  -7.7600  -7.7552  -7.7552  -7.7395  -7.7394
    -7.7381  -7.7366  -7.7366  -7.7273  -7.7171  -7.7171  -7.7121  -7.7042
    -7.6865  -7.6865  -7.6830  -7.6689  -7.6655  -7.6614  -7.6614  -7.6582
    -7.6538  -7.6537  -7.6473  -7.6397  -7.6396  -7.6368  -7.6368  -7.6298
    -7.6297  -7.6221  -7.6200  -7.6200  -7.6088  -7.3371  -7.2855  -7.2854
    -7.2200  -7.2199  -7.2138  -3.8142  -3.8114  -3.8114  -3.8000  -3.8000
    -3.7948  -3.7948  -3.7835  -3.7759  -3.7679  -3.7648  -3.7648  -3.7360
    -3.7359  -3.6824  -3.6823  -3.6294  -3.5562  -3.5489  -3.5489  -3.5386
    -3.5367  -3.5367  -3.5210  -3.5074  -3.4605  -3.4605  -3.3956  -3.3955
    -3.3483  -3.2459   0.7410   0.7410   0.7431   1.0123   1.0168   1.0169
     1.0576   1.0716   1.0717   1.0776   1.0776   1.0962   1.2336   1.2348
     1.2490   1.2490   1.2512   1.2512   1.2611   1.2788   1.2788   1.2924
     1.2924   1.3161   1.3498   1.3648   1.3731   1.3731   1.3880   1.3881
     1.3953   1.4018   1.4019   1.4224   1.4489   1.4489   1.5459   1.5498
     1.5499   1.5755   1.5895   1.5895   1.6056   1.6556   1.6556   1.6828
     1.6828   1.7087   1.7303   1.7303   1.7430   1.7884   1.8032   1.8032
     1.9000   1.9000   1.9047   1.9070   1.9148   1.9148   1.9228   1.9228
     1.9443   1.9444   1.9513   1.9676   1.9951   1.9952   2.0044   2.0537
     2.0720   2.0721   2.0932   2.1027   2.1028   2.1057   2.1238   2.1296
     2.1296   2.1595   2.1660   2.1741   2.1741   2.1782   2.1893   2.1893
     2.2177   2.2177   2.2206   2.2426   2.2427   2.2519   2.2521   2.2709
     2.2995   2.3327   2.3328   2.3851   2.3851   2.3976   2.3976   2.4159
     2.4248   2.4430   2.4914   2.4914   2.5096   2.5255   2.5256   2.5887
     2.5888   2.5900   2.5929   2.6136   2.6136   2.6201   2.6202   2.6230
     2.6271   2.6272   2.6730   2.6956   2.6956   2.7039   2.7040   2.7047
     2.7345   2.7354   2.7401   2.7435   2.7436   2.7442   2.7443   2.7572
     2.7573   2.7639   2.7838   2.7927   2.7997   2.7997   2.8291   2.8291
     2.8335   2.8336   2.8356   2.8359   2.8472   2.8472   2.8522   2.8624
     2.8624   2.8840   2.8841   2.8841   2.9020   2.9020   2.9281   2.9814
     2.9814   3.0211   3.0336   3.0336   3.0359   3.0360   3.0602   3.0627
     3.0892   3.1006   3.1006   3.1051   3.1147   3.1147   3.1167   3.1168
     3.1493   3.1877   3.2067   3.2068   3.2228   3.2228   3.2505   3.2505
     3.2600   3.3037   3.3037   3.3687   3.3812   3.3812   3.3834   3.3934
     3.4122   3.4122   5.8155   6.0546   6.3528   6.3528   6.3631   6.3631
     6.3680   6.3713   6.4604   6.4605   6.4687   6.5797   6.5798   6.5830
     6.5830   6.5835   6.6599   6.6599   6.6617   6.7571   6.7573   6.7721
     6.8146   6.8149   6.8209   6.8543   6.8544   6.8795   6.8796   6.8835
     7.0125   7.0180   7.0181   7.0249   7.0300   7.0300   7.0927   7.0929
     7.0971   7.0972   7.1074   7.1075   7.1121   7.1155   7.1254   7.1255
     7.1359   7.1359   7.1448   7.1449   7.1467   7.1467   7.1506   7.1561
     7.1771   7.2113   7.2114   7.2633   7.2635   7.2637   7.2680   7.2682
     7.2718   7.2762   7.2780   7.2909   7.2955   7.2956   7.3060   7.3062
     7.3353   7.3354   7.3654   7.3656   7.3665   7.3821   7.4102   7.4102
     7.4422   7.4423   7.4464   7.4465   7.4689   7.4724   7.5131   7.5680
     7.5682   7.5913   7.5915   7.6437   7.8570   7.8840   7.8842   9.0711
     9.0716   9.0717   9.6470   9.6489   9.6490   9.6600   9.7386   9.7387
     9.7459   9.7469   9.7651   9.7651   9.9008   9.9015   9.9015   9.9244
     9.9244   9.9382   9.9382   9.9883  10.0121  10.0187  10.0188  10.1009
    10.2445  10.2590  10.2593  10.2593  10.2648  10.2687  10.2687  10.3343
    10.3696  10.3696  10.3920  10.5315  10.5316  10.6193  10.6741  10.6742
    10.7023  10.7070  10.7070  10.7684  10.8373  10.8374  10.8413  10.8414
    10.8535  10.8696  10.9768  10.9769  11.0795  11.0796  11.0858  11.0991
    11.0993

     occupation numbers 
     1.0000   1.0000   1.0000   1.0000   1.0000   1.0000   1.0000   1.0000
     1.0000   1.0000   1.0000   1.0000   1.0000   1.0000   1.0000   1.0000
     1.0000   1.0000   1.0000   1.0000   1.0000   1.0000   1.0000   1.0000
     1.0000   1.0000   1.0000   1.0000   1.0000   1.0000   1.0000   1.0000
     1.0000   1.0000   1.0000   1.0000   1.0000   1.0000   1.0000   1.0000
     1.0000   1.0000   1.0000   1.0000   1.0000   1.0000   1.0000   1.0000
     1.0000   1.0000   1.0000   1.0000   1.0000   1.0000   1.0000   1.0000
     1.0000   1.0000   1.0000   1.0000   1.0000   1.0000   1.0000   1.0000
     1.0000   1.0000   1.0000   1.0000   1.0000   1.0000   1.0000   1.0000
     1.0000   1.0000   1.0000   1.0000   1.0000   1.0000   1.0000   1.0000
     1.0000   1.0000   1.0000   1.0000   1.0000   1.0000   1.0000   1.0000
     1.0000   1.0000   1.0000   1.0000   1.0000   1.0000   1.0000   1.0000
     1.0000   1.0000   1.0000   1.0000   1.0000   1.0000   1.0000   1.0000
     1.0000   1.0000   1.0000   1.0000   1.0000   1.0000   1.0000   1.0000
     1.0000   1.0000   1.0000   1.0000   1.0000   1.0000   1.0000   1.0000
     1.0000   1.0000   1.0000   1.0000   1.0000   1.0000   1.0000   1.0000
     1.0000   1.0000   1.0000   1.0000   1.0000   1.0000   1.0000   1.0000
     1.0000   1.0000   1.0000   1.0000   1.0000   1.0000   1.0000   1.0000
     1.0000   1.0000   1.0000   1.0000   1.0000   1.0000   1.0000   1.0000
     1.0000   1.0000   1.0000   1.0000   1.0000   1.0000   1.0000   1.0000
     1.0000   1.0000   1.0000   1.0000   1.0000   1.0000   1.0000   1.0000
     1.0000   1.0000   1.0000   1.0000   1.0000   1.0000   1.0000   1.0000
     1.0000   1.0000   1.0000   1.0000   1.0000   1.0000   1.0000   1.0000
     1.0000   1.0000   1.0000   1.0000   1.0000   1.0000   1.0000   1.0000
     1.0000   1.0000   1.0000   1.0000   1.0000   1.0000   1.0000   1.0000
     1.0000   1.0000   1.0000   1.0000   1.0000   1.0000   1.0000   1.0000
     1.0000   1.0000   1.0000   1.0000   1.0000   1.0000   1.0000   1.0000
     1.0000   1.0000   1.0000   1.0000   1.0000   1.0000   1.0000   1.0000
     1.0000   1.0000   1.0000   1.0000   1.0000   1.0000   1.0000   1.0000
     1.0000   1.0000   1.0000   1.0000   1.0000   1.0000   1.0000   1.0000
     1.0000   1.0000   1.0000   1.0000   1.0000   1.0000   1.0000   1.0000
     1.0000   1.0000   1.0000   1.0000   1.0000   1.0000   1.0000   1.0000
     1.0000   1.0000   1.0000   1.0000   1.0000   1.0000   1.0000   1.0000
     1.0000   1.0000   1.0000   1.0000   1.0000   1.0000   1.0000   1.0000
     1.0000   1.0000   1.0000   1.0000   1.0000   1.0000   1.0000   1.0000
     1.0000   1.0000   1.0000   1.0000   1.0000   1.0000   1.0000   1.0000
     1.0000   1.0000   1.0000   1.0000   1.0000   1.0000   1.0000   1.0000
     1.0000   1.0000   1.0000   1.0000   1.0000   1.0000   1.0000   1.0000
     1.0000   1.0000   1.0000   1.0000   1.0000   1.0000   1.0000   1.0000
     1.0000   1.0000   1.0000   1.0000   1.0000   1.0000   1.0000   1.0000
     1.0000   1.0000   1.0000   1.0000   1.0000   1.0000   1.0000   1.0000
     1.0000   1.0000   1.0000   1.0000   1.0000   1.0000   1.0000   1.0000
     1.0000   1.0000   1.0000   1.0000   1.0000   1.0000   1.0000   1.0000
     1.0000   1.0000   1.0000   1.0000   1.0000   1.0000   1.0000   1.0000
     1.0000   1.0000   1.0000   1.0000   1.0000   1.0000   1.0000   1.0000
     1.0000   1.0000   1.0000   1.0000   1.0000   1.0000   1.0000   1.0000
     1.0000   1.0000   1.0000   1.0000   1.0000   1.0000   1.0000   1.0000
     1.0000   1.0000   1.0000   1.0000   1.0000   1.0000   1.0000   1.0000
     1.0000   1.0000   1.0000   1.0000   1.0000   1.0000   1.0000   1.0000
     1.0000   1.0000   1.0000   1.0000   1.0000   1.0000   1.0000   1.0000
     1.0000   1.0000   1.0000   1.0000   1.0000   1.0000   1.0000   1.0000
     1.0000   1.0000   1.0000   1.0000   1.0000   1.0000   1.0000   1.0000
     1.0000   1.0000   1.0000   1.0000   1.0000   1.0000   1.0000   1.0000
     1.0000   1.0000   1.0000   1.0000   1.0000   1.0000   1.0000   1.0000
     1.0000   1.0000   1.0000   1.0000   1.0000   1.0000   1.0000   1.0000
     1.0000   1.0000   1.0000   1.0000   1.0000   1.0000   1.0000   1.0000
     1.0000   1.0000   1.0000   1.0000   1.0000   1.0000   1.0000   1.0000
     1.0000   1.0000   1.0000   1.0000   1.0000   1.0000   1.0000   1.0000
     1.0000   1.0000   1.0000   1.0000   1.0000   1.0000   1.0000   1.0000
     1.0000   1.0000   1.0000   1.0000   1.0000   1.0000   1.0000   1.0000
     1.0000   1.0000   1.0000   1.0000   1.0000   1.0000   1.0000   1.0000
     1.0000   1.0000   1.0000   1.0000   1.0000   1.0000   1.0000   1.0000
     1.0000   1.0000   1.0000   1.0000   1.0000   1.0000   1.0000   1.0000
     1.0000   1.0000   1.0000   1.0000   1.0000   1.0000   1.0000   1.0000
     1.0000   1.0000   1.0000   1.0000   1.0000   1.0000   1.0000   1.0000
     1.0000   1.0000   1.0000   1.0000   1.0000   1.0000   1.0000   1.0000
     1.0000   1.0000   1.0000   1.0000   1.0000   1.0000   1.0000   1.0000
     1.0000   1.0000   1.0000   1.0000   1.0000   1.0000   1.0000   1.0000
     1.0000   1.0000   1.0000   1.0000   1.0000   1.0000   1.0000   1.0000
     1.0000   1.0000   1.0000   1.0000   1.0000   1.0000   1.0000   1.0000
     1.0000   1.0000   1.0000   1.0000   1.0000   1.0000   1.0000   1.0000
     1.0000   1.0000   1.0000   1.0000   1.0000   1.0000   1.0000   1.0000
     1.0000   1.0000   1.0000   1.0000   1.0000   1.0000   1.0000   1.0000
     1.0000   1.0000   1.0000   1.0000   1.0000   1.0000   1.0000   1.0000
     1.0000   1.0000   1.0000   1.0000   1.0000   1.0000   1.0000   1.0000
     1.0000   1.0000   1.0000   1.0000   1.0000   1.0000   1.0000   1.0000
     1.0000   1.0000   1.0000   1.0000   1.0000   1.0000   1.0000   1.0000
     1.0000   1.0000   1.0000   1.0000   1.0000   1.0000   1.0000   1.0000
     1.0000   1.0000   1.0000   1.0000   1.0000   1.0000   1.0000   1.0000
     1.0000   1.0000   1.0000   1.0000   1.0000   1.0000   1.0000   1.0000
     1.0000   1.0000   1.0000   1.0000   1.0000   1.0000   1.0000   1.0000
     1.0000   1.0000   1.0000   1.0000   1.0000   1.0000   1.0000   1.0000
     1.0000   1.0000   1.0000   1.0000   1.0000   1.0000   1.0000   1.0000
     1.0000   1.0000   1.0000   1.0000   1.0000   1.0000   1.0000   1.0000
     1.0000   1.0000   1.0000   1.0000   1.0000   1.0000   1.0000   1.0000
     1.0000   1.0000   1.0000   1.0000   1.0000   1.0000   1.0000   1.0000
     1.0000   1.0000   1.0000   1.0000   1.0000   1.0000   1.0000   1.0000
     1.0000   1.0000   1.0000   1.0000   1.0000   1.0000   1.0000   1.0000
     1.0000   1.0000   1.0000   1.0000   1.0000   1.0000   1.0000   1.0000
     1.0000   1.0000   1.0000   1.0000   1.0000   1.0000   1.0000   1.0000
     1.0000   1.0000   1.0000   1.0000   1.0000   1.0000   1.0000   1.0000
     1.0000   1.0000   1.0000   1.0000   1.0000   1.0000   1.0000   1.0000
     1.0000   1.0000   1.0000   1.0000   1.0000   1.0000   1.0000   1.0000
     0.9999   0.9994   0.9988   0.9988   0.9979   0.9979   0.9950   0.9950
     0.9934   0.9786   0.9786   0.9114   0.8888   0.8887   0.8844   0.8628
     0.8154   0.8153   0.0000   0.0000   0.0000   0.0000   0.0000   0.0000
     0.0000   0.0000   0.0000   0.0000   0.0000   0.0000   0.0000   0.0000
     0.0000   0.0000   0.0000   0.0000   0.0000   0.0000   0.0000   0.0000
     0.0000   0.0000   0.0000   0.0000   0.0000   0.0000   0.0000   0.0000
     0.0000   0.0000   0.0000   0.0000   0.0000   0.0000   0.0000   0.0000
     0.0000   0.0000   0.0000   0.0000   0.0000   0.0000   0.0000   0.0000
     0.0000   0.0000   0.0000   0.0000   0.0000   0.0000   0.0000   0.0000
     0.0000   0.0000   0.0000   0.0000   0.0000   0.0000   0.0000   0.0000
     0.0000   0.0000   0.0000   0.0000   0.0000   0.0000   0.0000   0.0000
     0.0000   0.0000   0.0000   0.0000   0.0000   0.0000   0.0000   0.0000
     0.0000   0.0000   0.0000   0.0000   0.0000   0.0000   0.0000   0.0000
     0.0000   0.0000   0.0000   0.0000   0.0000   0.0000   0.0000   0.0000
     0.0000   0.0000   0.0000   0.0000   0.0000   0.0000   0.0000   0.0000
     0.0000   0.0000   0.0000   0.0000   0.0000   0.0000   0.0000   0.0000
     0.0000   0.0000   0.0000   0.0000   0.0000   0.0000   0.0000   0.0000
     0.0000   0.0000   0.0000   0.0000   0.0000   0.0000   0.0000   0.0000
     0.0000   0.0000   0.0000   0.0000   0.0000   0.0000   0.0000   0.0000
     0.0000   0.0000   0.0000   0.0000   0.0000   0.0000   0.0000   0.0000
     0.0000   0.0000   0.0000   0.0000   0.0000   0.0000   0.0000   0.0000
     0.0000

     the Fermi energy is     3.4986 ev

!    total energy              =  -63859.67397839 Ry
     total all-electron energy =  -2207180.239641 Ry
     estimated scf accuracy    <       0.00000004 Ry
     smearing contrib. (-TS)   =      -0.02349969 Ry
     internal energy E=F+TS    =  -63859.65047870 Ry

     The total energy is F=E-TS. E is the sum of the following terms:
     one-electron contribution =  -11935.04653979 Ry
     hartree contribution      =    6651.74141702 Ry
     xc contribution           =   -4502.42289668 Ry
     ewald contribution        =   -9768.69824827 Ry
     one-center paw contrib.   =  -44305.22421099 Ry
      -> PAW hartree energy AE =      95.88548382 Ry
      -> PAW hartree energy PS =     -96.12193807 Ry
      -> PAW xc energy AE      =    -798.42857102 Ry
      -> PAW xc energy PS      =      33.30854931 Ry
      -> total E_H with PAW    =    6651.50496277 Ry
      -> total E_XC with PAW   =   -5267.54291839 Ry

     convergence has been achieved in  25 iterations


     -----------------------------------------------
     Non-local corr. energy    =      45.78825096 Ry
     -----------------------------------------------


     Forces acting on atoms (cartesian axes, Ry/au):

     atom    1 type  1   force =     0.00000103   -0.00000063    0.00000139
     atom    2 type  1   force =     0.00768815   -0.01332607   -0.00000725
     atom    3 type  1   force =     0.00078013   -0.00135246   -0.00000375
     atom    4 type  1   force =    -0.00000091   -0.00000222   -0.00000251
     atom    5 type  1   force =     0.00000235   -0.00000340   -0.00000276
     atom    6 type  1   force =    -0.00769878    0.01332796    0.00000919
     atom    7 type  1   force =    -0.00077526    0.00134716    0.00001158
     atom    8 type  1   force =    -0.01539208    0.00000064    0.00001364
     atom    9 type  1   force =    -0.00155819   -0.00000244    0.00000756
     atom   10 type  1   force =    -0.00769521   -0.01332341    0.00000003
     atom   11 type  1   force =    -0.00077991   -0.00135280    0.00000143
     atom   12 type  1   force =    -0.00000293   -0.00142923   -0.00016286
     atom   13 type  1   force =    -0.00000062   -0.00085740   -0.00020406
     atom   14 type  1   force =    -0.00123922    0.00071605   -0.00014814
     atom   15 type  1   force =    -0.00073967    0.00042518   -0.00019195
     atom   16 type  1   force =    -0.00000168    0.00000196    0.00000957
     atom   17 type  1   force =     0.00000278   -0.00000113    0.00000579
     atom   18 type  1   force =    -0.00124152   -0.00071354    0.00016837
     atom   19 type  1   force =    -0.00073884   -0.00043019    0.00020392
     atom   20 type  1   force =    -0.00000224    0.00000093    0.00000324
     atom   21 type  1   force =     0.00000112   -0.00000216    0.00000054
     atom   22 type  1   force =     0.00123949    0.00071656   -0.00014758
     atom   23 type  1   force =     0.00074423    0.00042693   -0.00019275
     atom   24 type  1   force =     0.01538973    0.00000037    0.00000076
     atom   25 type  1   force =     0.00155664    0.00000029   -0.00000421
     atom   26 type  1   force =     0.00123678   -0.00071409    0.00015763
     atom   27 type  1   force =     0.00074168   -0.00043059    0.00019329
     atom   28 type  1   force =    -0.00000539    0.00142991    0.00015736
     atom   29 type  1   force =    -0.00000046    0.00085469    0.00019392
     atom   30 type  1   force =     0.00769074    0.01332902    0.00000369
     atom   31 type  1   force =     0.00077861    0.00134653    0.00000294
     atom   32 type  2   force =    -0.00002917   -0.00058931    0.00145751
     atom   33 type  2   force =    -0.00002425   -0.00523373    0.00790105
     atom   34 type  2   force =    -0.00051368    0.00029093    0.00146543
     atom   35 type  2   force =    -0.00454222    0.00263828    0.00792191
     atom   36 type  2   force =    -0.00038858    0.00024036    0.00106796
     atom   37 type  2   force =    -0.00154011    0.00150804    0.00062574
     atom   38 type  2   force =     0.00000897   -0.00046607    0.00106695
     atom   39 type  2   force =     0.00051993   -0.00209521    0.00062208
     atom   40 type  2   force =     0.00038862   -0.00022739    0.00116633
     atom   41 type  2   force =     0.00138396   -0.00077196    0.00101428
     atom   42 type  2   force =     0.00049862    0.00031310    0.00147959
     atom   43 type  2   force =     0.00454888    0.00266547    0.00790660
     atom   44 type  2   force =     0.00000147    0.00044605    0.00116641
     atom   45 type  2   force =     0.00001185    0.00159801    0.00105338
     atom   46 type  2   force =    -0.00002112   -0.00001983    0.00109241
     atom   47 type  2   force =    -0.00007691   -0.00005067    0.00097318
     atom   48 type  2   force =     0.00000977    0.00002731    0.00107997
     atom   49 type  2   force =    -0.00000466    0.00010408    0.00095648
     atom   50 type  2   force =     0.00040463    0.00022345    0.00106703
     atom   51 type  2   force =     0.00204586    0.00060411    0.00061432
     atom   52 type  2   force =     0.00038133    0.00025436    0.00106149
     atom   53 type  2   force =     0.00151807    0.00150254    0.00062488
     atom   54 type  2   force =     0.00003443   -0.00001024    0.00109015
     atom   55 type  2   force =     0.00008203   -0.00005173    0.00098193
     atom   56 type  2   force =    -0.00038230   -0.00022181    0.00113295
     atom   57 type  2   force =    -0.00139944   -0.00079542    0.00104812
     atom   58 type  2   force =    -0.00039821    0.00021726    0.00105491
     atom   59 type  2   force =    -0.00207936    0.00059196    0.00061503
     atom   60 type  2   force =    -0.00000043    0.00001139    0.00093793
     atom   61 type  2   force =    -0.00002081    0.00000818    0.00067044
     atom   62 type  2   force =    -0.00002702   -0.00045212    0.00105009
     atom   63 type  2   force =    -0.00055999   -0.00208917    0.00062395
     atom   64 type  2   force =    -0.00458104   -0.00265472   -0.00793828
     atom   65 type  2   force =    -0.00048124   -0.00027798   -0.00142452
     atom   66 type  2   force =    -0.00139588    0.00081110   -0.00105436
     atom   67 type  2   force =    -0.00035201    0.00021571   -0.00113848
     atom   68 type  2   force =     0.00008983    0.00003169   -0.00094769
     atom   69 type  2   force =     0.00002951    0.00001293   -0.00110627
     atom   70 type  2   force =    -0.00001052   -0.00166026   -0.00104591
     atom   71 type  2   force =    -0.00000173   -0.00042966   -0.00114936
     atom   72 type  2   force =     0.00455635   -0.00263087   -0.00796001
     atom   73 type  2   force =     0.00048296   -0.00026060   -0.00142577
     atom   74 type  2   force =    -0.00000015    0.00528314   -0.00796288
     atom   75 type  2   force =     0.00001499    0.00056596   -0.00140954
     atom   76 type  2   force =    -0.00053221    0.00209433   -0.00062111
     atom   77 type  2   force =    -0.00001252    0.00043396   -0.00107007
     atom   78 type  2   force =     0.00157296   -0.00156544   -0.00060386
     atom   79 type  2   force =     0.00037655   -0.00024306   -0.00107271
     atom   80 type  2   force =     0.00212611   -0.00059099   -0.00062605
     atom   81 type  2   force =     0.00038646   -0.00020380   -0.00106791
     atom   82 type  2   force =     0.00142146    0.00083793   -0.00108945
     atom   83 type  2   force =     0.00034702    0.00021873   -0.00112785
     atom   84 type  2   force =     0.00056464    0.00210188   -0.00063009
     atom   85 type  2   force =     0.00002192    0.00043122   -0.00105830
     atom   86 type  2   force =     0.00002769   -0.00002200   -0.00065638
     atom   87 type  2   force =     0.00000685   -0.00000866   -0.00095573
     atom   88 type  2   force =    -0.00207101   -0.00060225   -0.00061824
     atom   89 type  2   force =    -0.00038919   -0.00021146   -0.00107853
     atom   90 type  2   force =     0.00001311   -0.00008534   -0.00096717
     atom   91 type  2   force =    -0.00000250   -0.00002074   -0.00110516
     atom   92 type  2   force =    -0.00007461    0.00004675   -0.00097189
     atom   93 type  2   force =    -0.00003418    0.00001700   -0.00110690
     atom   94 type  2   force =    -0.00153754   -0.00153984   -0.00061005
     atom   95 type  2   force =    -0.00037281   -0.00024724   -0.00106800
     The non-local contrib.  to forces
     atom    1 type  1   force =    -0.00000327    0.00000007   -0.00000039
     atom    2 type  1   force =     0.00767381   -0.01327586   -0.00001148
     atom    3 type  1   force =     0.00115422   -0.00200892   -0.00001135
     atom    4 type  1   force =     0.00003655   -0.00003997   -0.00000872
     atom    5 type  1   force =    -0.00000150   -0.00000405   -0.00000956
     atom    6 type  1   force =    -0.00762472    0.01319066   -0.00005189
     atom    7 type  1   force =    -0.00117171    0.00198504   -0.00005648
     atom    8 type  1   force =    -0.01525501   -0.00003501    0.00001666
     atom    9 type  1   force =    -0.00231979   -0.00000277    0.00001045
     atom   10 type  1   force =    -0.00761192   -0.01327546   -0.00000122
     atom   11 type  1   force =    -0.00116316   -0.00200950   -0.00000166
     atom   12 type  1   force =     0.00003365   -0.00244528   -0.00087867
     atom   13 type  1   force =    -0.00000579   -0.00109281    0.00026353
     atom   14 type  1   force =    -0.00206217    0.00114800   -0.00092549
     atom   15 type  1   force =    -0.00096075    0.00052348    0.00021644
     atom   16 type  1   force =     0.00003545   -0.00003505    0.00001306
     atom   17 type  1   force =    -0.00000224   -0.00000179    0.00000949
     atom   18 type  1   force =    -0.00204940   -0.00124067    0.00088063
     atom   19 type  1   force =    -0.00094544   -0.00054899   -0.00026923
     atom   20 type  1   force =     0.00003472   -0.00003736    0.00000039
     atom   21 type  1   force =    -0.00000447   -0.00000403   -0.00000189
     atom   22 type  1   force =     0.00210803    0.00114875   -0.00092496
     atom   23 type  1   force =     0.00092748    0.00052514    0.00021544
     atom   24 type  1   force =     0.01532028   -0.00004932    0.00004935
     atom   25 type  1   force =     0.00230807   -0.00001650    0.00004596
     atom   26 type  1   force =     0.00211820   -0.00125744    0.00091729
     atom   27 type  1   force =     0.00093763   -0.00056574   -0.00023238
     atom   28 type  1   force =     0.00003098    0.00235129    0.00091685
     atom   29 type  1   force =    -0.00000623    0.00107015   -0.00023070
     atom   30 type  1   force =     0.00766353    0.01317738   -0.00000970
     atom   31 type  1   force =     0.00113712    0.00196727   -0.00001252
     atom   32 type  2   force =     0.00000295   -0.00395632    0.25614397
     atom   33 type  2   force =    -0.00000647   -0.13534329    0.16410951
     atom   34 type  2   force =    -0.00339462    0.00197854    0.25614307
     atom   35 type  2   force =    -0.11717986    0.06770094    0.16413028
     atom   36 type  2   force =    -0.00167581    0.00116717    0.24909503
     atom   37 type  2   force =    -0.01010499    0.00809845    0.24076707
     atom   38 type  2   force =     0.00016391   -0.00201338    0.24910415
     atom   39 type  2   force =     0.00194619   -0.01276085    0.24077431
     atom   40 type  2   force =     0.00338160   -0.00198720    0.25370759
     atom   41 type  2   force =     0.00946672   -0.00548177    0.24370546
     atom   42 type  2   force =     0.00339163    0.00198468    0.25616625
     atom   43 type  2   force =     0.11718809    0.06771963    0.16411896
     atom   44 type  2   force =    -0.00000785    0.00390931    0.25370271
     atom   45 type  2   force =    -0.00001576    0.01095062    0.24372102
     atom   46 type  2   force =    -0.00003817    0.00000252    0.24913390
     atom   47 type  2   force =     0.00034556    0.00024210    0.24597838
     atom   48 type  2   force =     0.00001299    0.00000813    0.24911992
     atom   49 type  2   force =     0.00000185   -0.00043149    0.24596844
     atom   50 type  2   force =     0.00184424    0.00090270    0.24910665
     atom   51 type  2   force =     0.01203492    0.00474303    0.24076310
     atom   52 type  2   force =     0.00168796    0.00116928    0.24910340
     atom   53 type  2   force =     0.01008584    0.00810361    0.24076955
     atom   54 type  2   force =     0.00003318    0.00001486    0.24912829
     atom   55 type  2   force =    -0.00037163    0.00025127    0.24597902
     atom   56 type  2   force =    -0.00337522   -0.00197557    0.25367734
     atom   57 type  2   force =    -0.00949261   -0.00547912    0.24371932
     atom   58 type  2   force =    -0.00184235    0.00089964    0.24909417
     atom   59 type  2   force =    -0.01206731    0.00473707    0.24076329
     atom   60 type  2   force =    -0.00000533    0.00002083    0.24777319
     atom   61 type  2   force =    -0.00002470    0.00002344    0.24411211
     atom   62 type  2   force =    -0.00016286   -0.00200681    0.24909901
     atom   63 type  2   force =    -0.00197741   -0.01275745    0.24078256
     atom   64 type  2   force =    -0.11728188   -0.06763165   -0.16415020
     atom   65 type  2   force =    -0.00342160   -0.00192639   -0.25610639
     atom   66 type  2   force =    -0.00951637    0.00547557   -0.24373913
     atom   67 type  2   force =    -0.00337677    0.00192590   -0.25367477
     atom   68 type  2   force =    -0.00039536   -0.00020951   -0.24596607
     atom   69 type  2   force =     0.00001090    0.00000437   -0.24912346
     atom   70 type  2   force =    -0.00004584   -0.01097798   -0.24371454
     atom   71 type  2   force =    -0.00002298   -0.00390100   -0.25368369
     atom   72 type  2   force =     0.11720940   -0.06762956   -0.16410975
     atom   73 type  2   force =     0.00338772   -0.00191435   -0.25610787
     atom   74 type  2   force =    -0.00002759    0.13536012   -0.16418544
     atom   75 type  2   force =     0.00000253    0.00391026   -0.25610759
     atom   76 type  2   force =    -0.00196140    0.01281428   -0.24077672
     atom   77 type  2   force =    -0.00014540    0.00202403   -0.24909899
     atom   78 type  2   force =     0.01012142   -0.00811196   -0.24075667
     atom   79 type  2   force =     0.00169478   -0.00115551   -0.24909535
     atom   80 type  2   force =     0.01208246   -0.00467407   -0.24076335
     atom   81 type  2   force =     0.00184190   -0.00085012   -0.24909539
     atom   82 type  2   force =     0.00948495    0.00550690   -0.24374821
     atom   83 type  2   force =     0.00335706    0.00194234   -0.25367292
     atom   84 type  2   force =     0.00194823    0.01282655   -0.24078164
     atom   85 type  2   force =     0.00015957    0.00203021   -0.24909707
     atom   86 type  2   force =     0.00001055    0.00000466   -0.24410828
     atom   87 type  2   force =     0.00001818   -0.00000107   -0.24777414
     atom   88 type  2   force =    -0.01205195   -0.00466730   -0.24077404
     atom   89 type  2   force =    -0.00181192   -0.00084527   -0.24909588
     atom   90 type  2   force =     0.00001492    0.00043951   -0.24597883
     atom   91 type  2   force =     0.00002090   -0.00002938   -0.24912988
     atom   92 type  2   force =     0.00036914   -0.00018238   -0.24597865
     atom   93 type  2   force =    -0.00001421    0.00002766   -0.24912693
     atom   94 type  2   force =    -0.01010248   -0.00807605   -0.24077416
     atom   95 type  2   force =    -0.00166254   -0.00113948   -0.24910089
     The ionic contribution  to forces
     atom    1 type  1   force =    -0.00014404   -0.00080535    0.00012578
     atom    2 type  1   force =     2.27324356   -3.93844266   -0.00013717
     atom    3 type  1   force =     0.48299963   -0.83702193   -0.00024368
     atom    4 type  1   force =    -0.00091787    0.00102181   -0.00022176
     atom    5 type  1   force =    -0.00017443    0.00037991   -0.00026080
     atom    6 type  1   force =    -2.27470703    3.94011649    0.00087397
     atom    7 type  1   force =    -0.48303213    0.83740212    0.00055565
     atom    8 type  1   force =    -4.54901639    0.00006752    0.00032746
     atom    9 type  1   force =    -0.96629594   -0.00063755    0.00041068
     atom   10 type  1   force =    -2.27490323   -3.93836593    0.00006404
     atom   11 type  1   force =    -0.48308895   -0.83690470    0.00004125
[...]
     atom   13 type  1   force =    -0.00000011    0.00000254    0.00000021
     atom   14 type  1   force =     0.00000083   -0.00000014    0.00000041
     atom   15 type  1   force =    -0.00000051    0.00000057   -0.00000043
     atom   16 type  1   force =    -0.00000336   -0.00000051    0.00000246
     atom   17 type  1   force =    -0.00000155   -0.00000046   -0.00000252
     atom   18 type  1   force =     0.00000433    0.00000116    0.00000576
     atom   19 type  1   force =     0.00000099    0.00000011   -0.00000537
     atom   20 type  1   force =     0.00000194    0.00000048    0.00000267
     atom   21 type  1   force =     0.00000119    0.00000023   -0.00000270
     atom   22 type  1   force =    -0.00000483   -0.00000223   -0.00000045
     atom   23 type  1   force =    -0.00000147   -0.00000043    0.00000010
     atom   24 type  1   force =    -0.00001288   -0.00000271    0.00000355
     atom   25 type  1   force =    -0.00000529   -0.00000103   -0.00000263
     atom   26 type  1   force =    -0.00000702    0.00000336    0.00000544
     atom   27 type  1   force =    -0.00000242    0.00000099   -0.00000484
     atom   28 type  1   force =     0.00000061   -0.00000281    0.00000583
     atom   29 type  1   force =     0.00000013   -0.00000019   -0.00000538
     atom   30 type  1   force =    -0.00000314   -0.00001134    0.00000352
     atom   31 type  1   force =    -0.00000107   -0.00000480   -0.00000318
     atom   32 type  2   force =     0.00000323   -0.00000565   -0.00000264
     atom   33 type  2   force =     0.00000386   -0.00000947   -0.00000280
     atom   34 type  2   force =    -0.00000316    0.00000054    0.00000015
     atom   35 type  2   force =    -0.00000588    0.00000121   -0.00000613
     atom   36 type  2   force =    -0.00000414    0.00000230   -0.00000189
     atom   37 type  2   force =    -0.00000244    0.00000742   -0.00000067
     atom   38 type  2   force =    -0.00000086    0.00000002   -0.00000356
     atom   39 type  2   force =     0.00000412    0.00000049    0.00000175
     atom   40 type  2   force =     0.00000134   -0.00000087   -0.00000233
     atom   41 type  2   force =     0.00000596   -0.00000364   -0.00000052
     atom   42 type  2   force =     0.00000641   -0.00000126   -0.00000224
     atom   43 type  2   force =     0.00000954   -0.00000103   -0.00000387
     atom   44 type  2   force =     0.00000093    0.00000346    0.00000165
     atom   45 type  2   force =     0.00000111    0.00000951   -0.00000531
     atom   46 type  2   force =    -0.00000219    0.00000259   -0.00000078
     atom   47 type  2   force =    -0.00000078    0.00000432   -0.00000201
     atom   48 type  2   force =    -0.00000233    0.00000091   -0.00000096
     atom   49 type  2   force =    -0.00000265   -0.00000067   -0.00000167
     atom   50 type  2   force =     0.00000059    0.00000020   -0.00000364
     atom   51 type  2   force =     0.00000369   -0.00000461    0.00000149
     atom   52 type  2   force =     0.00000403   -0.00000005   -0.00000268
     atom   53 type  2   force =     0.00000225    0.00000458    0.00000040
     atom   54 type  2   force =     0.00000086    0.00000070   -0.00000037
     atom   55 type  2   force =    -0.00000093    0.00000208   -0.00000253
     atom   56 type  2   force =    -0.00000228   -0.00000242    0.00000097
     atom   57 type  2   force =    -0.00000687   -0.00000538   -0.00000382
     atom   58 type  2   force =    -0.00000391    0.00000134   -0.00000208
     atom   59 type  2   force =    -0.00000766   -0.00000310   -0.00000044
     atom   60 type  2   force =    -0.00000088    0.00000069   -0.00000441
     atom   61 type  2   force =    -0.00000085    0.00000052    0.00000240
     atom   62 type  2   force =     0.00000221   -0.00000216   -0.00000299
     atom   63 type  2   force =    -0.00000236   -0.00000222    0.00000100
     atom   64 type  2   force =    -0.00000307   -0.00000665    0.00001061
     atom   65 type  2   force =    -0.00000323   -0.00000443   -0.00000470
     atom   66 type  2   force =    -0.00000887    0.00000375    0.00000897
     atom   67 type  2   force =    -0.00000448    0.00000162   -0.00000576
     atom   68 type  2   force =    -0.00000315    0.00000226    0.00000593
     atom   69 type  2   force =    -0.00000079    0.00000180   -0.00000303
     atom   70 type  2   force =     0.00000326   -0.00000562    0.00000741
     atom   71 type  2   force =     0.00000140   -0.00000313   -0.00000499
     atom   72 type  2   force =     0.00000922   -0.00000661    0.00001005
     atom   73 type  2   force =     0.00000601   -0.00000435   -0.00000431
     atom   74 type  2   force =     0.00000309    0.00000371    0.00001168
     atom   75 type  2   force =     0.00000138    0.00000382   -0.00000512
     atom   76 type  2   force =    -0.00000591    0.00000564    0.00000465
     atom   77 type  2   force =    -0.00000031    0.00000488   -0.00000189
     atom   78 type  2   force =    -0.00000285   -0.00000034    0.00000309
     atom   79 type  2   force =     0.00000197    0.00000096   -0.00000126
     atom   80 type  2   force =    -0.00000015    0.00000227    0.00000309
     atom   81 type  2   force =     0.00000095   -0.00000236   -0.00000111
     atom   82 type  2   force =     0.00000830   -0.00000024    0.00000841
     atom   83 type  2   force =     0.00000441    0.00000011   -0.00000544
     atom   84 type  2   force =     0.00000647    0.00000301    0.00000460
     atom   85 type  2   force =     0.00000045    0.00000349   -0.00000200
     atom   86 type  2   force =    -0.00000187    0.00000222    0.00000181
     atom   87 type  2   force =    -0.00000109    0.00000147    0.00000039
     atom   88 type  2   force =    -0.00000641    0.00000190    0.00000384
     atom   89 type  2   force =    -0.00000377   -0.00000241   -0.00000163
     atom   90 type  2   force =    -0.00000254    0.00000081    0.00000586
     atom   91 type  2   force =    -0.00000125   -0.00000086   -0.00000289
     atom   92 type  2   force =     0.00000250   -0.00000049    0.00000593
     atom   93 type  2   force =     0.00000052    0.00000041   -0.00000344
     atom   94 type  2   force =     0.00000175   -0.00000501    0.00000392
     atom   95 type  2   force =    -0.00000204   -0.00000089   -0.00000181

     Total force =     0.004755     Total SCF correction =     0.000069


     Computing stress (Cartesian axis) and pressure



     -----------------------------------------------
     Non-local corr. energy    =      45.78351674 Ry
     -----------------------------------------------

          total   stress  (Ry/bohr**3)                   (kbar)     P=        0.88
   0.00000443   0.00000000  -0.00000000            0.65        0.00       -0.00
   0.00000000   0.00000443   0.00000000            0.00        0.65        0.00
  -0.00000000   0.00000000   0.00000903           -0.00        0.00        1.33

     kinetic stress (kbar)  14785.28      0.00     -0.00
                                0.00  14785.28      0.00
                               -0.00      0.00  14796.47

     local   stress (kbar)  -7489.35     -0.03      0.05
                               -0.03  -7489.37     -0.06
                                0.05     -0.06   1096.51

     nonloc. stress (kbar)   -989.92      0.00     -0.00
                                0.00   -989.92      0.00
                               -0.00      0.00   -995.17

     hartree stress (kbar)  11973.00      0.01     -0.02
                                0.01  11973.00      0.02
                               -0.02      0.02   8104.46

     exc-cor stress (kbar)   6898.77      0.00     -0.00
                                0.00   6898.77      0.00
                               -0.00      0.00   6897.72

     corecor stress (kbar) -11226.63     -0.00      0.00
                               -0.00 -11226.63     -0.00
                                0.00     -0.00 -11226.62

     ewald   stress (kbar) -14033.34      0.02     -0.03
                                0.02 -14033.32      0.04
                               -0.03      0.04 -18756.17

     hubbard stress (kbar)      0.00      0.00      0.00
                                0.00      0.00      0.00
                                0.00      0.00      0.00

     DFT-D   stress (kbar)      0.00      0.00      0.00
                                0.00      0.00      0.00
                                0.00      0.00      0.00

     XDM     stress (kbar)      0.00      0.00      0.00
                                0.00      0.00      0.00
                                0.00      0.00      0.00

     dft-nl  stress (kbar)     82.85     -0.00      0.00
                               -0.00     82.85     -0.00
                                0.00     -0.00     84.12

     TS-vdW  stress (kbar)      0.00      0.00      0.00
                                0.00      0.00      0.00
                                0.00      0.00      0.00

     MDB     stress (kbar)      0.00      0.00      0.00
                                0.00      0.00      0.00
                                0.00      0.00      0.00

     3D-RISM stress (kbar)      0.00      0.00      0.00
                                0.00      0.00      0.00
                                0.00      0.00      0.00

     Energy error            =      5.8E-05 Ry
     Gradient error          =      9.5E-04 Ry/Bohr

     bfgs converged in  14 scf cycles and  13 bfgs steps
     (criteria: energy <  1.0E-04 Ry, force <  1.0E-03 Ry/Bohr)

     End of BFGS Geometry Optimization

     Final energy             =  -63859.6904605161 Ry

     File ./PbI2.bfgs deleted, as requested
Begin final coordinates

ATOMIC_POSITIONS (angstrom)
Pb            2.3556355369        4.0797813258        7.3776817924
Pb            0.0689107143        8.0405530986       14.7552575419
Pb            0.0009119222        8.1583198014        7.3775748980
Pb           -2.3555692500       12.2398436139       14.7551794863
Pb           -2.3555688107       12.2398449465        7.3774459514
Pb           -4.7800988117       16.4392734366       14.7552480652
Pb           -4.7121037366       16.3214444171        7.3775235440
Pb            6.9292221250        4.0797157596       14.7554365162
Pb            7.0652746432        4.0797731042        7.3777553411
Pb            4.6424828462        8.0405290619       14.7553548831
Pb            4.7104403612        8.1583680622        7.3776812429
Pb            2.3557299848       12.2222409822       14.7773906286
Pb            2.3556990158       12.2376540643        7.3755591502
Pb           -0.0151549728       16.3287266755       14.7774244696
Pb           -0.0018062396       16.3210411488        7.3756123997
Pb           11.7783145242        4.0797068365       14.7554968362
Pb           11.7782990490        4.0797318820        7.3777840727
Pb            9.4074176392        8.1509794729       14.7333019150
Pb            9.4206906816        8.1587156130        7.3796863105
Pb            7.0669984142       12.2398601158       14.7553744758
Pb            7.0669412655       12.2398765458        7.3776117257
Pb            4.7266299089       16.3287190927       14.7775236875
Pb            4.7132734977       16.3210587413        7.3756636730
Pb           16.6272493725        4.0797154115       14.7554586771
Pb           16.4912391874        4.0797403744        7.3777594679
Pb           14.1491582551        8.1509697461       14.7332655274
Pb           14.1358311411        8.1586754174        7.3796439970
Pb           11.7782643937       12.2574343212       14.7331866447
Pb           11.7782084767       12.2420679207        7.3795352736
Pb            9.4914815634       16.4392193613       14.7553637892
Pb            9.4233956534       16.3214542151        7.3776375708
I             2.3555720983        1.3623986300        5.4863863461
I             2.3555675458        1.3294704841       12.9082999924
I             0.0022595799        5.4384612814        5.4864075336
I            -0.0260515079        5.4547090821       12.9083578776
I            -2.3540133554        9.5200895658        5.4943242780
I            -2.3673791806        9.5272225680       12.8806946949
I            -4.7102486058       13.6012206152        5.4943103651
I            -4.7107094529       13.5859209600       12.8806582398
I             7.0671768721        1.3596742802        5.4949939122
I             7.0605171509        1.3634634670       12.8601657283
I             4.7090540315        5.4385345889        5.4864874111
I             4.7374718755        5.4548304957       12.9083000367
I             2.3556959759        9.5201291239        5.4949028720
I             2.3556649431        9.5124258737       12.8601045655
I             0.0000448988       13.5999548122        5.4951327454
I            -0.0015938464       13.5989803366       12.8686588811
I            11.7782847084        1.3598388974        5.4953160834
I            11.7783047606        1.3617129790       12.8688549225
I             9.4220785243        5.4383196720        5.4945751732
I             9.4350898927        5.4463251261       12.8809182765
I             7.0653795456        9.5201532264        5.4944596996
I             7.0788035623        9.5273539828       12.8808121364
I             4.7113852851       13.5999769638        5.4952118776
I             4.7130430394       13.5990143748       12.8687549936
I            16.4892914071        1.3596741456        5.4949915352
I            16.4959950446        1.3635253727       12.8602996561
I            14.1344538911        5.4382807326        5.4945205622
I            14.1216057027        5.4462819698       12.8809140542
I            11.7782202416        9.5198437387        5.4960003228
I            11.7782680276        9.5198493855       12.8744180078
I             9.4215224977       13.6012528614        5.4943908413
I             9.4220285834       13.5859954283       12.8807699674
I            -0.0261087270        2.7044700467        1.8471261641
I             0.0023382631        2.7210552057        9.2689384856
I            -2.3490230743        6.7961069080        1.8950998267
I            -2.3557247330        6.8000013855        9.2603534068
I            -4.7094527860       10.8808926951        1.8864315469
I            -4.7111269148       10.8799844221        9.2599057827
I            -7.0668426482       14.9674365678        1.8949834613
I            -7.0668412243       14.9597652964        9.2602178538
I             4.7372989261        2.7045274571        1.8469698026
I             4.7089959594        2.7210047758        9.2688188614
I             2.3556047396        6.8299950069        1.8471234537
I             2.3556019128        6.7972759730        9.2688623590
I            -0.0004894493       10.8938357381        1.8743483506
I            -0.0009907629       10.8787048703        9.2607039483
I            -2.3437085518       14.9524005313        1.8743343905
I            -2.3571887715       14.9596875619        9.2606684775
I             9.4350673862        2.7131336919        1.8745637652
I             9.4220409775        2.7212042272        9.2608753358
I             7.0605270872        6.7961719874        1.8951952011
I             7.0671514318        6.8000213850        9.2603459892
I             4.7118594346       10.8938992347        1.8744886182
I             4.7122913043       10.8787400294        9.2608255285
I             2.3557200382       14.9599087310        1.8807930736
I             2.3556900913       14.9599460685        9.2592403920
I            14.1216293117        2.7131792526        1.8745918198
I            14.1344791242        2.7212252115        9.2609515164
I            11.7783253362        6.7979181241        1.8866240296
I            11.7782769332        6.7998351621        9.2600979920
I             9.4209472001       10.8809239130        1.8865285326
I             9.4225452759       10.8800043309        9.2600049581
I             7.0551769997       14.9525008885        1.8745025831
I             7.0685406740       14.9597227832        9.2608680319
End final coordinates



     Writing all to output data dir ./PbI2.save/
 
     init_run     :     13.89s CPU     14.52s WALL (       1 calls)
     electrons    :  51374.55s CPU  52216.96s WALL (      14 calls)
     update_pot   :     23.72s CPU     24.42s WALL (      13 calls)
     forces       :    101.83s CPU    106.01s WALL (      14 calls)
     stress       :   1524.38s CPU   1541.09s WALL (      14 calls)

     Called by init_run:
     wfcinit      :      9.54s CPU      9.82s WALL (       1 calls)
     wfcinit:atom :      0.03s CPU      0.06s WALL (       1 calls)
     wfcinit:wfcr :      9.42s CPU      9.61s WALL (       1 calls)
     potinit      :      1.53s CPU      1.66s WALL (       1 calls)
     hinit0       :      0.50s CPU      0.52s WALL (       1 calls)

     Called by electrons:
     c_bands      :  50199.68s CPU  50971.51s WALL (     236 calls)
     sum_band     :    771.69s CPU    807.31s WALL (     236 calls)
     v_of_rho     :    181.67s CPU    186.99s WALL (     239 calls)
     v_h          :      2.13s CPU      2.36s WALL (     239 calls)
     v_xc         :    199.76s CPU    205.65s WALL (     267 calls)
     newd         :     73.21s CPU     99.23s WALL (     239 calls)
     PAW_pot      :     70.74s CPU     72.15s WALL (     252 calls)
     mix_rho      :      8.21s CPU      8.70s WALL (     236 calls)
     vdW_kernel   :      0.25s CPU      0.26s WALL (       1 calls)

     Called by c_bands:
     init_us_2    :     35.11s CPU     35.69s WALL (     486 calls)
     init_us_2:cp :     35.10s CPU     35.69s WALL (     486 calls)
     cegterg      :  50146.43s CPU  50912.88s WALL (     236 calls)

     Called by sum_band:
     sum_band:wei :      0.21s CPU      0.22s WALL (     236 calls)
     sum_band:loo :    681.45s CPU    686.77s WALL (     236 calls)
     sum_band:buf :      0.00s CPU      0.00s WALL (     236 calls)
     sum_band:ini :     17.14s CPU     17.38s WALL (     236 calls)
     sum_band:cal :    299.77s CPU    301.99s WALL (     249 calls)
     sum_band:bec :      4.06s CPU      4.14s WALL (     249 calls)
     addusdens    :     76.85s CPU    106.43s WALL (     236 calls)
     addusd:skk   :      7.17s CPU      7.36s WALL (     472 calls)
     addusd:dgemm :     40.78s CPU     69.55s WALL (     472 calls)
     addusd:qvan2 :     27.29s CPU     27.56s WALL (     472 calls)

     Called by *egterg:
     cdiaghg      :  42084.73s CPU  42492.72s WALL (    4457 calls)
     cegterg:over :   1633.35s CPU   1679.29s WALL (    4245 calls)
     cegterg:upda :   1015.06s CPU   1032.81s WALL (    4245 calls)
     cegterg:last :    388.46s CPU    391.22s WALL (     238 calls)
     h_psi        :   3775.97s CPU   3825.69s WALL (    4482 calls)
     s_psi        :    807.07s CPU    813.40s WALL (    4482 calls)
     g_psi        :      3.88s CPU      3.94s WALL (    4245 calls)

     Called by h_psi:
     h_psi:calbec :    897.25s CPU    904.57s WALL (    4482 calls)
     vloc_psi     :   2055.90s CPU   2073.85s WALL (    4482 calls)
     add_vuspsi   :    804.62s CPU    813.42s WALL (    4482 calls)

     General routines
     calbec       :   1280.80s CPU   1291.00s WALL (    4801 calls)
     fft          :    136.60s CPU    138.25s WALL (   17419 calls)
     ffts         :      3.97s CPU      4.04s WALL (     475 calls)
     fftw         :   2300.21s CPU   2319.17s WALL ( 1393992 calls)
     interpolate  :      4.43s CPU      4.50s WALL (     239 calls)
 
     Parallel routines

     PAW routines
     PAW_pot      :     70.74s CPU     72.15s WALL (     252 calls)
 
     PWSCF        :     14h44m CPU     14h59m WALL

 
   This run was terminated on:   7: 6:47  11Feb2024            

=------------------------------------------------------------------------------=
   JOB DONE.
=------------------------------------------------------------------------------=
