
     Program PWSCF v.7.1 starts on  1Oct2023 at  7:18:14 

     This program is part of the open-source Quantum ESPRESSO suite
     for quantum simulation of materials; please cite
         "P. Giannozzi et al., J. Phys.:Condens. Matter 21 395502 (2009);
         "P. Giannozzi et al., J. Phys.:Condens. Matter 29 465901 (2017);
         "P. Giannozzi et al., J. Chem. Phys. 152 154105 (2020);
          URL http://www.quantum-espresso.org", 
     in publications or presentations arising from this work. More details at
     http://www.quantum-espresso.org/quote

     Parallel version (MPI & OpenMP), running on     256 processor cores
     Number of MPI processes:               256
     Threads/MPI process:                     1

     MPI processes distributed on     2 nodes
     1947826 MiB available memory on the printing compute node when the environment starts
 
     Reading input from espresso.pwi
Warning: card &CELL ignored
Warning: card    CELL_DYNAMICS    = 'BFGS' ignored
Warning: card / ignored

     Current dimensions of program PWSCF are:
     Max number of different atomic species (ntypx) = 10
     Max number of k-points (npk) =  40000
     Max angular momentum in pseudopotentials (lmaxx) =  4
     file C.pbe-n-kjpaw_psl.1.0.0.UPF: wavefunction(s)  2S 2P renormalized

     **************************************************************************
     Initializing libbeef V0.1.2 with the BEEF-vdW functional.
     Citation: Wellendorff et al., PRB 85, 235149 (2012).
     **************************************************************************


     IMPORTANT: XC functional enforced from input :
     Exchange-correlation= BEEF-VDW
                           (   1   4  43  14   2   0   0)
     Any further DFT definition will be discarded
     Please, verify this is what you really want

 
     R & G space division:  proc/nbgrp/npool/nimage =     256
     WARNING: too many processors for an effective parallelization!
     wavefunctions fft division:  task group distribution
                                  #TG    x Z-proc =       8     32
     Subspace diagonalization in iterative solution of the eigenvalue problem:
     a serial algorithm will be used

 
     Parallelization info
     --------------------
     sticks:   dense  smooth     PW     G-vecs:    dense   smooth      PW
     Min          79      63     15                 8501     6083     751
     Max          80      64     16                 8510     6094     766
     Sum       20305   16237   4049              2177001  1558403  194543
 
     Using Pencil Decomposition
 


     bravais-lattice index     =            1
     lattice parameter (alat)  =      27.0027  a.u.
     unit-cell volume          =   19688.9026 (a.u.)^3
     number of atoms/cell      =          511
     number of atomic types    =            1
     number of electrons       =      2044.00
     number of Kohn-Sham states=         1226
     kinetic-energy cutoff     =      70.0000  Ry
     charge density cutoff     =     350.0000  Ry
     scf convergence threshold =      1.0E-08
     mixing beta               =       0.7000
     number of iterations used =            8  plain     mixing
     Exchange-correlation= BEEF-VDW
                           (   1   4  43  14   2   0   0)

     celldm(1)=  27.002699  celldm(2)=   0.000000  celldm(3)=   0.000000
     celldm(4)=   0.000000  celldm(5)=   0.000000  celldm(6)=   0.000000

     crystal axes: (cart. coord. in units of alat)
               a(1) = (   1.000000   0.000000   0.000000 )  
               a(2) = (   0.000000   1.000000   0.000000 )  
               a(3) = (   0.000000   0.000000   1.000000 )  

     reciprocal axes: (cart. coord. in units 2 pi/alat)
               b(1) = (  1.000000  0.000000  0.000000 )  
               b(2) = (  0.000000  1.000000  0.000000 )  
               b(3) = (  0.000000  0.000000  1.000000 )  


     PseudoPot. # 1 for C  read from file:
     /trace/group/acmegroup/atimmins/packages/espresso/pseudo/psl_1.0.0/pslibrary.1.0.0/pbe/PSEUDOPOTENTIALS/C.pbe-n-kjpaw_psl.1.0.0.UPF
     MD5 check sum: 5459cf7f2c8c37df2f7cde8914797f4d
     Pseudo is Projector augmented-wave + core cor, Zval =  4.0
     Generated using 'atomic' code by A. Dal Corso  v.7.1
     Shape of augmentation charge: PSQ
     Using radial grid of 1073 points,  4 beta functions with: 
                l(1) =   0
                l(2) =   0
                l(3) =   1
                l(4) =   1
     Q(r) pseudized with 0 coefficients 


     atomic species   valence    mass     pseudopotential
        C              4.00    12.01100     C ( 1.00)

      6 Sym. Ops. (no inversion) found ( 4 have fractional translation)


                                    s                        frac. trans.

      isym =  1     identity                                     

 cryst.   s( 1) = (     1          0          0      )
                  (     0          1          0      )
                  (     0          0          1      )

 cart.    s( 1) = (  1.0000000  0.0000000  0.0000000 )
                  (  0.0000000  1.0000000  0.0000000 )
                  (  0.0000000  0.0000000  1.0000000 )


      isym =  2     120 deg rotation - cart. axis [1,-1,1]       

 cryst.   s( 2) = (     0          0          1      )    f =( -0.2500000 )
                  (    -1          0          0      )       ( -0.2500000 )
                  (     0         -1          0      )       (  0.0000000 )

 cart.    s( 2) = (  0.0000000 -1.0000000  0.0000000 )    f =( -0.2500000 )
                  (  0.0000000  0.0000000 -1.0000000 )       ( -0.2500000 )
                  (  1.0000000  0.0000000  0.0000000 )       (  0.0000000 )


      isym =  3     120 deg rotation - cart. axis [-1,1,-1]      

 cryst.   s( 3) = (     0         -1          0      )    f =(  0.0000000 )
                  (     0          0         -1      )       ( -0.2500000 )
                  (     1          0          0      )       ( -0.2500000 )

 cart.    s( 3) = (  0.0000000  0.0000000  1.0000000 )    f =(  0.0000000 )
                  ( -1.0000000  0.0000000  0.0000000 )       ( -0.2500000 )
                  (  0.0000000 -1.0000000  0.0000000 )       ( -0.2500000 )


      isym =  4     inv. 180 deg rotation - cart. axis [1,1,0]   

 cryst.   s( 4) = (     0         -1          0      )    f =( -0.2500000 )
                  (    -1          0          0      )       ( -0.2500000 )
                  (     0          0          1      )       (  0.0000000 )

 cart.    s( 4) = (  0.0000000 -1.0000000  0.0000000 )    f =( -0.2500000 )
                  ( -1.0000000  0.0000000  0.0000000 )       ( -0.2500000 )
                  (  0.0000000  0.0000000  1.0000000 )       (  0.0000000 )


      isym =  5     inv. 180 deg rotation - cart. axis [-1,0,1]  

 cryst.   s( 5) = (     0          0          1      )
                  (     0          1          0      )
                  (     1          0          0      )

 cart.    s( 5) = (  0.0000000  0.0000000  1.0000000 )
                  (  0.0000000  1.0000000  0.0000000 )
                  (  1.0000000  0.0000000  0.0000000 )


      isym =  6     inv. 180 deg rotation - cart. axis [0,1,1]   

 cryst.   s( 6) = (     1          0          0      )    f =(  0.0000000 )
                  (     0          0         -1      )       ( -0.2500000 )
                  (     0         -1          0      )       ( -0.2500000 )

 cart.    s( 6) = (  1.0000000  0.0000000  0.0000000 )    f =(  0.0000000 )
                  (  0.0000000  0.0000000 -1.0000000 )       ( -0.2500000 )
                  (  0.0000000 -1.0000000  0.0000000 )       ( -0.2500000 )


     point group C_3v (3m)  
     there are  3 classes
     the character table:

       E     2C3   3s_v 
A_1    1.00  1.00  1.00
A_2    1.00  1.00 -1.00
E      2.00 -1.00  0.00

     the symmetry operations in each class and the name of the first element:

     E        1
          identity                                               
     2C3      2    3
          120 deg rotation - cart. axis [1,-1,1]                 
     3s_v     4    5    6
          inv. 180 deg rotation - cart. axis [1,1,0]             

   Cartesian axes

     site n.     atom                  positions (alat units)
         1           C   tau(   1) = (   0.0625015   0.1874985   0.3125015  )
         2           C   tau(   2) = (   0.0625015   0.1874985   0.5625015  )
         3           C   tau(   3) = (   0.0625015   0.1874985   0.8125015  )
         4           C   tau(   4) = (   0.0625015   0.4374985   0.0625015  )
         5           C   tau(   5) = (   0.0625015   0.4374985   0.3125015  )
         6           C   tau(   6) = (   0.0625015   0.4374985   0.5625015  )
         7           C   tau(   7) = (   0.0625015   0.4374985   0.8125015  )
         8           C   tau(   8) = (   0.0625015   0.6874985   0.0625015  )
         9           C   tau(   9) = (   0.0625015   0.6874985   0.3125015  )
        10           C   tau(  10) = (   0.0625015   0.6874985   0.5625015  )
        11           C   tau(  11) = (   0.0625015   0.6874985   0.8125015  )
        12           C   tau(  12) = (   0.0625015   0.9374985   0.0625015  )
        13           C   tau(  13) = (   0.0625015   0.9374985   0.3125015  )
        14           C   tau(  14) = (   0.0625015   0.9374985   0.5625015  )
        15           C   tau(  15) = (   0.0625015   0.9374985   0.8125015  )
        16           C   tau(  16) = (   0.3125015   0.1874985   0.0625015  )
        17           C   tau(  17) = (   0.3125015   0.1874985   0.3125015  )
        18           C   tau(  18) = (   0.3125015   0.1874985   0.5625015  )
        19           C   tau(  19) = (   0.3125015   0.1874985   0.8125015  )
        20           C   tau(  20) = (   0.3125015   0.4374985   0.0625015  )
        21           C   tau(  21) = (   0.3125015   0.4374985   0.3125015  )
        22           C   tau(  22) = (   0.3125015   0.4374985   0.5625015  )
        23           C   tau(  23) = (   0.3125015   0.4374985   0.8125015  )
        24           C   tau(  24) = (   0.3125015   0.6874985   0.0625015  )
        25           C   tau(  25) = (   0.3125015   0.6874985   0.3125015  )
        26           C   tau(  26) = (   0.3125015   0.6874985   0.5625015  )
        27           C   tau(  27) = (   0.3125015   0.6874985   0.8125015  )
        28           C   tau(  28) = (   0.3125015   0.9374985   0.0625015  )
        29           C   tau(  29) = (   0.3125015   0.9374985   0.3125015  )
        30           C   tau(  30) = (   0.3125015   0.9374985   0.5625015  )
        31           C   tau(  31) = (   0.3125015   0.9374985   0.8125015  )
        32           C   tau(  32) = (   0.5625015   0.1874985   0.0625015  )
        33           C   tau(  33) = (   0.5625015   0.1874985   0.3125015  )
        34           C   tau(  34) = (   0.5625015   0.1874985   0.5625015  )
        35           C   tau(  35) = (   0.5625015   0.1874985   0.8125015  )
        36           C   tau(  36) = (   0.5625015   0.4374985   0.0625015  )
        37           C   tau(  37) = (   0.5625015   0.4374985   0.3125015  )
        38           C   tau(  38) = (   0.5625015   0.4374985   0.5625015  )
        39           C   tau(  39) = (   0.5625015   0.4374985   0.8125015  )
        40           C   tau(  40) = (   0.5625015   0.6874985   0.0625015  )
        41           C   tau(  41) = (   0.5625015   0.6874985   0.3125015  )
        42           C   tau(  42) = (   0.5625015   0.6874985   0.5625015  )
        43           C   tau(  43) = (   0.5625015   0.6874985   0.8125015  )
        44           C   tau(  44) = (   0.5625015   0.9374985   0.0625015  )
        45           C   tau(  45) = (   0.5625015   0.9374985   0.3125015  )
        46           C   tau(  46) = (   0.5625015   0.9374985   0.5625015  )
        47           C   tau(  47) = (   0.5625015   0.9374985   0.8125015  )
        48           C   tau(  48) = (   0.8125015   0.1874985   0.0625015  )
        49           C   tau(  49) = (   0.8125015   0.1874985   0.3125015  )
        50           C   tau(  50) = (   0.8125015   0.1874985   0.5625015  )
        51           C   tau(  51) = (   0.8125015   0.1874985   0.8125015  )
        52           C   tau(  52) = (   0.8125015   0.4374985   0.0625015  )
        53           C   tau(  53) = (   0.8125015   0.4374985   0.3125015  )
        54           C   tau(  54) = (   0.8125015   0.4374985   0.5625015  )
        55           C   tau(  55) = (   0.8125015   0.4374985   0.8125015  )
        56           C   tau(  56) = (   0.8125015   0.6874985   0.0625015  )
        57           C   tau(  57) = (   0.8125015   0.6874985   0.3125015  )
        58           C   tau(  58) = (   0.8125015   0.6874985   0.5625015  )
        59           C   tau(  59) = (   0.8125015   0.6874985   0.8125015  )
        60           C   tau(  60) = (   0.8125015   0.9374985   0.0625015  )
        61           C   tau(  61) = (   0.8125015   0.9374985   0.3125015  )
        62           C   tau(  62) = (   0.8125015   0.9374985   0.5625015  )
        63           C   tau(  63) = (   0.8125015   0.9374985   0.8125015  )
        64           C   tau(  64) = (   0.0000000   0.0000000   0.1250000  )
        65           C   tau(  65) = (   0.0000000   0.0000000   0.3750000  )
        66           C   tau(  66) = (   0.0000000   0.0000000   0.6250000  )
        67           C   tau(  67) = (   0.0000000   0.0000000   0.8750000  )
        68           C   tau(  68) = (   0.0000000   0.2500000   0.1250000  )
        69           C   tau(  69) = (   0.0000000   0.2500000   0.3750000  )
        70           C   tau(  70) = (   0.0000000   0.2500000   0.6250000  )
        71           C   tau(  71) = (   0.0000000   0.2500000   0.8750000  )
        72           C   tau(  72) = (   0.0000000   0.5000000   0.1250000  )
        73           C   tau(  73) = (   0.0000000   0.5000000   0.3750000  )
        74           C   tau(  74) = (   0.0000000   0.5000000   0.6250000  )
        75           C   tau(  75) = (   0.0000000   0.5000000   0.8750000  )
        76           C   tau(  76) = (   0.0000000   0.7500000   0.1250000  )
        77           C   tau(  77) = (   0.0000000   0.7500000   0.3750000  )
        78           C   tau(  78) = (   0.0000000   0.7500000   0.6250000  )
        79           C   tau(  79) = (   0.0000000   0.7500000   0.8750000  )
        80           C   tau(  80) = (   0.2500000   0.0000000   0.1250000  )
        81           C   tau(  81) = (   0.2500000   0.0000000   0.3750000  )
        82           C   tau(  82) = (   0.2500000   0.0000000   0.6250000  )
        83           C   tau(  83) = (   0.2500000   0.0000000   0.8750000  )
        84           C   tau(  84) = (   0.2500000   0.2500000   0.1250000  )
        85           C   tau(  85) = (   0.2500000   0.2500000   0.3750000  )
        86           C   tau(  86) = (   0.2500000   0.2500000   0.6250000  )
        87           C   tau(  87) = (   0.2500000   0.2500000   0.8750000  )
        88           C   tau(  88) = (   0.2500000   0.5000000   0.1250000  )
        89           C   tau(  89) = (   0.2500000   0.5000000   0.3750000  )
        90           C   tau(  90) = (   0.2500000   0.5000000   0.6250000  )
        91           C   tau(  91) = (   0.2500000   0.5000000   0.8750000  )
        92           C   tau(  92) = (   0.2500000   0.7500000   0.1250000  )
        93           C   tau(  93) = (   0.2500000   0.7500000   0.3750000  )
        94           C   tau(  94) = (   0.2500000   0.7500000   0.6250000  )
        95           C   tau(  95) = (   0.2500000   0.7500000   0.8750000  )
        96           C   tau(  96) = (   0.5000000   0.0000000   0.1250000  )
        97           C   tau(  97) = (   0.5000000   0.0000000   0.3750000  )
        98           C   tau(  98) = (   0.5000000   0.0000000   0.6250000  )
        99           C   tau(  99) = (   0.5000000   0.0000000   0.8750000  )
       100           C   tau( 100) = (   0.5000000   0.2500000   0.1250000  )
       101           C   tau( 101) = (   0.5000000   0.2500000   0.3750000  )
       102           C   tau( 102) = (   0.5000000   0.2500000   0.6250000  )
       103           C   tau( 103) = (   0.5000000   0.2500000   0.8750000  )
       104           C   tau( 104) = (   0.5000000   0.5000000   0.1250000  )
       105           C   tau( 105) = (   0.5000000   0.5000000   0.3750000  )
       106           C   tau( 106) = (   0.5000000   0.5000000   0.6250000  )
       107           C   tau( 107) = (   0.5000000   0.5000000   0.8750000  )
       108           C   tau( 108) = (   0.5000000   0.7500000   0.1250000  )
       109           C   tau( 109) = (   0.5000000   0.7500000   0.3750000  )
       110           C   tau( 110) = (   0.5000000   0.7500000   0.6250000  )
       111           C   tau( 111) = (   0.5000000   0.7500000   0.8750000  )
       112           C   tau( 112) = (   0.7500000   0.0000000   0.1250000  )
       113           C   tau( 113) = (   0.7500000   0.0000000   0.3750000  )
       114           C   tau( 114) = (   0.7500000   0.0000000   0.6250000  )
       115           C   tau( 115) = (   0.7500000   0.0000000   0.8750000  )
       116           C   tau( 116) = (   0.7500000   0.2500000   0.1250000  )
       117           C   tau( 117) = (   0.7500000   0.2500000   0.3750000  )
       118           C   tau( 118) = (   0.7500000   0.2500000   0.6250000  )
       119           C   tau( 119) = (   0.7500000   0.2500000   0.8750000  )
       120           C   tau( 120) = (   0.7500000   0.5000000   0.1250000  )
       121           C   tau( 121) = (   0.7500000   0.5000000   0.3750000  )
       122           C   tau( 122) = (   0.7500000   0.5000000   0.6250000  )
       123           C   tau( 123) = (   0.7500000   0.5000000   0.8750000  )
       124           C   tau( 124) = (   0.7500000   0.7500000   0.1250000  )
       125           C   tau( 125) = (   0.7500000   0.7500000   0.3750000  )
       126           C   tau( 126) = (   0.7500000   0.7500000   0.6250000  )
       127           C   tau( 127) = (   0.7500000   0.7500000   0.8750000  )
       128           C   tau( 128) = (   0.0625015   0.0625015   0.1874985  )
       129           C   tau( 129) = (   0.0625015   0.0625015   0.4374985  )
       130           C   tau( 130) = (   0.0625015   0.0625015   0.6874985  )
       131           C   tau( 131) = (   0.0625015   0.0625015   0.9374985  )
       132           C   tau( 132) = (   0.0625015   0.3125015   0.1874985  )
       133           C   tau( 133) = (   0.0625015   0.3125015   0.4374985  )
       134           C   tau( 134) = (   0.0625015   0.3125015   0.6874985  )
       135           C   tau( 135) = (   0.0625015   0.3125015   0.9374985  )
       136           C   tau( 136) = (   0.0625015   0.5625015   0.1874985  )
       137           C   tau( 137) = (   0.0625015   0.5625015   0.4374985  )
       138           C   tau( 138) = (   0.0625015   0.5625015   0.6874985  )
       139           C   tau( 139) = (   0.0625015   0.5625015   0.9374985  )
       140           C   tau( 140) = (   0.0625015   0.8125015   0.1874985  )
       141           C   tau( 141) = (   0.0625015   0.8125015   0.4374985  )
       142           C   tau( 142) = (   0.0625015   0.8125015   0.6874985  )
       143           C   tau( 143) = (   0.0625015   0.8125015   0.9374985  )
       144           C   tau( 144) = (   0.3125015   0.0625015   0.1874985  )
       145           C   tau( 145) = (   0.3125015   0.0625015   0.4374985  )
       146           C   tau( 146) = (   0.3125015   0.0625015   0.6874985  )
       147           C   tau( 147) = (   0.3125015   0.0625015   0.9374985  )
       148           C   tau( 148) = (   0.3125015   0.3125015   0.1874985  )
       149           C   tau( 149) = (   0.3125015   0.3125015   0.4374985  )
       150           C   tau( 150) = (   0.3125015   0.3125015   0.6874985  )
       151           C   tau( 151) = (   0.3125015   0.3125015   0.9374985  )
       152           C   tau( 152) = (   0.3125015   0.5625015   0.1874985  )
       153           C   tau( 153) = (   0.3125015   0.5625015   0.4374985  )
       154           C   tau( 154) = (   0.3125015   0.5625015   0.6874985  )
       155           C   tau( 155) = (   0.3125015   0.5625015   0.9374985  )
       156           C   tau( 156) = (   0.3125015   0.8125015   0.1874985  )
       157           C   tau( 157) = (   0.3125015   0.8125015   0.4374985  )
       158           C   tau( 158) = (   0.3125015   0.8125015   0.6874985  )
       159           C   tau( 159) = (   0.3125015   0.8125015   0.9374985  )
       160           C   tau( 160) = (   0.5625015   0.0625015   0.1874985  )
       161           C   tau( 161) = (   0.5625015   0.0625015   0.4374985  )
       162           C   tau( 162) = (   0.5625015   0.0625015   0.6874985  )
       163           C   tau( 163) = (   0.5625015   0.0625015   0.9374985  )
       164           C   tau( 164) = (   0.5625015   0.3125015   0.1874985  )
       165           C   tau( 165) = (   0.5625015   0.3125015   0.4374985  )
       166           C   tau( 166) = (   0.5625015   0.3125015   0.6874985  )
       167           C   tau( 167) = (   0.5625015   0.3125015   0.9374985  )
       168           C   tau( 168) = (   0.5625015   0.5625015   0.1874985  )
       169           C   tau( 169) = (   0.5625015   0.5625015   0.4374985  )
       170           C   tau( 170) = (   0.5625015   0.5625015   0.6874985  )
       171           C   tau( 171) = (   0.5625015   0.5625015   0.9374985  )
       172           C   tau( 172) = (   0.5625015   0.8125015   0.1874985  )
       173           C   tau( 173) = (   0.5625015   0.8125015   0.4374985  )
       174           C   tau( 174) = (   0.5625015   0.8125015   0.6874985  )
       175           C   tau( 175) = (   0.5625015   0.8125015   0.9374985  )
       176           C   tau( 176) = (   0.8125015   0.0625015   0.1874985  )
       177           C   tau( 177) = (   0.8125015   0.0625015   0.4374985  )
       178           C   tau( 178) = (   0.8125015   0.0625015   0.6874985  )
       179           C   tau( 179) = (   0.8125015   0.0625015   0.9374985  )
       180           C   tau( 180) = (   0.8125015   0.3125015   0.1874985  )
       181           C   tau( 181) = (   0.8125015   0.3125015   0.4374985  )
       182           C   tau( 182) = (   0.8125015   0.3125015   0.6874985  )
       183           C   tau( 183) = (   0.8125015   0.3125015   0.9374985  )
       184           C   tau( 184) = (   0.8125015   0.5625015   0.1874985  )
       185           C   tau( 185) = (   0.8125015   0.5625015   0.4374985  )
       186           C   tau( 186) = (   0.8125015   0.5625015   0.6874985  )
       187           C   tau( 187) = (   0.8125015   0.5625015   0.9374985  )
       188           C   tau( 188) = (   0.8125015   0.8125015   0.1874985  )
       189           C   tau( 189) = (   0.8125015   0.8125015   0.4374985  )
       190           C   tau( 190) = (   0.8125015   0.8125015   0.6874985  )
       191           C   tau( 191) = (   0.8125015   0.8125015   0.9374985  )
       192           C   tau( 192) = (   0.0000000   0.1250000   0.0000000  )
       193           C   tau( 193) = (   0.0000000   0.1250000   0.2500000  )
       194           C   tau( 194) = (   0.0000000   0.1250000   0.5000000  )
       195           C   tau( 195) = (   0.0000000   0.1250000   0.7500000  )
       196           C   tau( 196) = (   0.0000000   0.3750000   0.0000000  )
       197           C   tau( 197) = (   0.0000000   0.3750000   0.2500000  )
       198           C   tau( 198) = (   0.0000000   0.3750000   0.5000000  )
       199           C   tau( 199) = (   0.0000000   0.3750000   0.7500000  )
       200           C   tau( 200) = (   0.0000000   0.6250000   0.0000000  )
       201           C   tau( 201) = (   0.0000000   0.6250000   0.2500000  )
       202           C   tau( 202) = (   0.0000000   0.6250000   0.5000000  )
       203           C   tau( 203) = (   0.0000000   0.6250000   0.7500000  )
       204           C   tau( 204) = (   0.0000000   0.8750000   0.0000000  )
       205           C   tau( 205) = (   0.0000000   0.8750000   0.2500000  )
       206           C   tau( 206) = (   0.0000000   0.8750000   0.5000000  )
       207           C   tau( 207) = (   0.0000000   0.8750000   0.7500000  )
       208           C   tau( 208) = (   0.2500000   0.1250000   0.0000000  )
       209           C   tau( 209) = (   0.2500000   0.1250000   0.2500000  )
       210           C   tau( 210) = (   0.2500000   0.1250000   0.5000000  )
       211           C   tau( 211) = (   0.2500000   0.1250000   0.7500000  )
       212           C   tau( 212) = (   0.2500000   0.3750000   0.0000000  )
       213           C   tau( 213) = (   0.2500000   0.3750000   0.2500000  )
       214           C   tau( 214) = (   0.2500000   0.3750000   0.5000000  )
       215           C   tau( 215) = (   0.2500000   0.3750000   0.7500000  )
       216           C   tau( 216) = (   0.2500000   0.6250000   0.0000000  )
       217           C   tau( 217) = (   0.2500000   0.6250000   0.2500000  )
       218           C   tau( 218) = (   0.2500000   0.6250000   0.5000000  )
       219           C   tau( 219) = (   0.2500000   0.6250000   0.7500000  )
       220           C   tau( 220) = (   0.2500000   0.8750000   0.0000000  )
       221           C   tau( 221) = (   0.2500000   0.8750000   0.2500000  )
       222           C   tau( 222) = (   0.2500000   0.8750000   0.5000000  )
       223           C   tau( 223) = (   0.2500000   0.8750000   0.7500000  )
       224           C   tau( 224) = (   0.5000000   0.1250000   0.0000000  )
       225           C   tau( 225) = (   0.5000000   0.1250000   0.2500000  )
       226           C   tau( 226) = (   0.5000000   0.1250000   0.5000000  )
       227           C   tau( 227) = (   0.5000000   0.1250000   0.7500000  )
       228           C   tau( 228) = (   0.5000000   0.3750000   0.0000000  )
       229           C   tau( 229) = (   0.5000000   0.3750000   0.2500000  )
       230           C   tau( 230) = (   0.5000000   0.3750000   0.5000000  )
       231           C   tau( 231) = (   0.5000000   0.3750000   0.7500000  )
       232           C   tau( 232) = (   0.5000000   0.6250000   0.0000000  )
       233           C   tau( 233) = (   0.5000000   0.6250000   0.2500000  )
       234           C   tau( 234) = (   0.5000000   0.6250000   0.5000000  )
       235           C   tau( 235) = (   0.5000000   0.6250000   0.7500000  )
       236           C   tau( 236) = (   0.5000000   0.8750000   0.0000000  )
       237           C   tau( 237) = (   0.5000000   0.8750000   0.2500000  )
       238           C   tau( 238) = (   0.5000000   0.8750000   0.5000000  )
       239           C   tau( 239) = (   0.5000000   0.8750000   0.7500000  )
       240           C   tau( 240) = (   0.7500000   0.1250000   0.0000000  )
       241           C   tau( 241) = (   0.7500000   0.1250000   0.2500000  )
       242           C   tau( 242) = (   0.7500000   0.1250000   0.5000000  )
       243           C   tau( 243) = (   0.7500000   0.1250000   0.7500000  )
       244           C   tau( 244) = (   0.7500000   0.3750000   0.0000000  )
       245           C   tau( 245) = (   0.7500000   0.3750000   0.2500000  )
       246           C   tau( 246) = (   0.7500000   0.3750000   0.5000000  )
       247           C   tau( 247) = (   0.7500000   0.3750000   0.7500000  )
       248           C   tau( 248) = (   0.7500000   0.6250000   0.0000000  )
       249           C   tau( 249) = (   0.7500000   0.6250000   0.2500000  )
       250           C   tau( 250) = (   0.7500000   0.6250000   0.5000000  )
       251           C   tau( 251) = (   0.7500000   0.6250000   0.7500000  )
       252           C   tau( 252) = (   0.7500000   0.8750000   0.0000000  )
       253           C   tau( 253) = (   0.7500000   0.8750000   0.2500000  )
       254           C   tau( 254) = (   0.7500000   0.8750000   0.5000000  )
       255           C   tau( 255) = (   0.7500000   0.8750000   0.7500000  )
       256           C   tau( 256) = (   0.1874985   0.1874985   0.1874985  )
       257           C   tau( 257) = (   0.1874985   0.1874985   0.4374985  )
       258           C   tau( 258) = (   0.1874985   0.1874985   0.6874985  )
       259           C   tau( 259) = (   0.1874985   0.1874985   0.9374985  )
       260           C   tau( 260) = (   0.1874985   0.4374985   0.1874985  )
       261           C   tau( 261) = (   0.1874985   0.4374985   0.4374985  )
       262           C   tau( 262) = (   0.1874985   0.4374985   0.6874985  )
       263           C   tau( 263) = (   0.1874985   0.4374985   0.9374985  )
       264           C   tau( 264) = (   0.1874985   0.6874985   0.1874985  )
       265           C   tau( 265) = (   0.1874985   0.6874985   0.4374985  )
       266           C   tau( 266) = (   0.1874985   0.6874985   0.6874985  )
       267           C   tau( 267) = (   0.1874985   0.6874985   0.9374985  )
       268           C   tau( 268) = (   0.1874985   0.9374985   0.1874985  )
       269           C   tau( 269) = (   0.1874985   0.9374985   0.4374985  )
       270           C   tau( 270) = (   0.1874985   0.9374985   0.6874985  )
       271           C   tau( 271) = (   0.1874985   0.9374985   0.9374985  )
       272           C   tau( 272) = (   0.4374985   0.1874985   0.1874985  )
       273           C   tau( 273) = (   0.4374985   0.1874985   0.4374985  )
       274           C   tau( 274) = (   0.4374985   0.1874985   0.6874985  )
       275           C   tau( 275) = (   0.4374985   0.1874985   0.9374985  )
       276           C   tau( 276) = (   0.4374985   0.4374985   0.1874985  )
       277           C   tau( 277) = (   0.4374985   0.4374985   0.4374985  )
       278           C   tau( 278) = (   0.4374985   0.4374985   0.6874985  )
       279           C   tau( 279) = (   0.4374985   0.4374985   0.9374985  )
       280           C   tau( 280) = (   0.4374985   0.6874985   0.1874985  )
       281           C   tau( 281) = (   0.4374985   0.6874985   0.4374985  )
       282           C   tau( 282) = (   0.4374985   0.6874985   0.6874985  )
       283           C   tau( 283) = (   0.4374985   0.6874985   0.9374985  )
       284           C   tau( 284) = (   0.4374985   0.9374985   0.1874985  )
       285           C   tau( 285) = (   0.4374985   0.9374985   0.4374985  )
       286           C   tau( 286) = (   0.4374985   0.9374985   0.6874985  )
       287           C   tau( 287) = (   0.4374985   0.9374985   0.9374985  )
       288           C   tau( 288) = (   0.6874985   0.1874985   0.1874985  )
       289           C   tau( 289) = (   0.6874985   0.1874985   0.4374985  )
       290           C   tau( 290) = (   0.6874985   0.1874985   0.6874985  )
       291           C   tau( 291) = (   0.6874985   0.1874985   0.9374985  )
       292           C   tau( 292) = (   0.6874985   0.4374985   0.1874985  )
       293           C   tau( 293) = (   0.6874985   0.4374985   0.4374985  )
       294           C   tau( 294) = (   0.6874985   0.4374985   0.6874985  )
       295           C   tau( 295) = (   0.6874985   0.4374985   0.9374985  )
       296           C   tau( 296) = (   0.6874985   0.6874985   0.1874985  )
       297           C   tau( 297) = (   0.6874985   0.6874985   0.4374985  )
       298           C   tau( 298) = (   0.6874985   0.6874985   0.6874985  )
       299           C   tau( 299) = (   0.6874985   0.6874985   0.9374985  )
       300           C   tau( 300) = (   0.6874985   0.9374985   0.1874985  )
       301           C   tau( 301) = (   0.6874985   0.9374985   0.4374985  )
       302           C   tau( 302) = (   0.6874985   0.9374985   0.6874985  )
       303           C   tau( 303) = (   0.6874985   0.9374985   0.9374985  )
       304           C   tau( 304) = (   0.9374985   0.1874985   0.1874985  )
       305           C   tau( 305) = (   0.9374985   0.1874985   0.4374985  )
       306           C   tau( 306) = (   0.9374985   0.1874985   0.6874985  )
       307           C   tau( 307) = (   0.9374985   0.1874985   0.9374985  )
       308           C   tau( 308) = (   0.9374985   0.4374985   0.1874985  )
       309           C   tau( 309) = (   0.9374985   0.4374985   0.4374985  )
       310           C   tau( 310) = (   0.9374985   0.4374985   0.6874985  )
       311           C   tau( 311) = (   0.9374985   0.4374985   0.9374985  )
       312           C   tau( 312) = (   0.9374985   0.6874985   0.1874985  )
       313           C   tau( 313) = (   0.9374985   0.6874985   0.4374985  )
       314           C   tau( 314) = (   0.9374985   0.6874985   0.6874985  )
       315           C   tau( 315) = (   0.9374985   0.6874985   0.9374985  )
       316           C   tau( 316) = (   0.9374985   0.9374985   0.1874985  )
       317           C   tau( 317) = (   0.9374985   0.9374985   0.4374985  )
       318           C   tau( 318) = (   0.9374985   0.9374985   0.6874985  )
       319           C   tau( 319) = (   0.9374985   0.9374985   0.9374985  )
       320           C   tau( 320) = (   0.1250000   0.0000000   0.0000000  )
       321           C   tau( 321) = (   0.1250000   0.0000000   0.2500000  )
       322           C   tau( 322) = (   0.1250000   0.0000000   0.5000000  )
       323           C   tau( 323) = (   0.1250000   0.0000000   0.7500000  )
       324           C   tau( 324) = (   0.1250000   0.2500000   0.0000000  )
       325           C   tau( 325) = (   0.1250000   0.2500000   0.2500000  )
       326           C   tau( 326) = (   0.1250000   0.2500000   0.5000000  )
       327           C   tau( 327) = (   0.1250000   0.2500000   0.7500000  )
       328           C   tau( 328) = (   0.1250000   0.5000000   0.0000000  )
       329           C   tau( 329) = (   0.1250000   0.5000000   0.2500000  )
       330           C   tau( 330) = (   0.1250000   0.5000000   0.5000000  )
       331           C   tau( 331) = (   0.1250000   0.5000000   0.7500000  )
       332           C   tau( 332) = (   0.1250000   0.7500000   0.0000000  )
       333           C   tau( 333) = (   0.1250000   0.7500000   0.2500000  )
       334           C   tau( 334) = (   0.1250000   0.7500000   0.5000000  )
       335           C   tau( 335) = (   0.1250000   0.7500000   0.7500000  )
       336           C   tau( 336) = (   0.3750000   0.0000000   0.0000000  )
       337           C   tau( 337) = (   0.3750000   0.0000000   0.2500000  )
       338           C   tau( 338) = (   0.3750000   0.0000000   0.5000000  )
       339           C   tau( 339) = (   0.3750000   0.0000000   0.7500000  )
       340           C   tau( 340) = (   0.3750000   0.2500000   0.0000000  )
       341           C   tau( 341) = (   0.3750000   0.2500000   0.2500000  )
       342           C   tau( 342) = (   0.3750000   0.2500000   0.5000000  )
       343           C   tau( 343) = (   0.3750000   0.2500000   0.7500000  )
       344           C   tau( 344) = (   0.3750000   0.5000000   0.0000000  )
       345           C   tau( 345) = (   0.3750000   0.5000000   0.2500000  )
       346           C   tau( 346) = (   0.3750000   0.5000000   0.5000000  )
       347           C   tau( 347) = (   0.3750000   0.5000000   0.7500000  )
       348           C   tau( 348) = (   0.3750000   0.7500000   0.0000000  )
       349           C   tau( 349) = (   0.3750000   0.7500000   0.2500000  )
       350           C   tau( 350) = (   0.3750000   0.7500000   0.5000000  )
       351           C   tau( 351) = (   0.3750000   0.7500000   0.7500000  )
       352           C   tau( 352) = (   0.6250000   0.0000000   0.0000000  )
       353           C   tau( 353) = (   0.6250000   0.0000000   0.2500000  )
       354           C   tau( 354) = (   0.6250000   0.0000000   0.5000000  )
       355           C   tau( 355) = (   0.6250000   0.0000000   0.7500000  )
       356           C   tau( 356) = (   0.6250000   0.2500000   0.0000000  )
       357           C   tau( 357) = (   0.6250000   0.2500000   0.2500000  )
       358           C   tau( 358) = (   0.6250000   0.2500000   0.5000000  )
       359           C   tau( 359) = (   0.6250000   0.2500000   0.7500000  )
       360           C   tau( 360) = (   0.6250000   0.5000000   0.0000000  )
       361           C   tau( 361) = (   0.6250000   0.5000000   0.2500000  )
       362           C   tau( 362) = (   0.6250000   0.5000000   0.5000000  )
       363           C   tau( 363) = (   0.6250000   0.5000000   0.7500000  )
       364           C   tau( 364) = (   0.6250000   0.7500000   0.0000000  )
       365           C   tau( 365) = (   0.6250000   0.7500000   0.2500000  )
       366           C   tau( 366) = (   0.6250000   0.7500000   0.5000000  )
       367           C   tau( 367) = (   0.6250000   0.7500000   0.7500000  )
       368           C   tau( 368) = (   0.8750000   0.0000000   0.0000000  )
       369           C   tau( 369) = (   0.8750000   0.0000000   0.2500000  )
       370           C   tau( 370) = (   0.8750000   0.0000000   0.5000000  )
       371           C   tau( 371) = (   0.8750000   0.0000000   0.7500000  )
       372           C   tau( 372) = (   0.8750000   0.2500000   0.0000000  )
       373           C   tau( 373) = (   0.8750000   0.2500000   0.2500000  )
       374           C   tau( 374) = (   0.8750000   0.2500000   0.5000000  )
       375           C   tau( 375) = (   0.8750000   0.2500000   0.7500000  )
       376           C   tau( 376) = (   0.8750000   0.5000000   0.0000000  )
       377           C   tau( 377) = (   0.8750000   0.5000000   0.2500000  )
       378           C   tau( 378) = (   0.8750000   0.5000000   0.5000000  )
       379           C   tau( 379) = (   0.8750000   0.5000000   0.7500000  )
       380           C   tau( 380) = (   0.8750000   0.7500000   0.0000000  )
       381           C   tau( 381) = (   0.8750000   0.7500000   0.2500000  )
       382           C   tau( 382) = (   0.8750000   0.7500000   0.5000000  )
       383           C   tau( 383) = (   0.8750000   0.7500000   0.7500000  )
       384           C   tau( 384) = (   0.1874985   0.0625015   0.0625015  )
       385           C   tau( 385) = (   0.1874985   0.0625015   0.3125015  )
       386           C   tau( 386) = (   0.1874985   0.0625015   0.5625015  )
       387           C   tau( 387) = (   0.1874985   0.0625015   0.8125015  )
       388           C   tau( 388) = (   0.1874985   0.3125015   0.0625015  )
       389           C   tau( 389) = (   0.1874985   0.3125015   0.3125015  )
       390           C   tau( 390) = (   0.1874985   0.3125015   0.5625015  )
       391           C   tau( 391) = (   0.1874985   0.3125015   0.8125015  )
       392           C   tau( 392) = (   0.1874985   0.5625015   0.0625015  )
       393           C   tau( 393) = (   0.1874985   0.5625015   0.3125015  )
       394           C   tau( 394) = (   0.1874985   0.5625015   0.5625015  )
       395           C   tau( 395) = (   0.1874985   0.5625015   0.8125015  )
       396           C   tau( 396) = (   0.1874985   0.8125015   0.0625015  )
       397           C   tau( 397) = (   0.1874985   0.8125015   0.3125015  )
       398           C   tau( 398) = (   0.1874985   0.8125015   0.5625015  )
       399           C   tau( 399) = (   0.1874985   0.8125015   0.8125015  )
       400           C   tau( 400) = (   0.4374985   0.0625015   0.0625015  )
       401           C   tau( 401) = (   0.4374985   0.0625015   0.3125015  )
       402           C   tau( 402) = (   0.4374985   0.0625015   0.5625015  )
       403           C   tau( 403) = (   0.4374985   0.0625015   0.8125015  )
       404           C   tau( 404) = (   0.4374985   0.3125015   0.0625015  )
       405           C   tau( 405) = (   0.4374985   0.3125015   0.3125015  )
       406           C   tau( 406) = (   0.4374985   0.3125015   0.5625015  )
       407           C   tau( 407) = (   0.4374985   0.3125015   0.8125015  )
       408           C   tau( 408) = (   0.4374985   0.5625015   0.0625015  )
       409           C   tau( 409) = (   0.4374985   0.5625015   0.3125015  )
       410           C   tau( 410) = (   0.4374985   0.5625015   0.5625015  )
       411           C   tau( 411) = (   0.4374985   0.5625015   0.8125015  )
       412           C   tau( 412) = (   0.4374985   0.8125015   0.0625015  )
       413           C   tau( 413) = (   0.4374985   0.8125015   0.3125015  )
       414           C   tau( 414) = (   0.4374985   0.8125015   0.5625015  )
       415           C   tau( 415) = (   0.4374985   0.8125015   0.8125015  )
       416           C   tau( 416) = (   0.6874985   0.0625015   0.0625015  )
       417           C   tau( 417) = (   0.6874985   0.0625015   0.3125015  )
       418           C   tau( 418) = (   0.6874985   0.0625015   0.5625015  )
       419           C   tau( 419) = (   0.6874985   0.0625015   0.8125015  )
       420           C   tau( 420) = (   0.6874985   0.3125015   0.0625015  )
       421           C   tau( 421) = (   0.6874985   0.3125015   0.3125015  )
       422           C   tau( 422) = (   0.6874985   0.3125015   0.5625015  )
       423           C   tau( 423) = (   0.6874985   0.3125015   0.8125015  )
       424           C   tau( 424) = (   0.6874985   0.5625015   0.0625015  )
       425           C   tau( 425) = (   0.6874985   0.5625015   0.3125015  )
       426           C   tau( 426) = (   0.6874985   0.5625015   0.5625015  )
       427           C   tau( 427) = (   0.6874985   0.5625015   0.8125015  )
       428           C   tau( 428) = (   0.6874985   0.8125015   0.0625015  )
       429           C   tau( 429) = (   0.6874985   0.8125015   0.3125015  )
       430           C   tau( 430) = (   0.6874985   0.8125015   0.5625015  )
       431           C   tau( 431) = (   0.6874985   0.8125015   0.8125015  )
       432           C   tau( 432) = (   0.9374985   0.0625015   0.0625015  )
       433           C   tau( 433) = (   0.9374985   0.0625015   0.3125015  )
       434           C   tau( 434) = (   0.9374985   0.0625015   0.5625015  )
       435           C   tau( 435) = (   0.9374985   0.0625015   0.8125015  )
       436           C   tau( 436) = (   0.9374985   0.3125015   0.0625015  )
       437           C   tau( 437) = (   0.9374985   0.3125015   0.3125015  )
       438           C   tau( 438) = (   0.9374985   0.3125015   0.5625015  )
       439           C   tau( 439) = (   0.9374985   0.3125015   0.8125015  )
       440           C   tau( 440) = (   0.9374985   0.5625015   0.0625015  )
       441           C   tau( 441) = (   0.9374985   0.5625015   0.3125015  )
       442           C   tau( 442) = (   0.9374985   0.5625015   0.5625015  )
       443           C   tau( 443) = (   0.9374985   0.5625015   0.8125015  )
       444           C   tau( 444) = (   0.9374985   0.8125015   0.0625015  )
       445           C   tau( 445) = (   0.9374985   0.8125015   0.3125015  )
       446           C   tau( 446) = (   0.9374985   0.8125015   0.5625015  )
       447           C   tau( 447) = (   0.9374985   0.8125015   0.8125015  )
       448           C   tau( 448) = (   0.1250000   0.1250000   0.1250000  )
       449           C   tau( 449) = (   0.1250000   0.1250000   0.3750000  )
       450           C   tau( 450) = (   0.1250000   0.1250000   0.6250000  )
       451           C   tau( 451) = (   0.1250000   0.1250000   0.8750000  )
       452           C   tau( 452) = (   0.1250000   0.3750000   0.1250000  )
       453           C   tau( 453) = (   0.1250000   0.3750000   0.3750000  )
       454           C   tau( 454) = (   0.1250000   0.3750000   0.6250000  )
       455           C   tau( 455) = (   0.1250000   0.3750000   0.8750000  )
       456           C   tau( 456) = (   0.1250000   0.6250000   0.1250000  )
       457           C   tau( 457) = (   0.1250000   0.6250000   0.3750000  )
       458           C   tau( 458) = (   0.1250000   0.6250000   0.6250000  )
       459           C   tau( 459) = (   0.1250000   0.6250000   0.8750000  )
       460           C   tau( 460) = (   0.1250000   0.8750000   0.1250000  )
       461           C   tau( 461) = (   0.1250000   0.8750000   0.3750000  )
       462           C   tau( 462) = (   0.1250000   0.8750000   0.6250000  )
       463           C   tau( 463) = (   0.1250000   0.8750000   0.8750000  )
       464           C   tau( 464) = (   0.3750000   0.1250000   0.1250000  )
       465           C   tau( 465) = (   0.3750000   0.1250000   0.3750000  )
       466           C   tau( 466) = (   0.3750000   0.1250000   0.6250000  )
       467           C   tau( 467) = (   0.3750000   0.1250000   0.8750000  )
       468           C   tau( 468) = (   0.3750000   0.3750000   0.1250000  )
       469           C   tau( 469) = (   0.3750000   0.3750000   0.3750000  )
       470           C   tau( 470) = (   0.3750000   0.3750000   0.6250000  )
       471           C   tau( 471) = (   0.3750000   0.3750000   0.8750000  )
       472           C   tau( 472) = (   0.3750000   0.6250000   0.1250000  )
       473           C   tau( 473) = (   0.3750000   0.6250000   0.3750000  )
       474           C   tau( 474) = (   0.3750000   0.6250000   0.6250000  )
       475           C   tau( 475) = (   0.3750000   0.6250000   0.8750000  )
       476           C   tau( 476) = (   0.3750000   0.8750000   0.1250000  )
       477           C   tau( 477) = (   0.3750000   0.8750000   0.3750000  )
       478           C   tau( 478) = (   0.3750000   0.8750000   0.6250000  )
       479           C   tau( 479) = (   0.3750000   0.8750000   0.8750000  )
       480           C   tau( 480) = (   0.6250000   0.1250000   0.1250000  )
       481           C   tau( 481) = (   0.6250000   0.1250000   0.3750000  )
       482           C   tau( 482) = (   0.6250000   0.1250000   0.6250000  )
       483           C   tau( 483) = (   0.6250000   0.1250000   0.8750000  )
       484           C   tau( 484) = (   0.6250000   0.3750000   0.1250000  )
       485           C   tau( 485) = (   0.6250000   0.3750000   0.3750000  )
       486           C   tau( 486) = (   0.6250000   0.3750000   0.6250000  )
       487           C   tau( 487) = (   0.6250000   0.3750000   0.8750000  )
       488           C   tau( 488) = (   0.6250000   0.6250000   0.1250000  )
       489           C   tau( 489) = (   0.6250000   0.6250000   0.3750000  )
       490           C   tau( 490) = (   0.6250000   0.6250000   0.6250000  )
       491           C   tau( 491) = (   0.6250000   0.6250000   0.8750000  )
       492           C   tau( 492) = (   0.6250000   0.8750000   0.1250000  )
       493           C   tau( 493) = (   0.6250000   0.8750000   0.3750000  )
       494           C   tau( 494) = (   0.6250000   0.8750000   0.6250000  )
       495           C   tau( 495) = (   0.6250000   0.8750000   0.8750000  )
       496           C   tau( 496) = (   0.8750000   0.1250000   0.1250000  )
       497           C   tau( 497) = (   0.8750000   0.1250000   0.3750000  )
       498           C   tau( 498) = (   0.8750000   0.1250000   0.6250000  )
       499           C   tau( 499) = (   0.8750000   0.1250000   0.8750000  )
       500           C   tau( 500) = (   0.8750000   0.3750000   0.1250000  )
       501           C   tau( 501) = (   0.8750000   0.3750000   0.3750000  )
       502           C   tau( 502) = (   0.8750000   0.3750000   0.6250000  )
       503           C   tau( 503) = (   0.8750000   0.3750000   0.8750000  )
       504           C   tau( 504) = (   0.8750000   0.6250000   0.1250000  )
       505           C   tau( 505) = (   0.8750000   0.6250000   0.3750000  )
       506           C   tau( 506) = (   0.8750000   0.6250000   0.6250000  )
       507           C   tau( 507) = (   0.8750000   0.6250000   0.8750000  )
       508           C   tau( 508) = (   0.8750000   0.8750000   0.1250000  )
       509           C   tau( 509) = (   0.8750000   0.8750000   0.3750000  )
       510           C   tau( 510) = (   0.8750000   0.8750000   0.6250000  )
       511           C   tau( 511) = (   0.8750000   0.8750000   0.8750000  )

   Crystallographic axes

     site n.     atom                  positions (cryst. coord.)
         1           C   tau(   1) = (  0.0625015  0.1874985  0.3125015  )
         2           C   tau(   2) = (  0.0625015  0.1874985  0.5625015  )
         3           C   tau(   3) = (  0.0625015  0.1874985  0.8125015  )
         4           C   tau(   4) = (  0.0625015  0.4374985  0.0625015  )
         5           C   tau(   5) = (  0.0625015  0.4374985  0.3125015  )
         6           C   tau(   6) = (  0.0625015  0.4374985  0.5625015  )
         7           C   tau(   7) = (  0.0625015  0.4374985  0.8125015  )
         8           C   tau(   8) = (  0.0625015  0.6874985  0.0625015  )
         9           C   tau(   9) = (  0.0625015  0.6874985  0.3125015  )
        10           C   tau(  10) = (  0.0625015  0.6874985  0.5625015  )
        11           C   tau(  11) = (  0.0625015  0.6874985  0.8125015  )
        12           C   tau(  12) = (  0.0625015  0.9374985  0.0625015  )
        13           C   tau(  13) = (  0.0625015  0.9374985  0.3125015  )
        14           C   tau(  14) = (  0.0625015  0.9374985  0.5625015  )
        15           C   tau(  15) = (  0.0625015  0.9374985  0.8125015  )
        16           C   tau(  16) = (  0.3125015  0.1874985  0.0625015  )
        17           C   tau(  17) = (  0.3125015  0.1874985  0.3125015  )
        18           C   tau(  18) = (  0.3125015  0.1874985  0.5625015  )
        19           C   tau(  19) = (  0.3125015  0.1874985  0.8125015  )
        20           C   tau(  20) = (  0.3125015  0.4374985  0.0625015  )
        21           C   tau(  21) = (  0.3125015  0.4374985  0.3125015  )
        22           C   tau(  22) = (  0.3125015  0.4374985  0.5625015  )
        23           C   tau(  23) = (  0.3125015  0.4374985  0.8125015  )
        24           C   tau(  24) = (  0.3125015  0.6874985  0.0625015  )
        25           C   tau(  25) = (  0.3125015  0.6874985  0.3125015  )
        26           C   tau(  26) = (  0.3125015  0.6874985  0.5625015  )
        27           C   tau(  27) = (  0.3125015  0.6874985  0.8125015  )
        28           C   tau(  28) = (  0.3125015  0.9374985  0.0625015  )
        29           C   tau(  29) = (  0.3125015  0.9374985  0.3125015  )
        30           C   tau(  30) = (  0.3125015  0.9374985  0.5625015  )
        31           C   tau(  31) = (  0.3125015  0.9374985  0.8125015  )
        32           C   tau(  32) = (  0.5625015  0.1874985  0.0625015  )
        33           C   tau(  33) = (  0.5625015  0.1874985  0.3125015  )
        34           C   tau(  34) = (  0.5625015  0.1874985  0.5625015  )
        35           C   tau(  35) = (  0.5625015  0.1874985  0.8125015  )
        36           C   tau(  36) = (  0.5625015  0.4374985  0.0625015  )
        37           C   tau(  37) = (  0.5625015  0.4374985  0.3125015  )
        38           C   tau(  38) = (  0.5625015  0.4374985  0.5625015  )
        39           C   tau(  39) = (  0.5625015  0.4374985  0.8125015  )
        40           C   tau(  40) = (  0.5625015  0.6874985  0.0625015  )
        41           C   tau(  41) = (  0.5625015  0.6874985  0.3125015  )
        42           C   tau(  42) = (  0.5625015  0.6874985  0.5625015  )
        43           C   tau(  43) = (  0.5625015  0.6874985  0.8125015  )
        44           C   tau(  44) = (  0.5625015  0.9374985  0.0625015  )
        45           C   tau(  45) = (  0.5625015  0.9374985  0.3125015  )
        46           C   tau(  46) = (  0.5625015  0.9374985  0.5625015  )
        47           C   tau(  47) = (  0.5625015  0.9374985  0.8125015  )
        48           C   tau(  48) = (  0.8125015  0.1874985  0.0625015  )
        49           C   tau(  49) = (  0.8125015  0.1874985  0.3125015  )
        50           C   tau(  50) = (  0.8125015  0.1874985  0.5625015  )
        51           C   tau(  51) = (  0.8125015  0.1874985  0.8125015  )
        52           C   tau(  52) = (  0.8125015  0.4374985  0.0625015  )
        53           C   tau(  53) = (  0.8125015  0.4374985  0.3125015  )
        54           C   tau(  54) = (  0.8125015  0.4374985  0.5625015  )
        55           C   tau(  55) = (  0.8125015  0.4374985  0.8125015  )
        56           C   tau(  56) = (  0.8125015  0.6874985  0.0625015  )
        57           C   tau(  57) = (  0.8125015  0.6874985  0.3125015  )
        58           C   tau(  58) = (  0.8125015  0.6874985  0.5625015  )
        59           C   tau(  59) = (  0.8125015  0.6874985  0.8125015  )
        60           C   tau(  60) = (  0.8125015  0.9374985  0.0625015  )
        61           C   tau(  61) = (  0.8125015  0.9374985  0.3125015  )
        62           C   tau(  62) = (  0.8125015  0.9374985  0.5625015  )
        63           C   tau(  63) = (  0.8125015  0.9374985  0.8125015  )
        64           C   tau(  64) = (  0.0000000  0.0000000  0.1250000  )
        65           C   tau(  65) = (  0.0000000  0.0000000  0.3750000  )
        66           C   tau(  66) = (  0.0000000  0.0000000  0.6250000  )
        67           C   tau(  67) = (  0.0000000  0.0000000  0.8750000  )
        68           C   tau(  68) = (  0.0000000  0.2500000  0.1250000  )
        69           C   tau(  69) = (  0.0000000  0.2500000  0.3750000  )
        70           C   tau(  70) = (  0.0000000  0.2500000  0.6250000  )
        71           C   tau(  71) = (  0.0000000  0.2500000  0.8750000  )
        72           C   tau(  72) = (  0.0000000  0.5000000  0.1250000  )
        73           C   tau(  73) = (  0.0000000  0.5000000  0.3750000  )
        74           C   tau(  74) = (  0.0000000  0.5000000  0.6250000  )
        75           C   tau(  75) = (  0.0000000  0.5000000  0.8750000  )
        76           C   tau(  76) = (  0.0000000  0.7500000  0.1250000  )
        77           C   tau(  77) = (  0.0000000  0.7500000  0.3750000  )
        78           C   tau(  78) = (  0.0000000  0.7500000  0.6250000  )
        79           C   tau(  79) = (  0.0000000  0.7500000  0.8750000  )
        80           C   tau(  80) = (  0.2500000  0.0000000  0.1250000  )
        81           C   tau(  81) = (  0.2500000  0.0000000  0.3750000  )
        82           C   tau(  82) = (  0.2500000  0.0000000  0.6250000  )
        83           C   tau(  83) = (  0.2500000  0.0000000  0.8750000  )
        84           C   tau(  84) = (  0.2500000  0.2500000  0.1250000  )
        85           C   tau(  85) = (  0.2500000  0.2500000  0.3750000  )
        86           C   tau(  86) = (  0.2500000  0.2500000  0.6250000  )
        87           C   tau(  87) = (  0.2500000  0.2500000  0.8750000  )
        88           C   tau(  88) = (  0.2500000  0.5000000  0.1250000  )
        89           C   tau(  89) = (  0.2500000  0.5000000  0.3750000  )
        90           C   tau(  90) = (  0.2500000  0.5000000  0.6250000  )
        91           C   tau(  91) = (  0.2500000  0.5000000  0.8750000  )
        92           C   tau(  92) = (  0.2500000  0.7500000  0.1250000  )
        93           C   tau(  93) = (  0.2500000  0.7500000  0.3750000  )
        94           C   tau(  94) = (  0.2500000  0.7500000  0.6250000  )
        95           C   tau(  95) = (  0.2500000  0.7500000  0.8750000  )
        96           C   tau(  96) = (  0.5000000  0.0000000  0.1250000  )
        97           C   tau(  97) = (  0.5000000  0.0000000  0.3750000  )
        98           C   tau(  98) = (  0.5000000  0.0000000  0.6250000  )
        99           C   tau(  99) = (  0.5000000  0.0000000  0.8750000  )
       100           C   tau( 100) = (  0.5000000  0.2500000  0.1250000  )
       101           C   tau( 101) = (  0.5000000  0.2500000  0.3750000  )
       102           C   tau( 102) = (  0.5000000  0.2500000  0.6250000  )
       103           C   tau( 103) = (  0.5000000  0.2500000  0.8750000  )
       104           C   tau( 104) = (  0.5000000  0.5000000  0.1250000  )
       105           C   tau( 105) = (  0.5000000  0.5000000  0.3750000  )
       106           C   tau( 106) = (  0.5000000  0.5000000  0.6250000  )
       107           C   tau( 107) = (  0.5000000  0.5000000  0.8750000  )
       108           C   tau( 108) = (  0.5000000  0.7500000  0.1250000  )
       109           C   tau( 109) = (  0.5000000  0.7500000  0.3750000  )
       110           C   tau( 110) = (  0.5000000  0.7500000  0.6250000  )
       111           C   tau( 111) = (  0.5000000  0.7500000  0.8750000  )
       112           C   tau( 112) = (  0.7500000  0.0000000  0.1250000  )
       113           C   tau( 113) = (  0.7500000  0.0000000  0.3750000  )
       114           C   tau( 114) = (  0.7500000  0.0000000  0.6250000  )
       115           C   tau( 115) = (  0.7500000  0.0000000  0.8750000  )
       116           C   tau( 116) = (  0.7500000  0.2500000  0.1250000  )
       117           C   tau( 117) = (  0.7500000  0.2500000  0.3750000  )
       118           C   tau( 118) = (  0.7500000  0.2500000  0.6250000  )
       119           C   tau( 119) = (  0.7500000  0.2500000  0.8750000  )
       120           C   tau( 120) = (  0.7500000  0.5000000  0.1250000  )
       121           C   tau( 121) = (  0.7500000  0.5000000  0.3750000  )
       122           C   tau( 122) = (  0.7500000  0.5000000  0.6250000  )
       123           C   tau( 123) = (  0.7500000  0.5000000  0.8750000  )
       124           C   tau( 124) = (  0.7500000  0.7500000  0.1250000  )
       125           C   tau( 125) = (  0.7500000  0.7500000  0.3750000  )
       126           C   tau( 126) = (  0.7500000  0.7500000  0.6250000  )
       127           C   tau( 127) = (  0.7500000  0.7500000  0.8750000  )
       128           C   tau( 128) = (  0.0625015  0.0625015  0.1874985  )
       129           C   tau( 129) = (  0.0625015  0.0625015  0.4374985  )
       130           C   tau( 130) = (  0.0625015  0.0625015  0.6874985  )
       131           C   tau( 131) = (  0.0625015  0.0625015  0.9374985  )
       132           C   tau( 132) = (  0.0625015  0.3125015  0.1874985  )
       133           C   tau( 133) = (  0.0625015  0.3125015  0.4374985  )
       134           C   tau( 134) = (  0.0625015  0.3125015  0.6874985  )
       135           C   tau( 135) = (  0.0625015  0.3125015  0.9374985  )
       136           C   tau( 136) = (  0.0625015  0.5625015  0.1874985  )
       137           C   tau( 137) = (  0.0625015  0.5625015  0.4374985  )
       138           C   tau( 138) = (  0.0625015  0.5625015  0.6874985  )
       139           C   tau( 139) = (  0.0625015  0.5625015  0.9374985  )
       140           C   tau( 140) = (  0.0625015  0.8125015  0.1874985  )
       141           C   tau( 141) = (  0.0625015  0.8125015  0.4374985  )
       142           C   tau( 142) = (  0.0625015  0.8125015  0.6874985  )
       143           C   tau( 143) = (  0.0625015  0.8125015  0.9374985  )
       144           C   tau( 144) = (  0.3125015  0.0625015  0.1874985  )
       145           C   tau( 145) = (  0.3125015  0.0625015  0.4374985  )
       146           C   tau( 146) = (  0.3125015  0.0625015  0.6874985  )
       147           C   tau( 147) = (  0.3125015  0.0625015  0.9374985  )
       148           C   tau( 148) = (  0.3125015  0.3125015  0.1874985  )
       149           C   tau( 149) = (  0.3125015  0.3125015  0.4374985  )
       150           C   tau( 150) = (  0.3125015  0.3125015  0.6874985  )
       151           C   tau( 151) = (  0.3125015  0.3125015  0.9374985  )
       152           C   tau( 152) = (  0.3125015  0.5625015  0.1874985  )
       153           C   tau( 153) = (  0.3125015  0.5625015  0.4374985  )
       154           C   tau( 154) = (  0.3125015  0.5625015  0.6874985  )
       155           C   tau( 155) = (  0.3125015  0.5625015  0.9374985  )
       156           C   tau( 156) = (  0.3125015  0.8125015  0.1874985  )
       157           C   tau( 157) = (  0.3125015  0.8125015  0.4374985  )
       158           C   tau( 158) = (  0.3125015  0.8125015  0.6874985  )
       159           C   tau( 159) = (  0.3125015  0.8125015  0.9374985  )
       160           C   tau( 160) = (  0.5625015  0.0625015  0.1874985  )
       161           C   tau( 161) = (  0.5625015  0.0625015  0.4374985  )
       162           C   tau( 162) = (  0.5625015  0.0625015  0.6874985  )
       163           C   tau( 163) = (  0.5625015  0.0625015  0.9374985  )
       164           C   tau( 164) = (  0.5625015  0.3125015  0.1874985  )
       165           C   tau( 165) = (  0.5625015  0.3125015  0.4374985  )
       166           C   tau( 166) = (  0.5625015  0.3125015  0.6874985  )
       167           C   tau( 167) = (  0.5625015  0.3125015  0.9374985  )
       168           C   tau( 168) = (  0.5625015  0.5625015  0.1874985  )
       169           C   tau( 169) = (  0.5625015  0.5625015  0.4374985  )
       170           C   tau( 170) = (  0.5625015  0.5625015  0.6874985  )
       171           C   tau( 171) = (  0.5625015  0.5625015  0.9374985  )
       172           C   tau( 172) = (  0.5625015  0.8125015  0.1874985  )
       173           C   tau( 173) = (  0.5625015  0.8125015  0.4374985  )
       174           C   tau( 174) = (  0.5625015  0.8125015  0.6874985  )
       175           C   tau( 175) = (  0.5625015  0.8125015  0.9374985  )
       176           C   tau( 176) = (  0.8125015  0.0625015  0.1874985  )
       177           C   tau( 177) = (  0.8125015  0.0625015  0.4374985  )
       178           C   tau( 178) = (  0.8125015  0.0625015  0.6874985  )
       179           C   tau( 179) = (  0.8125015  0.0625015  0.9374985  )
       180           C   tau( 180) = (  0.8125015  0.3125015  0.1874985  )
       181           C   tau( 181) = (  0.8125015  0.3125015  0.4374985  )
       182           C   tau( 182) = (  0.8125015  0.3125015  0.6874985  )
       183           C   tau( 183) = (  0.8125015  0.3125015  0.9374985  )
       184           C   tau( 184) = (  0.8125015  0.5625015  0.1874985  )
       185           C   tau( 185) = (  0.8125015  0.5625015  0.4374985  )
       186           C   tau( 186) = (  0.8125015  0.5625015  0.6874985  )
       187           C   tau( 187) = (  0.8125015  0.5625015  0.9374985  )
       188           C   tau( 188) = (  0.8125015  0.8125015  0.1874985  )
       189           C   tau( 189) = (  0.8125015  0.8125015  0.4374985  )
       190           C   tau( 190) = (  0.8125015  0.8125015  0.6874985  )
       191           C   tau( 191) = (  0.8125015  0.8125015  0.9374985  )
       192           C   tau( 192) = (  0.0000000  0.1250000  0.0000000  )
       193           C   tau( 193) = (  0.0000000  0.1250000  0.2500000  )
       194           C   tau( 194) = (  0.0000000  0.1250000  0.5000000  )
       195           C   tau( 195) = (  0.0000000  0.1250000  0.7500000  )
       196           C   tau( 196) = (  0.0000000  0.3750000  0.0000000  )
       197           C   tau( 197) = (  0.0000000  0.3750000  0.2500000  )
       198           C   tau( 198) = (  0.0000000  0.3750000  0.5000000  )
       199           C   tau( 199) = (  0.0000000  0.3750000  0.7500000  )
       200           C   tau( 200) = (  0.0000000  0.6250000  0.0000000  )
       201           C   tau( 201) = (  0.0000000  0.6250000  0.2500000  )
       202           C   tau( 202) = (  0.0000000  0.6250000  0.5000000  )
       203           C   tau( 203) = (  0.0000000  0.6250000  0.7500000  )
       204           C   tau( 204) = (  0.0000000  0.8750000  0.0000000  )
       205           C   tau( 205) = (  0.0000000  0.8750000  0.2500000  )
       206           C   tau( 206) = (  0.0000000  0.8750000  0.5000000  )
       207           C   tau( 207) = (  0.0000000  0.8750000  0.7500000  )
       208           C   tau( 208) = (  0.2500000  0.1250000  0.0000000  )
       209           C   tau( 209) = (  0.2500000  0.1250000  0.2500000  )
       210           C   tau( 210) = (  0.2500000  0.1250000  0.5000000  )
       211           C   tau( 211) = (  0.2500000  0.1250000  0.7500000  )
       212           C   tau( 212) = (  0.2500000  0.3750000  0.0000000  )
       213           C   tau( 213) = (  0.2500000  0.3750000  0.2500000  )
       214           C   tau( 214) = (  0.2500000  0.3750000  0.5000000  )
       215           C   tau( 215) = (  0.2500000  0.3750000  0.7500000  )
       216           C   tau( 216) = (  0.2500000  0.6250000  0.0000000  )
       217           C   tau( 217) = (  0.2500000  0.6250000  0.2500000  )
       218           C   tau( 218) = (  0.2500000  0.6250000  0.5000000  )
       219           C   tau( 219) = (  0.2500000  0.6250000  0.7500000  )
       220           C   tau( 220) = (  0.2500000  0.8750000  0.0000000  )
       221           C   tau( 221) = (  0.2500000  0.8750000  0.2500000  )
       222           C   tau( 222) = (  0.2500000  0.8750000  0.5000000  )
       223           C   tau( 223) = (  0.2500000  0.8750000  0.7500000  )
       224           C   tau( 224) = (  0.5000000  0.1250000  0.0000000  )
       225           C   tau( 225) = (  0.5000000  0.1250000  0.2500000  )
       226           C   tau( 226) = (  0.5000000  0.1250000  0.5000000  )
       227           C   tau( 227) = (  0.5000000  0.1250000  0.7500000  )
       228           C   tau( 228) = (  0.5000000  0.3750000  0.0000000  )
       229           C   tau( 229) = (  0.5000000  0.3750000  0.2500000  )
       230           C   tau( 230) = (  0.5000000  0.3750000  0.5000000  )
       231           C   tau( 231) = (  0.5000000  0.3750000  0.7500000  )
       232           C   tau( 232) = (  0.5000000  0.6250000  0.0000000  )
       233           C   tau( 233) = (  0.5000000  0.6250000  0.2500000  )
       234           C   tau( 234) = (  0.5000000  0.6250000  0.5000000  )
       235           C   tau( 235) = (  0.5000000  0.6250000  0.7500000  )
       236           C   tau( 236) = (  0.5000000  0.8750000  0.0000000  )
       237           C   tau( 237) = (  0.5000000  0.8750000  0.2500000  )
       238           C   tau( 238) = (  0.5000000  0.8750000  0.5000000  )
       239           C   tau( 239) = (  0.5000000  0.8750000  0.7500000  )
       240           C   tau( 240) = (  0.7500000  0.1250000  0.0000000  )
       241           C   tau( 241) = (  0.7500000  0.1250000  0.2500000  )
       242           C   tau( 242) = (  0.7500000  0.1250000  0.5000000  )
       243           C   tau( 243) = (  0.7500000  0.1250000  0.7500000  )
       244           C   tau( 244) = (  0.7500000  0.3750000  0.0000000  )
       245           C   tau( 245) = (  0.7500000  0.3750000  0.2500000  )
       246           C   tau( 246) = (  0.7500000  0.3750000  0.5000000  )
       247           C   tau( 247) = (  0.7500000  0.3750000  0.7500000  )
       248           C   tau( 248) = (  0.7500000  0.6250000  0.0000000  )
       249           C   tau( 249) = (  0.7500000  0.6250000  0.2500000  )
       250           C   tau( 250) = (  0.7500000  0.6250000  0.5000000  )
       251           C   tau( 251) = (  0.7500000  0.6250000  0.7500000  )
       252           C   tau( 252) = (  0.7500000  0.8750000  0.0000000  )
       253           C   tau( 253) = (  0.7500000  0.8750000  0.2500000  )
       254           C   tau( 254) = (  0.7500000  0.8750000  0.5000000  )
       255           C   tau( 255) = (  0.7500000  0.8750000  0.7500000  )
       256           C   tau( 256) = (  0.1874985  0.1874985  0.1874985  )
       257           C   tau( 257) = (  0.1874985  0.1874985  0.4374985  )
       258           C   tau( 258) = (  0.1874985  0.1874985  0.6874985  )
       259           C   tau( 259) = (  0.1874985  0.1874985  0.9374985  )
       260           C   tau( 260) = (  0.1874985  0.4374985  0.1874985  )
       261           C   tau( 261) = (  0.1874985  0.4374985  0.4374985  )
       262           C   tau( 262) = (  0.1874985  0.4374985  0.6874985  )
       263           C   tau( 263) = (  0.1874985  0.4374985  0.9374985  )
       264           C   tau( 264) = (  0.1874985  0.6874985  0.1874985  )
       265           C   tau( 265) = (  0.1874985  0.6874985  0.4374985  )
       266           C   tau( 266) = (  0.1874985  0.6874985  0.6874985  )
       267           C   tau( 267) = (  0.1874985  0.6874985  0.9374985  )
       268           C   tau( 268) = (  0.1874985  0.9374985  0.1874985  )
       269           C   tau( 269) = (  0.1874985  0.9374985  0.4374985  )
       270           C   tau( 270) = (  0.1874985  0.9374985  0.6874985  )
       271           C   tau( 271) = (  0.1874985  0.9374985  0.9374985  )
       272           C   tau( 272) = (  0.4374985  0.1874985  0.1874985  )
       273           C   tau( 273) = (  0.4374985  0.1874985  0.4374985  )
       274           C   tau( 274) = (  0.4374985  0.1874985  0.6874985  )
       275           C   tau( 275) = (  0.4374985  0.1874985  0.9374985  )
       276           C   tau( 276) = (  0.4374985  0.4374985  0.1874985  )
       277           C   tau( 277) = (  0.4374985  0.4374985  0.4374985  )
       278           C   tau( 278) = (  0.4374985  0.4374985  0.6874985  )
       279           C   tau( 279) = (  0.4374985  0.4374985  0.9374985  )
       280           C   tau( 280) = (  0.4374985  0.6874985  0.1874985  )
       281           C   tau( 281) = (  0.4374985  0.6874985  0.4374985  )
       282           C   tau( 282) = (  0.4374985  0.6874985  0.6874985  )
       283           C   tau( 283) = (  0.4374985  0.6874985  0.9374985  )
       284           C   tau( 284) = (  0.4374985  0.9374985  0.1874985  )
       285           C   tau( 285) = (  0.4374985  0.9374985  0.4374985  )
       286           C   tau( 286) = (  0.4374985  0.9374985  0.6874985  )
       287           C   tau( 287) = (  0.4374985  0.9374985  0.9374985  )
       288           C   tau( 288) = (  0.6874985  0.1874985  0.1874985  )
       289           C   tau( 289) = (  0.6874985  0.1874985  0.4374985  )
       290           C   tau( 290) = (  0.6874985  0.1874985  0.6874985  )
       291           C   tau( 291) = (  0.6874985  0.1874985  0.9374985  )
       292           C   tau( 292) = (  0.6874985  0.4374985  0.1874985  )
       293           C   tau( 293) = (  0.6874985  0.4374985  0.4374985  )
       294           C   tau( 294) = (  0.6874985  0.4374985  0.6874985  )
       295           C   tau( 295) = (  0.6874985  0.4374985  0.9374985  )
       296           C   tau( 296) = (  0.6874985  0.6874985  0.1874985  )
       297           C   tau( 297) = (  0.6874985  0.6874985  0.4374985  )
       298           C   tau( 298) = (  0.6874985  0.6874985  0.6874985  )
       299           C   tau( 299) = (  0.6874985  0.6874985  0.9374985  )
       300           C   tau( 300) = (  0.6874985  0.9374985  0.1874985  )
       301           C   tau( 301) = (  0.6874985  0.9374985  0.4374985  )
       302           C   tau( 302) = (  0.6874985  0.9374985  0.6874985  )
       303           C   tau( 303) = (  0.6874985  0.9374985  0.9374985  )
       304           C   tau( 304) = (  0.9374985  0.1874985  0.1874985  )
       305           C   tau( 305) = (  0.9374985  0.1874985  0.4374985  )
       306           C   tau( 306) = (  0.9374985  0.1874985  0.6874985  )
       307           C   tau( 307) = (  0.9374985  0.1874985  0.9374985  )
       308           C   tau( 308) = (  0.9374985  0.4374985  0.1874985  )
       309           C   tau( 309) = (  0.9374985  0.4374985  0.4374985  )
       310           C   tau( 310) = (  0.9374985  0.4374985  0.6874985  )
       311           C   tau( 311) = (  0.9374985  0.4374985  0.9374985  )
       312           C   tau( 312) = (  0.9374985  0.6874985  0.1874985  )
       313           C   tau( 313) = (  0.9374985  0.6874985  0.4374985  )
       314           C   tau( 314) = (  0.9374985  0.6874985  0.6874985  )
       315           C   tau( 315) = (  0.9374985  0.6874985  0.9374985  )
       316           C   tau( 316) = (  0.9374985  0.9374985  0.1874985  )
       317           C   tau( 317) = (  0.9374985  0.9374985  0.4374985  )
       318           C   tau( 318) = (  0.9374985  0.9374985  0.6874985  )
       319           C   tau( 319) = (  0.9374985  0.9374985  0.9374985  )
       320           C   tau( 320) = (  0.1250000  0.0000000  0.0000000  )
       321           C   tau( 321) = (  0.1250000  0.0000000  0.2500000  )
       322           C   tau( 322) = (  0.1250000  0.0000000  0.5000000  )
       323           C   tau( 323) = (  0.1250000  0.0000000  0.7500000  )
       324           C   tau( 324) = (  0.1250000  0.2500000  0.0000000  )
       325           C   tau( 325) = (  0.1250000  0.2500000  0.2500000  )
       326           C   tau( 326) = (  0.1250000  0.2500000  0.5000000  )
       327           C   tau( 327) = (  0.1250000  0.2500000  0.7500000  )
       328           C   tau( 328) = (  0.1250000  0.5000000  0.0000000  )
       329           C   tau( 329) = (  0.1250000  0.5000000  0.2500000  )
       330           C   tau( 330) = (  0.1250000  0.5000000  0.5000000  )
       331           C   tau( 331) = (  0.1250000  0.5000000  0.7500000  )
       332           C   tau( 332) = (  0.1250000  0.7500000  0.0000000  )
       333           C   tau( 333) = (  0.1250000  0.7500000  0.2500000  )
       334           C   tau( 334) = (  0.1250000  0.7500000  0.5000000  )
       335           C   tau( 335) = (  0.1250000  0.7500000  0.7500000  )
       336           C   tau( 336) = (  0.3750000  0.0000000  0.0000000  )
       337           C   tau( 337) = (  0.3750000  0.0000000  0.2500000  )
       338           C   tau( 338) = (  0.3750000  0.0000000  0.5000000  )
       339           C   tau( 339) = (  0.3750000  0.0000000  0.7500000  )
       340           C   tau( 340) = (  0.3750000  0.2500000  0.0000000  )
       341           C   tau( 341) = (  0.3750000  0.2500000  0.2500000  )
       342           C   tau( 342) = (  0.3750000  0.2500000  0.5000000  )
       343           C   tau( 343) = (  0.3750000  0.2500000  0.7500000  )
       344           C   tau( 344) = (  0.3750000  0.5000000  0.0000000  )
       345           C   tau( 345) = (  0.3750000  0.5000000  0.2500000  )
       346           C   tau( 346) = (  0.3750000  0.5000000  0.5000000  )
       347           C   tau( 347) = (  0.3750000  0.5000000  0.7500000  )
       348           C   tau( 348) = (  0.3750000  0.7500000  0.0000000  )
       349           C   tau( 349) = (  0.3750000  0.7500000  0.2500000  )
       350           C   tau( 350) = (  0.3750000  0.7500000  0.5000000  )
       351           C   tau( 351) = (  0.3750000  0.7500000  0.7500000  )
       352           C   tau( 352) = (  0.6250000  0.0000000  0.0000000  )
       353           C   tau( 353) = (  0.6250000  0.0000000  0.2500000  )
       354           C   tau( 354) = (  0.6250000  0.0000000  0.5000000  )
       355           C   tau( 355) = (  0.6250000  0.0000000  0.7500000  )
       356           C   tau( 356) = (  0.6250000  0.2500000  0.0000000  )
       357           C   tau( 357) = (  0.6250000  0.2500000  0.2500000  )
       358           C   tau( 358) = (  0.6250000  0.2500000  0.5000000  )
       359           C   tau( 359) = (  0.6250000  0.2500000  0.7500000  )
       360           C   tau( 360) = (  0.6250000  0.5000000  0.0000000  )
       361           C   tau( 361) = (  0.6250000  0.5000000  0.2500000  )
       362           C   tau( 362) = (  0.6250000  0.5000000  0.5000000  )
       363           C   tau( 363) = (  0.6250000  0.5000000  0.7500000  )
       364           C   tau( 364) = (  0.6250000  0.7500000  0.0000000  )
       365           C   tau( 365) = (  0.6250000  0.7500000  0.2500000  )
       366           C   tau( 366) = (  0.6250000  0.7500000  0.5000000  )
       367           C   tau( 367) = (  0.6250000  0.7500000  0.7500000  )
       368           C   tau( 368) = (  0.8750000  0.0000000  0.0000000  )
       369           C   tau( 369) = (  0.8750000  0.0000000  0.2500000  )
       370           C   tau( 370) = (  0.8750000  0.0000000  0.5000000  )
       371           C   tau( 371) = (  0.8750000  0.0000000  0.7500000  )
       372           C   tau( 372) = (  0.8750000  0.2500000  0.0000000  )
       373           C   tau( 373) = (  0.8750000  0.2500000  0.2500000  )
       374           C   tau( 374) = (  0.8750000  0.2500000  0.5000000  )
       375           C   tau( 375) = (  0.8750000  0.2500000  0.7500000  )
       376           C   tau( 376) = (  0.8750000  0.5000000  0.0000000  )
       377           C   tau( 377) = (  0.8750000  0.5000000  0.2500000  )
       378           C   tau( 378) = (  0.8750000  0.5000000  0.5000000  )
       379           C   tau( 379) = (  0.8750000  0.5000000  0.7500000  )
       380           C   tau( 380) = (  0.8750000  0.7500000  0.0000000  )
       381           C   tau( 381) = (  0.8750000  0.7500000  0.2500000  )
       382           C   tau( 382) = (  0.8750000  0.7500000  0.5000000  )
       383           C   tau( 383) = (  0.8750000  0.7500000  0.7500000  )
       384           C   tau( 384) = (  0.1874985  0.0625015  0.0625015  )
       385           C   tau( 385) = (  0.1874985  0.0625015  0.3125015  )
       386           C   tau( 386) = (  0.1874985  0.0625015  0.5625015  )
       387           C   tau( 387) = (  0.1874985  0.0625015  0.8125015  )
       388           C   tau( 388) = (  0.1874985  0.3125015  0.0625015  )
       389           C   tau( 389) = (  0.1874985  0.3125015  0.3125015  )
       390           C   tau( 390) = (  0.1874985  0.3125015  0.5625015  )
       391           C   tau( 391) = (  0.1874985  0.3125015  0.8125015  )
       392           C   tau( 392) = (  0.1874985  0.5625015  0.0625015  )
       393           C   tau( 393) = (  0.1874985  0.5625015  0.3125015  )
       394           C   tau( 394) = (  0.1874985  0.5625015  0.5625015  )
       395           C   tau( 395) = (  0.1874985  0.5625015  0.8125015  )
       396           C   tau( 396) = (  0.1874985  0.8125015  0.0625015  )
       397           C   tau( 397) = (  0.1874985  0.8125015  0.3125015  )
       398           C   tau( 398) = (  0.1874985  0.8125015  0.5625015  )
       399           C   tau( 399) = (  0.1874985  0.8125015  0.8125015  )
       400           C   tau( 400) = (  0.4374985  0.0625015  0.0625015  )
       401           C   tau( 401) = (  0.4374985  0.0625015  0.3125015  )
       402           C   tau( 402) = (  0.4374985  0.0625015  0.5625015  )
       403           C   tau( 403) = (  0.4374985  0.0625015  0.8125015  )
       404           C   tau( 404) = (  0.4374985  0.3125015  0.0625015  )
       405           C   tau( 405) = (  0.4374985  0.3125015  0.3125015  )
       406           C   tau( 406) = (  0.4374985  0.3125015  0.5625015  )
       407           C   tau( 407) = (  0.4374985  0.3125015  0.8125015  )
       408           C   tau( 408) = (  0.4374985  0.5625015  0.0625015  )
       409           C   tau( 409) = (  0.4374985  0.5625015  0.3125015  )
       410           C   tau( 410) = (  0.4374985  0.5625015  0.5625015  )
       411           C   tau( 411) = (  0.4374985  0.5625015  0.8125015  )
       412           C   tau( 412) = (  0.4374985  0.8125015  0.0625015  )
       413           C   tau( 413) = (  0.4374985  0.8125015  0.3125015  )
       414           C   tau( 414) = (  0.4374985  0.8125015  0.5625015  )
       415           C   tau( 415) = (  0.4374985  0.8125015  0.8125015  )
       416           C   tau( 416) = (  0.6874985  0.0625015  0.0625015  )
       417           C   tau( 417) = (  0.6874985  0.0625015  0.3125015  )
       418           C   tau( 418) = (  0.6874985  0.0625015  0.5625015  )
       419           C   tau( 419) = (  0.6874985  0.0625015  0.8125015  )
       420           C   tau( 420) = (  0.6874985  0.3125015  0.0625015  )
       421           C   tau( 421) = (  0.6874985  0.3125015  0.3125015  )
       422           C   tau( 422) = (  0.6874985  0.3125015  0.5625015  )
       423           C   tau( 423) = (  0.6874985  0.3125015  0.8125015  )
[...]
              0.218346171266930E+03
              0.135546582495196E+02
              0.344812607290445E+02
              0.157892624900011E+03
              0.517626747128973E+02
             -0.987410667595479E+02
             -0.185075479799836E+03
              0.100883417482351E+01
             -0.217111163313417E+03
              0.740685219608064E+02
             -0.243317167102358E+02
             -0.747282891972122E+02
              0.683236520119124E+02
              0.329897233442171E+02
              0.779749030433666E+02
             -0.216260686793458E+01
              0.114919014518421E+03
             -0.209728300279151E+03
             -0.986684330969661E+01
             -0.190441341003049E+03
              0.611243941849161E+02
              0.930344578758207E+02
             -0.178399546827161E+02
             -0.553706312177090E+02
              0.162491114414445E+03
             -0.732763123881367E+02
              0.511626815044744E+02
             -0.342187849842312E+02
              0.127900758474559E+03
              0.106219889747223E+03
             -0.482535141643903E+02
              0.109567355128729E+03
              0.410248918606869E+02
             -0.112496345812093E+03
             -0.559755941617119E+02
              0.172050344845255E+03
              0.815399460102250E+02
              0.470880118666742E+00
             -0.224929823174932E+02
              0.272619209257831E+03
              0.156273705603477E+03
              0.504517767493392E+02
             -0.194111858351967E+03
              0.269589458010964E+03
             -0.141931906361786E+03
             -0.166686098710639E+03
             -0.226517069240577E+03
              0.112542742546662E+03
             -0.200122671190379E+03
              0.895551396251922E+02
              0.174878174960886E+03
              0.111017663286637E+03
              0.547723449475839E+02
              0.704973748922001E+02
             -0.178168561506092E+03
             -0.592218841825076E+02
             -0.501845498266927E+02
              0.959094912745309E+02
              0.162518220079504E+03
              0.189209536477681E+03
              0.158168124849043E+03
             -0.387283956067834E+02
              0.382846420334968E+02
             -0.152071589009113E+02
             -0.578943805036364E+02
              0.627280212442136E+02
              0.655832230256185E+02
             -0.919485487345940E+02
             -0.123496012135576E+03
             -0.434665265315275E+02
              0.156811790120563E+03
              0.779873661763870E+02
             -0.101701322463487E+03
             -0.134905591086938E+03
             -0.175999285082924E+03
             -0.785643120720863E+01
              0.378006078938645E+02
             -0.742461428070021E+02
              0.265646729408409E+03
              0.228867543409301E+02
             -0.317363268494129E+03
              0.710182408074538E+02
              0.154678348398255E+03
             -0.669017697620511E+02
              0.146115069167888E+02
             -0.101770047986478E+03
              0.124924500966354E+03
              0.473806946895659E+02
             -0.159999500234362E+03
              0.195621781245093E+03
             -0.175247432783962E+02
             -0.106296385349885E+03
             -0.101748576342090E+03
              0.368901565312644E+03
              0.178509157583444E+03
             -0.393887072099430E+02
              0.105597921251974E+03
             -0.139197338671307E+03
             -0.214763729409713E+02
             -0.166510351285180E+03
              0.717423533357410E+02
              0.953766002605873E+02
              0.129408763261925E+03
             -0.554055400916218E+02
              0.165158602302590E+02
              0.143454113498136E+03
              0.712986128527516E+02
              0.933950977731743E+02
              0.435172221805020E+02
             -0.354022830387703E+02
             -0.389709471947793E+01
             -0.249904482688755E+02
              0.369848658609139E+02
              0.148589905576930E+02
             -0.117711578256007E+03
              0.219202262518406E+03
              0.929704105903714E+02
             -0.142562655988761E+03
             -0.976494897870176E+02
             -0.159801607828434E+03
             -0.811491616179346E+02
             -0.512421839071394E+02
             -0.125443596800641E+03
             -0.127069194653418E+03
              0.196040614742946E+03
              0.132735836786380E+03
             -0.311578580386248E+02
              0.173175752564870E+03
              0.467097373174256E+02
             -0.301242174126380E+03
              0.155078074560792E+03
              0.458118864819030E+02
              0.141627972211921E+03
              0.364495898184179E+02
              0.383483828585323E+02
              0.330014617603520E+02
              0.863214623330817E+02
             -0.111751108250295E+03
             -0.642934368079798E+02
             -0.977199536341564E+02
             -0.688151022607917E+02
              0.415693012299189E+02
             -0.107132985582272E+03
              0.419105711693488E+02
              0.609982394416699E+02
             -0.731209714074894E+02
             -0.294640155925833E+02
             -0.813874583735492E+01
              0.188849541782780E+03
              0.143581812230732E+02
              0.204575041620434E+03
              0.530157259164778E+02
             -0.233342847878175E+03
             -0.904879354639102E+02
              0.792929806053723E+02
              0.154484630313133E+03
              0.581729820570678E+02
              0.607852718364132E+02
              0.164270196168894E+03
             -0.112117563044084E+03
             -0.174133267841963E+03
              0.204124047677209E+03
             -0.210212636522931E+02
             -0.232565225502776E+03
              0.781194243926193E+02
              0.150636499563438E+03
             -0.238546633580902E+02
             -0.118454057417782E+03
             -0.596609018159143E+01
              0.186443758954510E+02
             -0.713836320594475E+02
              0.387343466612133E+02
             -0.279208889662896E+02
              0.309127891308360E+03
              0.702457659660910E+02
             -0.155004383500321E+03
              0.451954574151196E+02
              0.206843020159950E+03
             -0.115423597465486E+03
             -0.611081271590145E+02
             -0.111630014748043E+03
              0.727829298203250E+02
              0.499457688338225E+02
              0.457594442415171E+02
             -0.194265863879195E+01
              0.220625111805335E+03
             -0.144306887017393E+03
             -0.109580327933011E+03
             -0.104718484706210E+03
              0.108770731199080E+03
              0.209702688088665E+03
             -0.657000136258011E+01
              0.901161313187753E+02
             -0.111791227013434E+03
             -0.108157707777646E+02
             -0.304289715896943E+02
             -0.449199686301057E+02
             -0.555698745718011E+02
             -0.577831992635784E+02
             -0.373280125002507E+02
              0.566221941363449E+02
              0.553910167850604E+02
             -0.157076559211548E+03
              0.109915247882834E+03
             -0.174581763182789E+03
              0.126500998440407E+03
             -0.172151006753561E+03
              0.258735862790176E+03
              0.127757743107912E+03
              0.126693847065586E+03
              0.265829120520413E+02
              0.154115281527957E+02
             -0.324586245495518E+03
              0.632084025098861E+02
              0.182542450701058E+02
              0.691233552526819E+01
             -0.404890586764279E+02
              0.232241716028135E+03
             -0.105228079656337E+03
             -0.839919747391243E+02
             -0.253868339603928E+03
             -0.860779087814935E+02
             -0.101144767767581E+03
             -0.106872333898079E+03
             -0.257153426820901E+02
             -0.458850664245738E+02
             -0.664875528575668E+02
             -0.107259514494622E+03
              0.807208933899776E+02
              0.254128375808507E+03
              0.220569257101485E+03
             -0.737085048853705E+02
             -0.274941206292716E+03
             -0.108899805848525E+03
              0.696144212125992E+02
              0.485283291889300E+02
              0.664310542948974E+02
              0.691625340854084E+02
              0.213047021522611E+02
              0.223712175210182E+03
             -0.588431953064139E+02
              0.133136663549657E+03
              0.431746833204215E+02
             -0.835314418525211E+02
             -0.584910022187046E+02
              0.112766194373034E+03
             -0.481942126564377E+02
             -0.560596310122867E+02
             -0.303389809994482E+02
              0.143843299724500E+03
             -0.179505578971077E+03
             -0.415523535326345E+02
             -0.156737499071033E+03
             -0.340279794587237E+03
              0.162108083778747E+02
             -0.347966484111233E+02
              0.119287486496148E+03
              0.127265934566273E+03
              0.192946582265711E+03
             -0.117632758751669E+03
              0.200320814536149E+03
              0.470084493369791E+02
             -0.379798966338635E+02
              0.417738656321984E+02
             -0.794661285412440E+02
             -0.515380428704652E+02
              0.979193826884434E+02
             -0.109454527571530E+03
              0.251815660806841E+03
             -0.620549446426962E+02
             -0.137496031351399E+03
              0.248624335168019E+03
             -0.145331834682394E+03
             -0.343567921683784E+02
              0.256846707946108E+02
              0.721068340326574E+02
             -0.115885015280714E+03
             -0.897769531419608E+02
              0.117395486706720E+03
             -0.224525028374393E+03
              0.148338920573639E+03
              0.266437092191354E+02
              0.117171190275791E+03
              0.161795706834257E+03
              0.215244221209962E+02
             -0.190261673645112E+03
             -0.954603226266756E+02
             -0.161763214712222E+03
             -0.956002258122071E+02
             -0.617879894800585E+02
              0.253166597710596E+02
             -0.527671339272675E+02
              0.141399752169000E+02
             -0.275950264335732E+03
             -0.993688355637573E+01
             -0.161053845285449E+03
              0.146861138553007E+03
             -0.626079790037000E+02
             -0.195560280388250E+02
              0.111825669076516E+03
              0.552333142754497E+01
              0.121784443555945E+03
             -0.189649035532697E+03
              0.469202358126659E+02
              0.265456559688797E+02
              0.627392460506121E+02
              0.152541300274430E+03
             -0.117791788128891E+02
             -0.178327737985730E+03
             -0.890444377690889E+02
             -0.639974159680824E+02
             -0.357203757495304E+02
              0.147109633832502E+03
              0.988946429716152E+02
             -0.770989010864209E+02
             -0.997025835337056E+02
              0.829241878833020E+02
              0.749736450658949E+02
             -0.190500368212709E+03
              0.601425663742310E+02
              0.143116188581121E+03
             -0.112347240265510E+02
              0.162281900650779E+03
              0.953728836951527E+02
              0.124272878900952E+03
              0.176668559950871E+03
              0.638564944955965E+01
             -0.290211289652013E+03
              0.264240018461772E+02
              0.315188208504707E+03
              0.209923101679150E+03
             -0.148006194668521E+03
              0.111186541323180E+02
              0.174782756610099E+03
              0.161384883990855E+03
              0.689251312796407E+02
             -0.495740927155482E+02
              0.765798737495671E+02
              0.189668971058898E+03
             -0.650233090759798E+02
             -0.626643489262366E+02
              0.108818903857155E+03
             -0.164432749602448E+02
              0.877882251623975E+02
              0.328911558083576E+00
              0.208883304527719E+03
             -0.705384634396609E+02
              0.291768275647385E+02
             -0.113167918596813E+03
              0.101850259087701E+03
             -0.126281422709875E+02
              0.162637019872772E+03
              0.114128548528674E+02
              0.452676392878794E+02
             -0.108580365438496E+03
             -0.593598349262530E+02
             -0.333005976445901E+02
             -0.136213661683124E+02
              0.171404171286532E+03
              0.488224089615509E+02
              0.226485290634132E+03
              0.133802655367813E+03
              0.210341521187149E+02
             -0.916142013514900E-01
              0.205680121244416E+03
              0.107605121608582E+03
              0.134704854928326E+02
              0.190148781510016E+03
             -0.169267964520917E+03
              0.708690833593574E+02
             -0.900202314599670E+02
             -0.683734166367931E+02
              0.246684240931064E+03
             -0.400775798659008E+02
              0.236066717858512E+01
             -0.391768309971098E+02
              0.206014458854755E+03
             -0.576704506455233E+02
             -0.577802748537476E+01
              0.426928335055261E+03
             -0.153736224618643E+03
             -0.124936968095636E+03
             -0.160311207791956E+03
             -0.754135103814751E+02
              0.877151137026148E+02
             -0.400250150524409E+02
              0.370989009401906E+02
              0.156250214206739E+01
              0.537134446093477E+02
              0.864698967024902E+02
              0.817004917788664E+02
              0.174014467317942E+03
              0.711506530193582E+02
              0.121294517472888E+03
             -0.173664922063299E+03
             -0.135321854581633E+03
             -0.550840526107897E+02
             -0.148829300695735E+03
              0.268256969902535E+03
              0.230109428969457E+03
              0.100000174943876E+03
              0.271271736961097E+03
             -0.145510351352942E+03
             -0.700015102882606E+02
             -0.722472621211667E+02
              0.214051228261114E+03
 
 BEEF-vdW xc energy contributions
            1 :    -2091.894964634861     
            2 :     1845.694672554850     
            3 :    -1421.141031475145     
            4 :     928.3250967537092     
            5 :    -479.6505466994377     
            6 :     152.6971905642349     
            7 :     29.23311239519808     
            8 :    -92.92181682155024     
            9 :     92.39941457886789     
           10 :    -80.12402240266692     
           11 :     85.75593850068117     
           12 :    -110.5374013902024     
           13 :     136.6371430967729     
           14 :    -143.7273948747165     
           15 :     122.8748232701300     
           16 :    -81.00007520005784     
           17 :     35.31491285950869     
           18 :    -2.633470975137243     
           19 :    -9.554707783032882     
           20 :     5.448543978515772     
           21 :     3.621393746167996     
           22 :    -7.028076346572561     
           23 :    0.9579690910272802     
           24 :     10.50443719194936     
           25 :    -19.22652201186202     
           26 :     18.82400906246767     
           27 :    -8.648354016541816     
           28 :    -6.232403336166954     
           29 :     18.57038229977570     
           30 :    -23.42354389474895     
           31 :    -273.6842121340069     
           32 :    -198.5784613419937     

     Writing all to output data dir ./diamond.save/
 
     init_run     :     20.07s CPU     25.73s WALL (       1 calls)
     electrons    :    543.50s CPU    554.14s WALL (       1 calls)
     forces       :      7.85s CPU      8.29s WALL (       1 calls)
     stress       :    102.82s CPU    103.84s WALL (       1 calls)

     Called by init_run:
     wfcinit      :     16.86s CPU     22.21s WALL (       1 calls)
     potinit      :      0.95s CPU      1.08s WALL (       1 calls)
     hinit0       :      0.99s CPU      1.06s WALL (       1 calls)

     Called by electrons:
     c_bands      :    521.58s CPU    531.54s WALL (       2 calls)
     sum_band     :     20.92s CPU     21.39s WALL (       2 calls)
     v_of_rho     :      1.32s CPU      1.36s WALL (       2 calls)
     v_h          :      0.02s CPU      0.02s WALL (       2 calls)
     v_xc         :     22.05s CPU     22.32s WALL (      38 calls)
     newd         :      0.16s CPU      0.27s WALL (       2 calls)
     PAW_pot      :      0.24s CPU      0.24s WALL (       2 calls)
     mix_rho      :      0.00s CPU      0.00s WALL (       2 calls)
     vdW_kernel   :      0.15s CPU      0.16s WALL (       1 calls)

     Called by c_bands:
     init_us_2    :      0.13s CPU      0.15s WALL (       4 calls)
     init_us_2:cp :      0.13s CPU      0.15s WALL (       4 calls)
     cegterg      :    519.68s CPU    528.38s WALL (       2 calls)

     Called by sum_band:
     sum_band:wei :      0.00s CPU      0.00s WALL (       2 calls)
     sum_band:loo :     20.61s CPU     20.83s WALL (       2 calls)
     sum_band:buf :      0.00s CPU      0.00s WALL (       2 calls)
     sum_band:ini :      0.11s CPU      0.12s WALL (       2 calls)
     sum_band:cal :      2.96s CPU      2.99s WALL (       2 calls)
     sum_band:bec :      0.08s CPU      0.08s WALL (       2 calls)
     addusdens    :      0.16s CPU      0.28s WALL (       2 calls)
     addusd:skk   :      0.05s CPU      0.15s WALL (       2 calls)
     addusd:dgemm :      0.11s CPU      0.11s WALL (       2 calls)
     addusd:qvan2 :      0.01s CPU      0.01s WALL (       2 calls)

     Called by *egterg:
     cdiaghg      :    362.63s CPU    366.23s WALL (      13 calls)
     cegterg:over :      7.76s CPU      8.38s WALL (      13 calls)
     cegterg:upda :      3.58s CPU      3.65s WALL (      13 calls)
     cegterg:last :      1.76s CPU      1.77s WALL (       2 calls)
     h_psi        :    120.01s CPU    121.93s WALL (      15 calls)
     s_psi        :      6.27s CPU      6.63s WALL (      15 calls)
     g_psi        :      0.01s CPU      0.01s WALL (      13 calls)

     Called by h_psi:
     h_psi:calbec :     11.28s CPU     11.40s WALL (      15 calls)
     vloc_psi     :    102.40s CPU    103.75s WALL (      15 calls)
     vloc_psi:tg_ :      0.00s CPU      0.00s WALL (      15 calls)
     add_vuspsi   :      6.27s CPU      6.67s WALL (      15 calls)

     General routines
     calbec       :     21.65s CPU     21.87s WALL (      22 calls)
     fft          :     19.15s CPU     19.35s WALL (    2232 calls)
     ffts         :      0.03s CPU      0.03s WALL (       4 calls)
     fftw         :    119.22s CPU    120.74s WALL (   15082 calls)
     interpolate  :      0.04s CPU      0.05s WALL (       2 calls)
 
     Parallel routines
     fft_scatt_xy :      1.03s CPU      1.05s WALL (   17318 calls)
     fft_scatt_yz :    131.40s CPU    133.00s WALL (   17318 calls)
     fft_scatt_tg :      0.05s CPU      0.06s WALL (   15082 calls)

     PAW routines
     PAW_pot      :      0.24s CPU      0.24s WALL (       2 calls)
     PAW_symme    :      0.00s CPU      0.00s WALL (       3 calls)
 
     PWSCF        :  11m50.78s CPU  12m14.29s WALL

 
   This run was terminated on:   7:30:29   1Oct2023            

=------------------------------------------------------------------------------=
   JOB DONE.
=------------------------------------------------------------------------------=
