
     Program PWSCF v.7.1 starts on 12Apr2024 at 11:29:34 

     This program is part of the open-source Quantum ESPRESSO suite
     for quantum simulation of materials; please cite
         "P. Giannozzi et al., J. Phys.:Condens. Matter 21 395502 (2009);
         "P. Giannozzi et al., J. Phys.:Condens. Matter 29 465901 (2017);
         "P. Giannozzi et al., J. Chem. Phys. 152 154105 (2020);
          URL http://www.quantum-espresso.org", 
     in publications or presentations arising from this work. More details at
     http://www.quantum-espresso.org/quote

     Parallel version (MPI & OpenMP), running on     180 processor cores
     Number of MPI processes:               180
     Threads/MPI process:                     1

     MPI processes distributed on     2 nodes
     2048831 MiB available memory on the printing compute node when the environment starts
 
     Reading input from espresso.pwi
Warning: card &CELL ignored
Warning: card    CELL_DYNAMICS    = 'BFGS' ignored
Warning: card / ignored

     Current dimensions of program PWSCF are:
     Max number of different atomic species (ntypx) = 10
     Max number of k-points (npk) =  40000
     Max angular momentum in pseudopotentials (lmaxx) =  4
     file Ga.pbe-dn-kjpaw_psl.1.0.0.UPF: wavefunction(s)  4S renormalized
     file N.pbe-n-kjpaw_psl.1.0.0.UPF: wavefunction(s)  2S renormalized

     **************************************************************************
     Initializing libbeef V0.1.2 with the BEEF-vdW functional.
     Citation: Wellendorff et al., PRB 85, 235149 (2012).
     **************************************************************************


     IMPORTANT: XC functional enforced from input :
     Exchange-correlation= BEEF-VDW
                           (   1   4  43  14   2   0   0)
     Any further DFT definition will be discarded
     Please, verify this is what you really want

 
     K-points division:     npool     =       3
     R & G space division:  proc/nbgrp/npool/nimage =      60
     Subspace diagonalization in iterative solution of the eigenvalue problem:
     a serial algorithm will be used

 
     Parallelization info
     --------------------
     sticks:   dense  smooth     PW     G-vecs:    dense   smooth      PW
     Min         378     302     78                44970    32176    4254
     Max         379     303     79                44974    32181    4259
     Sum       22693   18145   4705              2698283  1930731  255309
 
     Using Slab Decomposition
 


     bravais-lattice index     =            4
     lattice parameter (alat)  =      30.6565  a.u.
     unit-cell volume          =   24400.9461 (a.u.)^3
     number of atoms/cell      =          300
     number of atomic types    =            2
     number of electrons       =      2691.00
     number of Kohn-Sham states=         1615
     kinetic-energy cutoff     =      70.0000  Ry
     charge density cutoff     =     350.0000  Ry
     scf convergence threshold =      1.0E-07
     mixing beta               =       0.7000
     number of iterations used =            8  plain     mixing
     energy convergence thresh.=      1.0E-04
     force convergence thresh. =      1.0E-03
     Exchange-correlation= BEEF-VDW
                           (   1   4  43  14   2   0   0)
     nstep                     =           50


     celldm(1)=  30.656540  celldm(2)=   0.000000  celldm(3)=   0.977927
     celldm(4)=   0.000000  celldm(5)=   0.000000  celldm(6)=   0.000000

     crystal axes: (cart. coord. in units of alat)
               a(1) = (   1.000000   0.000000   0.000000 )  
               a(2) = (  -0.500000   0.866025   0.000000 )  
               a(3) = (   0.000000   0.000000   0.977927 )  

     reciprocal axes: (cart. coord. in units 2 pi/alat)
               b(1) = (  1.000000  0.577350 -0.000000 )  
               b(2) = (  0.000000  1.154701  0.000000 )  
               b(3) = (  0.000000 -0.000000  1.022571 )  


     PseudoPot. # 1 for Ga read from file:
     //group///packages/espresso/pseudo/psl_1.0.0/pslibrary.1.0.0/pbe/PSEUDOPOTENTIALS/Ga.pbe-dn-kjpaw_psl.1.0.0.UPF
     MD5 check sum: cd2a01e492f15b435d17032472d8505c
     Pseudo is Projector augmented-wave + core cor, Zval = 13.0
     Generated using 'atomic' code by A. Dal Corso  v.7.1
     Shape of augmentation charge: PSQ
     Using radial grid of 1205 points,  6 beta functions with: 
                l(1) =   0
                l(2) =   0
                l(3) =   1
                l(4) =   1
                l(5) =   2
                l(6) =   2
     Q(r) pseudized with 0 coefficients 


     PseudoPot. # 2 for N  read from file:
     //group///packages/espresso/pseudo/psl_1.0.0/pslibrary.1.0.0/pbe/PSEUDOPOTENTIALS/N.pbe-n-kjpaw_psl.1.0.0.UPF
     MD5 check sum: f77f775694dac7e2c3fe1c82443d1a16
     Pseudo is Projector augmented-wave + core cor, Zval =  5.0
     Generated using 'atomic' code by A. Dal Corso  v.7.1
     Shape of augmentation charge: PSQ
     Using radial grid of 1085 points,  4 beta functions with: 
                l(1) =   0
                l(2) =   0
                l(3) =   1
                l(4) =   1
     Q(r) pseudized with 0 coefficients 


     atomic species   valence    mass     pseudopotential
        Ga            13.00    69.72300     Ga( 1.00)
        N              5.00    14.00700     N ( 1.00)

      2 Sym. Ops. (no inversion) found


                                    s                        frac. trans.

      isym =  1     identity                                     

 cryst.   s( 1) = (     1          0          0      )
                  (     0          1          0      )
                  (     0          0          1      )

 cart.    s( 1) = (  1.0000000  0.0000000  0.0000000 )
                  (  0.0000000  1.0000000  0.0000000 )
                  (  0.0000000  0.0000000  1.0000000 )


      isym =  2     inv. 180 deg rotation - cryst. axis [0,1,0]  

 cryst.   s( 2) = (     1          1          0      )
                  (     0         -1          0      )
                  (     0          0          1      )

 cart.    s( 2) = (  0.5000000  0.8660254  0.0000000 )
                  (  0.8660254 -0.5000000  0.0000000 )
                  (  0.0000000  0.0000000  1.0000000 )


     point group C_s (m)    
     there are  2 classes
     the character table:

       E     s    
A'     1.00  1.00
A''    1.00 -1.00

     the symmetry operations in each class and the name of the first element:

     E        1
          identity                                               
     s        2
          inv. 180 deg rotation - cryst. axis [0,1,0]            

   Cartesian axes

     site n.     atom                  positions (alat units)
         1           Ga  tau(   1) = (   0.1000001   0.0577350   0.4886906  )
         2           Ga  tau(   2) = (   0.1000001   0.0577350   0.8146665  )
         3           Ga  tau(   3) = (   0.0000001   0.2309401   0.1627148  )
         4           Ga  tau(   4) = (   0.0000001   0.2309401   0.4886906  )
         5           Ga  tau(   5) = (   0.0000001   0.2309401   0.8146665  )
         6           Ga  tau(   6) = (  -0.0999999   0.4041451   0.1627148  )
         7           Ga  tau(   7) = (  -0.0999999   0.4041451   0.4886906  )
         8           Ga  tau(   8) = (  -0.0999999   0.4041451   0.8146665  )
         9           Ga  tau(   9) = (  -0.1999999   0.5773502   0.1627148  )
        10           Ga  tau(  10) = (  -0.1999999   0.5773502   0.4886906  )
        11           Ga  tau(  11) = (  -0.1999999   0.5773502   0.8146665  )
        12           Ga  tau(  12) = (  -0.2999999   0.7505553   0.1627148  )
        13           Ga  tau(  13) = (  -0.2999999   0.7505553   0.4886906  )
        14           Ga  tau(  14) = (  -0.2999999   0.7505553   0.8146665  )
        15           Ga  tau(  15) = (   0.3000001   0.0577350   0.1627148  )
        16           Ga  tau(  16) = (   0.3000001   0.0577350   0.4886906  )
        17           Ga  tau(  17) = (   0.3000001   0.0577350   0.8146665  )
        18           Ga  tau(  18) = (   0.2000001   0.2309401   0.1627148  )
        19           Ga  tau(  19) = (   0.2000001   0.2309401   0.4886906  )
        20           Ga  tau(  20) = (   0.2000001   0.2309401   0.8146665  )
        21           Ga  tau(  21) = (   0.1000001   0.4041451   0.1627148  )
        22           Ga  tau(  22) = (   0.1000001   0.4041451   0.4886906  )
        23           Ga  tau(  23) = (   0.1000001   0.4041451   0.8146665  )
        24           Ga  tau(  24) = (   0.0000001   0.5773502   0.1627148  )
        25           Ga  tau(  25) = (   0.0000001   0.5773502   0.4886906  )
        26           Ga  tau(  26) = (   0.0000001   0.5773502   0.8146665  )
        27           Ga  tau(  27) = (  -0.0999999   0.7505553   0.1627148  )
        28           Ga  tau(  28) = (  -0.0999999   0.7505553   0.4886906  )
        29           Ga  tau(  29) = (  -0.0999999   0.7505553   0.8146665  )
        30           Ga  tau(  30) = (   0.5000001   0.0577350   0.1627148  )
        31           Ga  tau(  31) = (   0.5000001   0.0577350   0.4886906  )
        32           Ga  tau(  32) = (   0.5000001   0.0577350   0.8146665  )
        33           Ga  tau(  33) = (   0.4000001   0.2309401   0.1627148  )
        34           Ga  tau(  34) = (   0.4000001   0.2309401   0.4886906  )
        35           Ga  tau(  35) = (   0.4000001   0.2309401   0.8146665  )
        36           Ga  tau(  36) = (   0.3000001   0.4041451   0.1627148  )
        37           Ga  tau(  37) = (   0.3000001   0.4041451   0.4886906  )
        38           Ga  tau(  38) = (   0.3000001   0.4041451   0.8146665  )
        39           Ga  tau(  39) = (   0.2000001   0.5773502   0.1627148  )
        40           Ga  tau(  40) = (   0.2000001   0.5773502   0.4886906  )
        41           Ga  tau(  41) = (   0.2000001   0.5773502   0.8146665  )
        42           Ga  tau(  42) = (   0.1000001   0.7505553   0.1627148  )
        43           Ga  tau(  43) = (   0.1000001   0.7505553   0.4886906  )
        44           Ga  tau(  44) = (   0.1000001   0.7505553   0.8146665  )
        45           Ga  tau(  45) = (   0.7000001   0.0577350   0.1627148  )
        46           Ga  tau(  46) = (   0.7000001   0.0577350   0.4886906  )
        47           Ga  tau(  47) = (   0.7000001   0.0577350   0.8146665  )
        48           Ga  tau(  48) = (   0.6000001   0.2309401   0.1627148  )
        49           Ga  tau(  49) = (   0.6000001   0.2309401   0.4886906  )
        50           Ga  tau(  50) = (   0.6000001   0.2309401   0.8146665  )
        51           Ga  tau(  51) = (   0.5000001   0.4041451   0.1627148  )
        52           Ga  tau(  52) = (   0.5000001   0.4041451   0.4886906  )
        53           Ga  tau(  53) = (   0.5000001   0.4041451   0.8146665  )
        54           Ga  tau(  54) = (   0.4000001   0.5773502   0.1627148  )
        55           Ga  tau(  55) = (   0.4000001   0.5773502   0.4886906  )
        56           Ga  tau(  56) = (   0.4000001   0.5773502   0.8146665  )
        57           Ga  tau(  57) = (   0.3000001   0.7505553   0.1627148  )
        58           Ga  tau(  58) = (   0.3000001   0.7505553   0.4886906  )
        59           Ga  tau(  59) = (   0.3000001   0.7505553   0.8146665  )
        60           Ga  tau(  60) = (   0.9000001   0.0577350   0.1627148  )
        61           Ga  tau(  61) = (   0.9000001   0.0577350   0.4886906  )
        62           Ga  tau(  62) = (   0.9000001   0.0577350   0.8146665  )
        63           Ga  tau(  63) = (   0.8000001   0.2309401   0.1627148  )
        64           Ga  tau(  64) = (   0.8000001   0.2309401   0.4886906  )
        65           Ga  tau(  65) = (   0.8000001   0.2309401   0.8146665  )
        66           Ga  tau(  66) = (   0.7000001   0.4041451   0.1627148  )
        67           Ga  tau(  67) = (   0.7000001   0.4041451   0.4886906  )
        68           Ga  tau(  68) = (   0.7000001   0.4041451   0.8146665  )
        69           Ga  tau(  69) = (   0.6000001   0.5773502   0.1627148  )
        70           Ga  tau(  70) = (   0.6000001   0.5773502   0.4886906  )
        71           Ga  tau(  71) = (   0.6000001   0.5773502   0.8146665  )
        72           Ga  tau(  72) = (   0.5000001   0.7505553   0.1627148  )
        73           Ga  tau(  73) = (   0.5000001   0.7505553   0.4886906  )
        74           Ga  tau(  74) = (   0.5000001   0.7505553   0.8146665  )
        75           Ga  tau(  75) = (  -0.0000001   0.1154701   0.3257027  )
        76           Ga  tau(  76) = (  -0.0000001   0.1154701   0.6516786  )
        77           Ga  tau(  77) = (  -0.0000001   0.1154701   0.9776544  )
        78           Ga  tau(  78) = (  -0.1000001   0.2886752   0.3257027  )
        79           Ga  tau(  79) = (  -0.1000001   0.2886752   0.6516786  )
        80           Ga  tau(  80) = (  -0.1000001   0.2886752   0.9776544  )
        81           Ga  tau(  81) = (  -0.2000001   0.4618803   0.3257027  )
        82           Ga  tau(  82) = (  -0.2000001   0.4618803   0.6516786  )
        83           Ga  tau(  83) = (  -0.2000001   0.4618803   0.9776544  )
        84           Ga  tau(  84) = (  -0.3000001   0.6350854   0.3257027  )
        85           Ga  tau(  85) = (  -0.3000001   0.6350854   0.6516786  )
        86           Ga  tau(  86) = (  -0.3000001   0.6350854   0.9776544  )
        87           Ga  tau(  87) = (  -0.4000001   0.8082905   0.3257027  )
        88           Ga  tau(  88) = (  -0.4000001   0.8082905   0.6516786  )
        89           Ga  tau(  89) = (  -0.4000001   0.8082905   0.9776544  )
        90           Ga  tau(  90) = (   0.1999999   0.1154701   0.3257027  )
        91           Ga  tau(  91) = (   0.1999999   0.1154701   0.6516786  )
        92           Ga  tau(  92) = (   0.1999999   0.1154701   0.9776544  )
        93           Ga  tau(  93) = (   0.0999999   0.2886752   0.3257027  )
        94           Ga  tau(  94) = (   0.0999999   0.2886752   0.6516786  )
        95           Ga  tau(  95) = (   0.0999999   0.2886752   0.9776544  )
        96           Ga  tau(  96) = (  -0.0000001   0.4618803   0.3257027  )
        97           Ga  tau(  97) = (  -0.0000001   0.4618803   0.6516786  )
        98           Ga  tau(  98) = (  -0.0000001   0.4618803   0.9776544  )
        99           Ga  tau(  99) = (  -0.1000001   0.6350854   0.3257027  )
       100           Ga  tau( 100) = (  -0.1000001   0.6350854   0.6516786  )
       101           Ga  tau( 101) = (  -0.1000001   0.6350854   0.9776544  )
       102           Ga  tau( 102) = (  -0.2000001   0.8082905   0.3257027  )
       103           Ga  tau( 103) = (  -0.2000001   0.8082905   0.6516786  )
       104           Ga  tau( 104) = (  -0.2000001   0.8082905   0.9776544  )
       105           Ga  tau( 105) = (   0.3999999   0.1154701   0.3257027  )
       106           Ga  tau( 106) = (   0.3999999   0.1154701   0.6516786  )
       107           Ga  tau( 107) = (   0.3999999   0.1154701   0.9776544  )
       108           Ga  tau( 108) = (   0.2999999   0.2886752   0.3257027  )
       109           Ga  tau( 109) = (   0.2999999   0.2886752   0.6516786  )
       110           Ga  tau( 110) = (   0.2999999   0.2886752   0.9776544  )
       111           Ga  tau( 111) = (   0.1999999   0.4618803   0.3257027  )
       112           Ga  tau( 112) = (   0.1999999   0.4618803   0.6516786  )
       113           Ga  tau( 113) = (   0.1999999   0.4618803   0.9776544  )
       114           Ga  tau( 114) = (   0.0999999   0.6350854   0.3257027  )
       115           Ga  tau( 115) = (   0.0999999   0.6350854   0.6516786  )
       116           Ga  tau( 116) = (   0.0999999   0.6350854   0.9776544  )
       117           Ga  tau( 117) = (  -0.0000001   0.8082905   0.3257027  )
       118           Ga  tau( 118) = (  -0.0000001   0.8082905   0.6516786  )
       119           Ga  tau( 119) = (  -0.0000001   0.8082905   0.9776544  )
       120           Ga  tau( 120) = (   0.5999999   0.1154701   0.3257027  )
       121           Ga  tau( 121) = (   0.5999999   0.1154701   0.6516786  )
       122           Ga  tau( 122) = (   0.5999999   0.1154701   0.9776544  )
       123           Ga  tau( 123) = (   0.4999999   0.2886752   0.3257027  )
       124           Ga  tau( 124) = (   0.4999999   0.2886752   0.6516786  )
       125           Ga  tau( 125) = (   0.4999999   0.2886752   0.9776544  )
       126           Ga  tau( 126) = (   0.3999999   0.4618803   0.3257027  )
       127           Ga  tau( 127) = (   0.3999999   0.4618803   0.6516786  )
       128           Ga  tau( 128) = (   0.3999999   0.4618803   0.9776544  )
       129           Ga  tau( 129) = (   0.2999999   0.6350854   0.3257027  )
       130           Ga  tau( 130) = (   0.2999999   0.6350854   0.6516786  )
       131           Ga  tau( 131) = (   0.2999999   0.6350854   0.9776544  )
       132           Ga  tau( 132) = (   0.1999999   0.8082905   0.3257027  )
       133           Ga  tau( 133) = (   0.1999999   0.8082905   0.6516786  )
       134           Ga  tau( 134) = (   0.1999999   0.8082905   0.9776544  )
       135           Ga  tau( 135) = (   0.7999999   0.1154701   0.3257027  )
       136           Ga  tau( 136) = (   0.7999999   0.1154701   0.6516786  )
       137           Ga  tau( 137) = (   0.7999999   0.1154701   0.9776544  )
       138           Ga  tau( 138) = (   0.6999999   0.2886752   0.3257027  )
       139           Ga  tau( 139) = (   0.6999999   0.2886752   0.6516786  )
       140           Ga  tau( 140) = (   0.6999999   0.2886752   0.9776544  )
       141           Ga  tau( 141) = (   0.5999999   0.4618803   0.3257027  )
       142           Ga  tau( 142) = (   0.5999999   0.4618803   0.6516786  )
       143           Ga  tau( 143) = (   0.5999999   0.4618803   0.9776544  )
       144           Ga  tau( 144) = (   0.4999999   0.6350854   0.3257027  )
       145           Ga  tau( 145) = (   0.4999999   0.6350854   0.6516786  )
       146           Ga  tau( 146) = (   0.4999999   0.6350854   0.9776544  )
       147           Ga  tau( 147) = (   0.3999999   0.8082905   0.3257027  )
       148           Ga  tau( 148) = (   0.3999999   0.8082905   0.6516786  )
       149           Ga  tau( 149) = (   0.3999999   0.8082905   0.9776544  )
       150           N   tau( 150) = (   0.1000001   0.0577350   0.2855019  )
       151           N   tau( 151) = (   0.1000001   0.0577350   0.6114777  )
       152           N   tau( 152) = (   0.1000001   0.0577350   0.9374535  )
       153           N   tau( 153) = (   0.0000001   0.2309401   0.2855019  )
       154           N   tau( 154) = (   0.0000001   0.2309401   0.6114777  )
       155           N   tau( 155) = (   0.0000001   0.2309401   0.9374535  )
       156           N   tau( 156) = (  -0.0999999   0.4041451   0.2855019  )
       157           N   tau( 157) = (  -0.0999999   0.4041451   0.6114777  )
       158           N   tau( 158) = (  -0.0999999   0.4041451   0.9374535  )
       159           N   tau( 159) = (  -0.1999999   0.5773502   0.2855019  )
       160           N   tau( 160) = (  -0.1999999   0.5773502   0.6114777  )
       161           N   tau( 161) = (  -0.1999999   0.5773502   0.9374535  )
       162           N   tau( 162) = (  -0.2999999   0.7505553   0.2855019  )
       163           N   tau( 163) = (  -0.2999999   0.7505553   0.6114777  )
       164           N   tau( 164) = (  -0.2999999   0.7505553   0.9374535  )
       165           N   tau( 165) = (   0.3000001   0.0577350   0.2855019  )
       166           N   tau( 166) = (   0.3000001   0.0577350   0.6114777  )
       167           N   tau( 167) = (   0.3000001   0.0577350   0.9374535  )
       168           N   tau( 168) = (   0.2000001   0.2309401   0.2855019  )
       169           N   tau( 169) = (   0.2000001   0.2309401   0.6114777  )
       170           N   tau( 170) = (   0.2000001   0.2309401   0.9374535  )
       171           N   tau( 171) = (   0.1000001   0.4041451   0.2855019  )
       172           N   tau( 172) = (   0.1000001   0.4041451   0.6114777  )
       173           N   tau( 173) = (   0.1000001   0.4041451   0.9374535  )
       174           N   tau( 174) = (   0.0000001   0.5773502   0.2855019  )
       175           N   tau( 175) = (   0.0000001   0.5773502   0.6114777  )
       176           N   tau( 176) = (   0.0000001   0.5773502   0.9374535  )
       177           N   tau( 177) = (  -0.0999999   0.7505553   0.2855019  )
       178           N   tau( 178) = (  -0.0999999   0.7505553   0.6114777  )
       179           N   tau( 179) = (  -0.0999999   0.7505553   0.9374535  )
       180           N   tau( 180) = (   0.5000001   0.0577350   0.2855019  )
       181           N   tau( 181) = (   0.5000001   0.0577350   0.6114777  )
       182           N   tau( 182) = (   0.5000001   0.0577350   0.9374535  )
       183           N   tau( 183) = (   0.4000001   0.2309401   0.2855019  )
       184           N   tau( 184) = (   0.4000001   0.2309401   0.6114777  )
       185           N   tau( 185) = (   0.4000001   0.2309401   0.9374535  )
       186           N   tau( 186) = (   0.3000001   0.4041451   0.2855019  )
       187           N   tau( 187) = (   0.3000001   0.4041451   0.6114777  )
       188           N   tau( 188) = (   0.3000001   0.4041451   0.9374535  )
       189           N   tau( 189) = (   0.2000001   0.5773502   0.2855019  )
       190           N   tau( 190) = (   0.2000001   0.5773502   0.6114777  )
       191           N   tau( 191) = (   0.2000001   0.5773502   0.9374535  )
       192           N   tau( 192) = (   0.1000001   0.7505553   0.2855019  )
       193           N   tau( 193) = (   0.1000001   0.7505553   0.6114777  )
       194           N   tau( 194) = (   0.1000001   0.7505553   0.9374535  )
       195           N   tau( 195) = (   0.7000001   0.0577350   0.2855019  )
       196           N   tau( 196) = (   0.7000001   0.0577350   0.6114777  )
       197           N   tau( 197) = (   0.7000001   0.0577350   0.9374535  )
       198           N   tau( 198) = (   0.6000001   0.2309401   0.2855019  )
       199           N   tau( 199) = (   0.6000001   0.2309401   0.6114777  )
       200           N   tau( 200) = (   0.6000001   0.2309401   0.9374535  )
       201           N   tau( 201) = (   0.5000001   0.4041451   0.2855019  )
       202           N   tau( 202) = (   0.5000001   0.4041451   0.6114777  )
       203           N   tau( 203) = (   0.5000001   0.4041451   0.9374535  )
       204           N   tau( 204) = (   0.4000001   0.5773502   0.2855019  )
       205           N   tau( 205) = (   0.4000001   0.5773502   0.6114777  )
       206           N   tau( 206) = (   0.4000001   0.5773502   0.9374535  )
       207           N   tau( 207) = (   0.3000001   0.7505553   0.2855019  )
       208           N   tau( 208) = (   0.3000001   0.7505553   0.6114777  )
       209           N   tau( 209) = (   0.3000001   0.7505553   0.9374535  )
       210           N   tau( 210) = (   0.9000001   0.0577350   0.2855019  )
       211           N   tau( 211) = (   0.9000001   0.0577350   0.6114777  )
       212           N   tau( 212) = (   0.9000001   0.0577350   0.9374535  )
       213           N   tau( 213) = (   0.8000001   0.2309401   0.2855019  )
       214           N   tau( 214) = (   0.8000001   0.2309401   0.6114777  )
       215           N   tau( 215) = (   0.8000001   0.2309401   0.9374535  )
       216           N   tau( 216) = (   0.7000001   0.4041451   0.2855019  )
       217           N   tau( 217) = (   0.7000001   0.4041451   0.6114777  )
       218           N   tau( 218) = (   0.7000001   0.4041451   0.9374535  )
       219           N   tau( 219) = (   0.6000001   0.5773502   0.2855019  )
       220           N   tau( 220) = (   0.6000001   0.5773502   0.6114777  )
       221           N   tau( 221) = (   0.6000001   0.5773502   0.9374535  )
       222           N   tau( 222) = (   0.5000001   0.7505553   0.2855019  )
       223           N   tau( 223) = (   0.5000001   0.7505553   0.6114777  )
       224           N   tau( 224) = (   0.5000001   0.7505553   0.9374535  )
       225           N   tau( 225) = (  -0.0000001   0.1154701   0.1225140  )
       226           N   tau( 226) = (  -0.0000001   0.1154701   0.4484898  )
       227           N   tau( 227) = (  -0.0000001   0.1154701   0.7744656  )
       228           N   tau( 228) = (  -0.1000001   0.2886752   0.1225140  )
       229           N   tau( 229) = (  -0.1000001   0.2886752   0.4484898  )
       230           N   tau( 230) = (  -0.1000001   0.2886752   0.7744656  )
       231           N   tau( 231) = (  -0.2000001   0.4618803   0.1225140  )
       232           N   tau( 232) = (  -0.2000001   0.4618803   0.4484898  )
       233           N   tau( 233) = (  -0.2000001   0.4618803   0.7744656  )
       234           N   tau( 234) = (  -0.3000001   0.6350854   0.1225140  )
       235           N   tau( 235) = (  -0.3000001   0.6350854   0.4484898  )
       236           N   tau( 236) = (  -0.3000001   0.6350854   0.7744656  )
       237           N   tau( 237) = (  -0.4000001   0.8082905   0.1225140  )
       238           N   tau( 238) = (  -0.4000001   0.8082905   0.4484898  )
       239           N   tau( 239) = (  -0.4000001   0.8082905   0.7744656  )
       240           N   tau( 240) = (   0.1999999   0.1154701   0.1225140  )
       241           N   tau( 241) = (   0.1999999   0.1154701   0.4484898  )
       242           N   tau( 242) = (   0.1999999   0.1154701   0.7744656  )
       243           N   tau( 243) = (   0.0999999   0.2886752   0.1225140  )
       244           N   tau( 244) = (   0.0999999   0.2886752   0.4484898  )
       245           N   tau( 245) = (   0.0999999   0.2886752   0.7744656  )
       246           N   tau( 246) = (  -0.0000001   0.4618803   0.1225140  )
       247           N   tau( 247) = (  -0.0000001   0.4618803   0.4484898  )
       248           N   tau( 248) = (  -0.0000001   0.4618803   0.7744656  )
       249           N   tau( 249) = (  -0.1000001   0.6350854   0.1225140  )
       250           N   tau( 250) = (  -0.1000001   0.6350854   0.4484898  )
       251           N   tau( 251) = (  -0.1000001   0.6350854   0.7744656  )
       252           N   tau( 252) = (  -0.2000001   0.8082905   0.1225140  )
       253           N   tau( 253) = (  -0.2000001   0.8082905   0.4484898  )
       254           N   tau( 254) = (  -0.2000001   0.8082905   0.7744656  )
       255           N   tau( 255) = (   0.3999999   0.1154701   0.1225140  )
       256           N   tau( 256) = (   0.3999999   0.1154701   0.4484898  )
       257           N   tau( 257) = (   0.3999999   0.1154701   0.7744656  )
       258           N   tau( 258) = (   0.2999999   0.2886752   0.1225140  )
       259           N   tau( 259) = (   0.2999999   0.2886752   0.4484898  )
       260           N   tau( 260) = (   0.2999999   0.2886752   0.7744656  )
       261           N   tau( 261) = (   0.1999999   0.4618803   0.1225140  )
       262           N   tau( 262) = (   0.1999999   0.4618803   0.4484898  )
       263           N   tau( 263) = (   0.1999999   0.4618803   0.7744656  )
       264           N   tau( 264) = (   0.0999999   0.6350854   0.1225140  )
       265           N   tau( 265) = (   0.0999999   0.6350854   0.4484898  )
       266           N   tau( 266) = (   0.0999999   0.6350854   0.7744656  )
       267           N   tau( 267) = (  -0.0000001   0.8082905   0.1225140  )
       268           N   tau( 268) = (  -0.0000001   0.8082905   0.4484898  )
       269           N   tau( 269) = (  -0.0000001   0.8082905   0.7744656  )
       270           N   tau( 270) = (   0.5999999   0.1154701   0.1225140  )
       271           N   tau( 271) = (   0.5999999   0.1154701   0.4484898  )
       272           N   tau( 272) = (   0.5999999   0.1154701   0.7744656  )
       273           N   tau( 273) = (   0.4999999   0.2886752   0.1225140  )
       274           N   tau( 274) = (   0.4999999   0.2886752   0.4484898  )
       275           N   tau( 275) = (   0.4999999   0.2886752   0.7744656  )
       276           N   tau( 276) = (   0.3999999   0.4618803   0.1225140  )
       277           N   tau( 277) = (   0.3999999   0.4618803   0.4484898  )
       278           N   tau( 278) = (   0.3999999   0.4618803   0.7744656  )
       279           N   tau( 279) = (   0.2999999   0.6350854   0.1225140  )
       280           N   tau( 280) = (   0.2999999   0.6350854   0.4484898  )
       281           N   tau( 281) = (   0.2999999   0.6350854   0.7744656  )
       282           N   tau( 282) = (   0.1999999   0.8082905   0.1225140  )
       283           N   tau( 283) = (   0.1999999   0.8082905   0.4484898  )
       284           N   tau( 284) = (   0.1999999   0.8082905   0.7744656  )
       285           N   tau( 285) = (   0.7999999   0.1154701   0.1225140  )
       286           N   tau( 286) = (   0.7999999   0.1154701   0.4484898  )
       287           N   tau( 287) = (   0.7999999   0.1154701   0.7744656  )
       288           N   tau( 288) = (   0.6999999   0.2886752   0.1225140  )
       289           N   tau( 289) = (   0.6999999   0.2886752   0.4484898  )
       290           N   tau( 290) = (   0.6999999   0.2886752   0.7744656  )
       291           N   tau( 291) = (   0.5999999   0.4618803   0.1225140  )
       292           N   tau( 292) = (   0.5999999   0.4618803   0.4484898  )
       293           N   tau( 293) = (   0.5999999   0.4618803   0.7744656  )
       294           N   tau( 294) = (   0.4999999   0.6350854   0.1225140  )
       295           N   tau( 295) = (   0.4999999   0.6350854   0.4484898  )
       296           N   tau( 296) = (   0.4999999   0.6350854   0.7744656  )
       297           N   tau( 297) = (   0.3999999   0.8082905   0.1225140  )
       298           N   tau( 298) = (   0.3999999   0.8082905   0.4484898  )
       299           N   tau( 299) = (   0.3999999   0.8082905   0.7744656  )
       300           N   tau( 300) = (   0.1000001   0.0577350   0.1627148  )

   Crystallographic axes

     site n.     atom                  positions (cryst. coord.)
         1           Ga  tau(   1) = (  0.1333334  0.0666666  0.4997208  )
         2           Ga  tau(   2) = (  0.1333334  0.0666666  0.8330541  )
         3           Ga  tau(   3) = (  0.1333334  0.2666666  0.1663874  )
         4           Ga  tau(   4) = (  0.1333334  0.2666666  0.4997208  )
         5           Ga  tau(   5) = (  0.1333334  0.2666666  0.8330541  )
         6           Ga  tau(   6) = (  0.1333334  0.4666666  0.1663874  )
         7           Ga  tau(   7) = (  0.1333334  0.4666666  0.4997208  )
         8           Ga  tau(   8) = (  0.1333334  0.4666666  0.8330541  )
         9           Ga  tau(   9) = (  0.1333334  0.6666666  0.1663874  )
        10           Ga  tau(  10) = (  0.1333334  0.6666666  0.4997208  )
        11           Ga  tau(  11) = (  0.1333334  0.6666666  0.8330541  )
        12           Ga  tau(  12) = (  0.1333334  0.8666666  0.1663874  )
        13           Ga  tau(  13) = (  0.1333334  0.8666666  0.4997208  )
        14           Ga  tau(  14) = (  0.1333334  0.8666666  0.8330541  )
        15           Ga  tau(  15) = (  0.3333334  0.0666666  0.1663874  )
        16           Ga  tau(  16) = (  0.3333334  0.0666666  0.4997208  )
        17           Ga  tau(  17) = (  0.3333334  0.0666666  0.8330541  )
        18           Ga  tau(  18) = (  0.3333334  0.2666666  0.1663874  )
        19           Ga  tau(  19) = (  0.3333334  0.2666666  0.4997208  )
        20           Ga  tau(  20) = (  0.3333334  0.2666666  0.8330541  )
        21           Ga  tau(  21) = (  0.3333334  0.4666666  0.1663874  )
        22           Ga  tau(  22) = (  0.3333334  0.4666666  0.4997208  )
        23           Ga  tau(  23) = (  0.3333334  0.4666666  0.8330541  )
        24           Ga  tau(  24) = (  0.3333334  0.6666666  0.1663874  )
        25           Ga  tau(  25) = (  0.3333334  0.6666666  0.4997208  )
        26           Ga  tau(  26) = (  0.3333334  0.6666666  0.8330541  )
        27           Ga  tau(  27) = (  0.3333334  0.8666666  0.1663874  )
        28           Ga  tau(  28) = (  0.3333334  0.8666666  0.4997208  )
        29           Ga  tau(  29) = (  0.3333334  0.8666666  0.8330541  )
        30           Ga  tau(  30) = (  0.5333334  0.0666666  0.1663874  )
        31           Ga  tau(  31) = (  0.5333334  0.0666666  0.4997208  )
        32           Ga  tau(  32) = (  0.5333334  0.0666666  0.8330541  )
        33           Ga  tau(  33) = (  0.5333334  0.2666666  0.1663874  )
        34           Ga  tau(  34) = (  0.5333334  0.2666666  0.4997208  )
        35           Ga  tau(  35) = (  0.5333334  0.2666666  0.8330541  )
        36           Ga  tau(  36) = (  0.5333334  0.4666666  0.1663874  )
        37           Ga  tau(  37) = (  0.5333334  0.4666666  0.4997208  )
        38           Ga  tau(  38) = (  0.5333334  0.4666666  0.8330541  )
        39           Ga  tau(  39) = (  0.5333334  0.6666666  0.1663874  )
        40           Ga  tau(  40) = (  0.5333334  0.6666666  0.4997208  )
        41           Ga  tau(  41) = (  0.5333334  0.6666666  0.8330541  )
        42           Ga  tau(  42) = (  0.5333334  0.8666666  0.1663874  )
        43           Ga  tau(  43) = (  0.5333334  0.8666666  0.4997208  )
        44           Ga  tau(  44) = (  0.5333334  0.8666666  0.8330541  )
        45           Ga  tau(  45) = (  0.7333334  0.0666666  0.1663874  )
        46           Ga  tau(  46) = (  0.7333334  0.0666666  0.4997208  )
        47           Ga  tau(  47) = (  0.7333334  0.0666666  0.8330541  )
        48           Ga  tau(  48) = (  0.7333334  0.2666666  0.1663874  )
        49           Ga  tau(  49) = (  0.7333334  0.2666666  0.4997208  )
        50           Ga  tau(  50) = (  0.7333334  0.2666666  0.8330541  )
        51           Ga  tau(  51) = (  0.7333334  0.4666666  0.1663874  )
        52           Ga  tau(  52) = (  0.7333334  0.4666666  0.4997208  )
        53           Ga  tau(  53) = (  0.7333334  0.4666666  0.8330541  )
        54           Ga  tau(  54) = (  0.7333334  0.6666666  0.1663874  )
        55           Ga  tau(  55) = (  0.7333334  0.6666666  0.4997208  )
        56           Ga  tau(  56) = (  0.7333334  0.6666666  0.8330541  )
        57           Ga  tau(  57) = (  0.7333334  0.8666666  0.1663874  )
        58           Ga  tau(  58) = (  0.7333334  0.8666666  0.4997208  )
        59           Ga  tau(  59) = (  0.7333334  0.8666666  0.8330541  )
        60           Ga  tau(  60) = (  0.9333334  0.0666666  0.1663874  )
        61           Ga  tau(  61) = (  0.9333334  0.0666666  0.4997208  )
        62           Ga  tau(  62) = (  0.9333334  0.0666666  0.8330541  )
        63           Ga  tau(  63) = (  0.9333334  0.2666666  0.1663874  )
        64           Ga  tau(  64) = (  0.9333334  0.2666666  0.4997208  )
        65           Ga  tau(  65) = (  0.9333334  0.2666666  0.8330541  )
        66           Ga  tau(  66) = (  0.9333334  0.4666666  0.1663874  )
        67           Ga  tau(  67) = (  0.9333334  0.4666666  0.4997208  )
        68           Ga  tau(  68) = (  0.9333334  0.4666666  0.8330541  )
        69           Ga  tau(  69) = (  0.9333334  0.6666666  0.1663874  )
        70           Ga  tau(  70) = (  0.9333334  0.6666666  0.4997208  )
        71           Ga  tau(  71) = (  0.9333334  0.6666666  0.8330541  )
        72           Ga  tau(  72) = (  0.9333334  0.8666666  0.1663874  )
        73           Ga  tau(  73) = (  0.9333334  0.8666666  0.4997208  )
        74           Ga  tau(  74) = (  0.9333334  0.8666666  0.8330541  )
        75           Ga  tau(  75) = (  0.0666666  0.1333334  0.3330541  )
        76           Ga  tau(  76) = (  0.0666666  0.1333334  0.6663874  )
        77           Ga  tau(  77) = (  0.0666666  0.1333334  0.9997208  )
        78           Ga  tau(  78) = (  0.0666666  0.3333334  0.3330541  )
        79           Ga  tau(  79) = (  0.0666666  0.3333334  0.6663874  )
        80           Ga  tau(  80) = (  0.0666666  0.3333334  0.9997208  )
        81           Ga  tau(  81) = (  0.0666666  0.5333334  0.3330541  )
        82           Ga  tau(  82) = (  0.0666666  0.5333334  0.6663874  )
        83           Ga  tau(  83) = (  0.0666666  0.5333334  0.9997208  )
        84           Ga  tau(  84) = (  0.0666666  0.7333334  0.3330541  )
        85           Ga  tau(  85) = (  0.0666666  0.7333334  0.6663874  )
        86           Ga  tau(  86) = (  0.0666666  0.7333334  0.9997208  )
        87           Ga  tau(  87) = (  0.0666666  0.9333334  0.3330541  )
        88           Ga  tau(  88) = (  0.0666666  0.9333334  0.6663874  )
        89           Ga  tau(  89) = (  0.0666666  0.9333334  0.9997208  )
        90           Ga  tau(  90) = (  0.2666666  0.1333334  0.3330541  )
        91           Ga  tau(  91) = (  0.2666666  0.1333334  0.6663874  )
        92           Ga  tau(  92) = (  0.2666666  0.1333334  0.9997208  )
        93           Ga  tau(  93) = (  0.2666666  0.3333334  0.3330541  )
        94           Ga  tau(  94) = (  0.2666666  0.3333334  0.6663874  )
        95           Ga  tau(  95) = (  0.2666666  0.3333334  0.9997208  )
        96           Ga  tau(  96) = (  0.2666666  0.5333334  0.3330541  )
        97           Ga  tau(  97) = (  0.2666666  0.5333334  0.6663874  )
        98           Ga  tau(  98) = (  0.2666666  0.5333334  0.9997208  )
        99           Ga  tau(  99) = (  0.2666666  0.7333334  0.3330541  )
       100           Ga  tau( 100) = (  0.2666666  0.7333334  0.6663874  )
       101           Ga  tau( 101) = (  0.2666666  0.7333334  0.9997208  )
       102           Ga  tau( 102) = (  0.2666666  0.9333334  0.3330541  )
       103           Ga  tau( 103) = (  0.2666666  0.9333334  0.6663874  )
       104           Ga  tau( 104) = (  0.2666666  0.9333334  0.9997208  )
       105           Ga  tau( 105) = (  0.4666666  0.1333334  0.3330541  )
       106           Ga  tau( 106) = (  0.4666666  0.1333334  0.6663874  )
       107           Ga  tau( 107) = (  0.4666666  0.1333334  0.9997208  )
       108           Ga  tau( 108) = (  0.4666666  0.3333334  0.3330541  )
       109           Ga  tau( 109) = (  0.4666666  0.3333334  0.6663874  )
       110           Ga  tau( 110) = (  0.4666666  0.3333334  0.9997208  )
       111           Ga  tau( 111) = (  0.4666666  0.5333334  0.3330541  )
       112           Ga  tau( 112) = (  0.4666666  0.5333334  0.6663874  )
       113           Ga  tau( 113) = (  0.4666666  0.5333334  0.9997208  )
       114           Ga  tau( 114) = (  0.4666666  0.7333334  0.3330541  )
       115           Ga  tau( 115) = (  0.4666666  0.7333334  0.6663874  )
       116           Ga  tau( 116) = (  0.4666666  0.7333334  0.9997208  )
       117           Ga  tau( 117) = (  0.4666666  0.9333334  0.3330541  )
       118           Ga  tau( 118) = (  0.4666666  0.9333334  0.6663874  )
       119           Ga  tau( 119) = (  0.4666666  0.9333334  0.9997208  )
       120           Ga  tau( 120) = (  0.6666666  0.1333334  0.3330541  )
       121           Ga  tau( 121) = (  0.6666666  0.1333334  0.6663874  )
       122           Ga  tau( 122) = (  0.6666666  0.1333334  0.9997208  )
       123           Ga  tau( 123) = (  0.6666666  0.3333334  0.3330541  )
       124           Ga  tau( 124) = (  0.6666666  0.3333334  0.6663874  )
       125           Ga  tau( 125) = (  0.6666666  0.3333334  0.9997208  )
       126           Ga  tau( 126) = (  0.6666666  0.5333334  0.3330541  )
       127           Ga  tau( 127) = (  0.6666666  0.5333334  0.6663874  )
       128           Ga  tau( 128) = (  0.6666666  0.5333334  0.9997208  )
       129           Ga  tau( 129) = (  0.6666666  0.7333334  0.3330541  )
       130           Ga  tau( 130) = (  0.6666666  0.7333334  0.6663874  )
       131           Ga  tau( 131) = (  0.6666666  0.7333334  0.9997208  )
       132           Ga  tau( 132) = (  0.6666666  0.9333334  0.3330541  )
       133           Ga  tau( 133) = (  0.6666666  0.9333334  0.6663874  )
       134           Ga  tau( 134) = (  0.6666666  0.9333334  0.9997208  )
       135           Ga  tau( 135) = (  0.8666666  0.1333334  0.3330541  )
       136           Ga  tau( 136) = (  0.8666666  0.1333334  0.6663874  )
       137           Ga  tau( 137) = (  0.8666666  0.1333334  0.9997208  )
       138           Ga  tau( 138) = (  0.8666666  0.3333334  0.3330541  )
       139           Ga  tau( 139) = (  0.8666666  0.3333334  0.6663874  )
       140           Ga  tau( 140) = (  0.8666666  0.3333334  0.9997208  )
       141           Ga  tau( 141) = (  0.8666666  0.5333334  0.3330541  )
       142           Ga  tau( 142) = (  0.8666666  0.5333334  0.6663874  )
       143           Ga  tau( 143) = (  0.8666666  0.5333334  0.9997208  )
       144           Ga  tau( 144) = (  0.8666666  0.7333334  0.3330541  )
       145           Ga  tau( 145) = (  0.8666666  0.7333334  0.6663874  )
       146           Ga  tau( 146) = (  0.8666666  0.7333334  0.9997208  )
       147           Ga  tau( 147) = (  0.8666666  0.9333334  0.3330541  )
       148           Ga  tau( 148) = (  0.8666666  0.9333334  0.6663874  )
       149           Ga  tau( 149) = (  0.8666666  0.9333334  0.9997208  )
       150           N   tau( 150) = (  0.1333334  0.0666666  0.2919459  )
       151           N   tau( 151) = (  0.1333334  0.0666666  0.6252792  )
       152           N   tau( 152) = (  0.1333334  0.0666666  0.9586126  )
       153           N   tau( 153) = (  0.1333334  0.2666666  0.2919459  )
       154           N   tau( 154) = (  0.1333334  0.2666666  0.6252792  )
       155           N   tau( 155) = (  0.1333334  0.2666666  0.9586126  )
       156           N   tau( 156) = (  0.1333334  0.4666666  0.2919459  )
       157           N   tau( 157) = (  0.1333334  0.4666666  0.6252792  )
       158           N   tau( 158) = (  0.1333334  0.4666666  0.9586126  )
       159           N   tau( 159) = (  0.1333334  0.6666666  0.2919459  )
       160           N   tau( 160) = (  0.1333334  0.6666666  0.6252792  )
       161           N   tau( 161) = (  0.1333334  0.6666666  0.9586126  )
       162           N   tau( 162) = (  0.1333334  0.8666666  0.2919459  )
       163           N   tau( 163) = (  0.1333334  0.8666666  0.6252792  )
       164           N   tau( 164) = (  0.1333334  0.8666666  0.9586126  )
       165           N   tau( 165) = (  0.3333334  0.0666666  0.2919459  )
       166           N   tau( 166) = (  0.3333334  0.0666666  0.6252792  )
       167           N   tau( 167) = (  0.3333334  0.0666666  0.9586126  )
       168           N   tau( 168) = (  0.3333334  0.2666666  0.2919459  )
       169           N   tau( 169) = (  0.3333334  0.2666666  0.6252792  )
       170           N   tau( 170) = (  0.3333334  0.2666666  0.9586126  )
       171           N   tau( 171) = (  0.3333334  0.4666666  0.2919459  )
       172           N   tau( 172) = (  0.3333334  0.4666666  0.6252792  )
       173           N   tau( 173) = (  0.3333334  0.4666666  0.9586126  )
       174           N   tau( 174) = (  0.3333334  0.6666666  0.2919459  )
       175           N   tau( 175) = (  0.3333334  0.6666666  0.6252792  )
       176           N   tau( 176) = (  0.3333334  0.6666666  0.9586126  )
       177           N   tau( 177) = (  0.3333334  0.8666666  0.2919459  )
       178           N   tau( 178) = (  0.3333334  0.8666666  0.6252792  )
       179           N   tau( 179) = (  0.3333334  0.8666666  0.9586126  )
       180           N   tau( 180) = (  0.5333334  0.0666666  0.2919459  )
       181           N   tau( 181) = (  0.5333334  0.0666666  0.6252792  )
       182           N   tau( 182) = (  0.5333334  0.0666666  0.9586126  )
       183           N   tau( 183) = (  0.5333334  0.2666666  0.2919459  )
       184           N   tau( 184) = (  0.5333334  0.2666666  0.6252792  )
       185           N   tau( 185) = (  0.5333334  0.2666666  0.9586126  )
       186           N   tau( 186) = (  0.5333334  0.4666666  0.2919459  )
       187           N   tau( 187) = (  0.5333334  0.4666666  0.6252792  )
       188           N   tau( 188) = (  0.5333334  0.4666666  0.9586126  )
       189           N   tau( 189) = (  0.5333334  0.6666666  0.2919459  )
       190           N   tau( 190) = (  0.5333334  0.6666666  0.6252792  )
       191           N   tau( 191) = (  0.5333334  0.6666666  0.9586126  )
       192           N   tau( 192) = (  0.5333334  0.8666666  0.2919459  )
       193           N   tau( 193) = (  0.5333334  0.8666666  0.6252792  )
       194           N   tau( 194) = (  0.5333334  0.8666666  0.9586126  )
       195           N   tau( 195) = (  0.7333334  0.0666666  0.2919459  )
       196           N   tau( 196) = (  0.7333334  0.0666666  0.6252792  )
       197           N   tau( 197) = (  0.7333334  0.0666666  0.9586126  )
       198           N   tau( 198) = (  0.7333334  0.2666666  0.2919459  )
       199           N   tau( 199) = (  0.7333334  0.2666666  0.6252792  )
       200           N   tau( 200) = (  0.7333334  0.2666666  0.9586126  )
       201           N   tau( 201) = (  0.7333334  0.4666666  0.2919459  )
       202           N   tau( 202) = (  0.7333334  0.4666666  0.6252792  )
       203           N   tau( 203) = (  0.7333334  0.4666666  0.9586126  )
       204           N   tau( 204) = (  0.7333334  0.6666666  0.2919459  )
       205           N   tau( 205) = (  0.7333334  0.6666666  0.6252792  )
       206           N   tau( 206) = (  0.7333334  0.6666666  0.9586126  )
       207           N   tau( 207) = (  0.7333334  0.8666666  0.2919459  )
       208           N   tau( 208) = (  0.7333334  0.8666666  0.6252792  )
       209           N   tau( 209) = (  0.7333334  0.8666666  0.9586126  )
       210           N   tau( 210) = (  0.9333334  0.0666666  0.2919459  )
       211           N   tau( 211) = (  0.9333334  0.0666666  0.6252792  )
       212           N   tau( 212) = (  0.9333334  0.0666666  0.9586126  )
       213           N   tau( 213) = (  0.9333334  0.2666666  0.2919459  )
       214           N   tau( 214) = (  0.9333334  0.2666666  0.6252792  )
       215           N   tau( 215) = (  0.9333334  0.2666666  0.9586126  )
       216           N   tau( 216) = (  0.9333334  0.4666666  0.2919459  )
       217           N   tau( 217) = (  0.9333334  0.4666666  0.6252792  )
       218           N   tau( 218) = (  0.9333334  0.4666666  0.9586126  )
       219           N   tau( 219) = (  0.9333334  0.6666666  0.2919459  )
       220           N   tau( 220) = (  0.9333334  0.6666666  0.6252792  )
       221           N   tau( 221) = (  0.9333334  0.6666666  0.9586126  )
       222           N   tau( 222) = (  0.9333334  0.8666666  0.2919459  )
       223           N   tau( 223) = (  0.9333334  0.8666666  0.6252792  )
       224           N   tau( 224) = (  0.9333334  0.8666666  0.9586126  )
       225           N   tau( 225) = (  0.0666666  0.1333334  0.1252792  )
       226           N   tau( 226) = (  0.0666666  0.1333334  0.4586126  )
       227           N   tau( 227) = (  0.0666666  0.1333334  0.7919459  )
       228           N   tau( 228) = (  0.0666666  0.3333334  0.1252792  )
       229           N   tau( 229) = (  0.0666666  0.3333334  0.4586126  )
       230           N   tau( 230) = (  0.0666666  0.3333334  0.7919459  )
       231           N   tau( 231) = (  0.0666666  0.5333334  0.1252792  )
       232           N   tau( 232) = (  0.0666666  0.5333334  0.4586126  )
       233           N   tau( 233) = (  0.0666666  0.5333334  0.7919459  )
       234           N   tau( 234) = (  0.0666666  0.7333334  0.1252792  )
       235           N   tau( 235) = (  0.0666666  0.7333334  0.4586126  )
       236           N   tau( 236) = (  0.0666666  0.7333334  0.7919459  )
       237           N   tau( 237) = (  0.0666666  0.9333334  0.1252792  )
       238           N   tau( 238) = (  0.0666666  0.9333334  0.4586126  )
       239           N   tau( 239) = (  0.0666666  0.9333334  0.7919459  )
       240           N   tau( 240) = (  0.2666666  0.1333334  0.1252792  )
       241           N   tau( 241) = (  0.2666666  0.1333334  0.4586126  )
       242           N   tau( 242) = (  0.2666666  0.1333334  0.7919459  )
       243           N   tau( 243) = (  0.2666666  0.3333334  0.1252792  )
       244           N   tau( 244) = (  0.2666666  0.3333334  0.4586126  )
       245           N   tau( 245) = (  0.2666666  0.3333334  0.7919459  )
       246           N   tau( 246) = (  0.2666666  0.5333334  0.1252792  )
       247           N   tau( 247) = (  0.2666666  0.5333334  0.4586126  )
       248           N   tau( 248) = (  0.2666666  0.5333334  0.7919459  )
       249           N   tau( 249) = (  0.2666666  0.7333334  0.1252792  )
       250           N   tau( 250) = (  0.2666666  0.7333334  0.4586126  )
       251           N   tau( 251) = (  0.2666666  0.7333334  0.7919459  )
       252           N   tau( 252) = (  0.2666666  0.9333334  0.1252792  )
       253           N   tau( 253) = (  0.2666666  0.9333334  0.4586126  )
       254           N   tau( 254) = (  0.2666666  0.9333334  0.7919459  )
       255           N   tau( 255) = (  0.4666666  0.1333334  0.1252792  )
       256           N   tau( 256) = (  0.4666666  0.1333334  0.4586126  )
       257           N   tau( 257) = (  0.4666666  0.1333334  0.7919459  )
       258           N   tau( 258) = (  0.4666666  0.3333334  0.1252792  )
       259           N   tau( 259) = (  0.4666666  0.3333334  0.4586126  )
       260           N   tau( 260) = (  0.4666666  0.3333334  0.7919459  )
       261           N   tau( 261) = (  0.4666666  0.5333334  0.1252792  )
       262           N   tau( 262) = (  0.4666666  0.5333334  0.4586126  )
       263           N   tau( 263) = (  0.4666666  0.5333334  0.7919459  )
       264           N   tau( 264) = (  0.4666666  0.7333334  0.1252792  )
       265           N   tau( 265) = (  0.4666666  0.7333334  0.4586126  )
       266           N   tau( 266) = (  0.4666666  0.7333334  0.7919459  )
       267           N   tau( 267) = (  0.4666666  0.9333334  0.1252792  )
       268           N   tau( 268) = (  0.4666666  0.9333334  0.4586126  )
       269           N   tau( 269) = (  0.4666666  0.9333334  0.7919459  )
       270           N   tau( 270) = (  0.6666666  0.1333334  0.1252792  )
       271           N   tau( 271) = (  0.6666666  0.1333334  0.4586126  )
       272           N   tau( 272) = (  0.6666666  0.1333334  0.7919459  )
       273           N   tau( 273) = (  0.6666666  0.3333334  0.1252792  )
       274           N   tau( 274) = (  0.6666666  0.3333334  0.4586126  )
       275           N   tau( 275) = (  0.6666666  0.3333334  0.7919459  )
       276           N   tau( 276) = (  0.6666666  0.5333334  0.1252792  )
       277           N   tau( 277) = (  0.6666666  0.5333334  0.4586126  )
       278           N   tau( 278) = (  0.6666666  0.5333334  0.7919459  )
       279           N   tau( 279) = (  0.6666666  0.7333334  0.1252792  )
       280           N   tau( 280) = (  0.6666666  0.7333334  0.4586126  )
       281           N   tau( 281) = (  0.6666666  0.7333334  0.7919459  )
       282           N   tau( 282) = (  0.6666666  0.9333334  0.1252792  )
       283           N   tau( 283) = (  0.6666666  0.9333334  0.4586126  )
       284           N   tau( 284) = (  0.6666666  0.9333334  0.7919459  )
       285           N   tau( 285) = (  0.8666666  0.1333334  0.1252792  )
       286           N   tau( 286) = (  0.8666666  0.1333334  0.4586126  )
       287           N   tau( 287) = (  0.8666666  0.1333334  0.7919459  )
       288           N   tau( 288) = (  0.8666666  0.3333334  0.1252792  )
       289           N   tau( 289) = (  0.8666666  0.3333334  0.4586126  )
       290           N   tau( 290) = (  0.8666666  0.3333334  0.7919459  )
       291           N   tau( 291) = (  0.8666666  0.5333334  0.1252792  )
       292           N   tau( 292) = (  0.8666666  0.5333334  0.4586126  )
       293           N   tau( 293) = (  0.8666666  0.5333334  0.7919459  )
       294           N   tau( 294) = (  0.8666666  0.7333334  0.1252792  )
       295           N   tau( 295) = (  0.8666666  0.7333334  0.4586126  )
       296           N   tau( 296) = (  0.8666666  0.7333334  0.7919459  )
       297           N   tau( 297) = (  0.8666666  0.9333334  0.1252792  )
       298           N   tau( 298) = (  0.8666666  0.9333334  0.4586126  )
       299           N   tau( 299) = (  0.8666666  0.9333334  0.7919459  )
       300           N   tau( 300) = (  0.1333334  0.0666666  0.1663874  )

     number of k points=     6  Gaussian smearing, width (Ry)=  0.0100
                       cart. coord. in units 2pi/alat
        k(    1) = (   0.0000000   0.0000000   0.0000000), wk =   0.2500000
        k(    2) = (   0.0000000   0.0000000  -0.5112854), wk =   0.2500000
        k(    3) = (   0.0000000  -0.5773503   0.0000000), wk =   0.5000000
        k(    4) = (   0.0000000  -0.5773503  -0.5112854), wk =   0.5000000
        k(    5) = (  -0.5000000  -0.2886751   0.0000000), wk =   0.2500000
        k(    6) = (  -0.5000000  -0.2886751  -0.5112854), wk =   0.2500000

                       cryst. coord.
        k(    1) = (   0.0000000   0.0000000   0.0000000), wk =   0.2500000
        k(    2) = (   0.0000000   0.0000000  -0.5000000), wk =   0.2500000
        k(    3) = (   0.0000000  -0.5000000   0.0000000), wk =   0.5000000
        k(    4) = (   0.0000000  -0.5000000  -0.5000000), wk =   0.5000000
        k(    5) = (  -0.5000000  -0.0000000   0.0000000), wk =   0.2500000
        k(    6) = (  -0.5000000  -0.0000000  -0.5000000), wk =   0.2500000

     Dense  grid:  2698283 G-vectors     FFT dimensions: ( 192, 192, 180)

     Smooth grid:  1930731 G-vectors     FFT dimensions: ( 180, 180, 160)

     Dynamical RAM for                 wfc:      99.11 MB

     Dynamical RAM for     wfc (w. buffer):     297.34 MB

     Dynamical RAM for           str. fact:       1.37 MB

     Dynamical RAM for           local pot:       0.00 MB

     Dynamical RAM for          nlocal pot:     238.73 MB

     Dynamical RAM for                qrad:       3.00 MB

     Dynamical RAM for          rho,v,vnew:       4.59 MB

     Dynamical RAM for               rhoin:       1.53 MB

     Dynamical RAM for            rho*nmix:      10.98 MB

     Dynamical RAM for           G-vectors:       2.82 MB

     Dynamical RAM for          h,s,v(r/c):    1910.32 MB

     Dynamical RAM for          <psi|beta>:      95.86 MB

     Dynamical RAM for                 psi:     396.46 MB

     Dynamical RAM for                hpsi:     396.46 MB

     Dynamical RAM for                spsi:     396.46 MB

     Dynamical RAM for      wfcinit/wfcrot:     257.94 MB

     Dynamical RAM for           addusdens:      77.54 MB

     Dynamical RAM for          addusforce:     146.63 MB

     Dynamical RAM for         addusstress:      46.20 MB

     Estimated static dynamical RAM per process >     555.67 MB

     Estimated max dynamical RAM per process >       3.67 GB

     Estimated total dynamical RAM >     660.04 GB

     Atomic positions and unit cell read from directory:
     ./GaN.save/
     Atomic positions from file used, from input discarded
 

     Check: negative core charge=   -0.000003

     The initial density is read from file :
     ./GaN.save/charge-density



     %%%%%%%%%%%%%%%%%%%%%%%%%%%%%%%%%%%%%%%%%%%%%%%%%%%%%%%%%%%%%%%%%%%%%%%%
     %                                                                      %
     % You are using vdW-DF, which was implemented by the Thonhauser group. %
     % Please cite the following two papers that made this development      %
     % possible and the two reviews that describe the various versions:     %
     %                                                                      %
     %   T. Thonhauser et al., PRL 115, 136402 (2015).                      %
     %   T. Thonhauser et al., PRB 76, 125112 (2007).                       %
     %   K. Berland et al., Rep. Prog. Phys. 78, 066501 (2015).             %
     %   D.C. Langreth et al., J. Phys.: Condens. Matter 21, 084203 (2009). %
     %                                                                      %
     % If you are calculating stress with vdW-DF, please also cite:         %
     %                                                                      %
     %   R. Sabatini et al., J. Phys.: Condens. Matter 24, 424209 (2012).   %
     %                                                                      %
     %%%%%%%%%%%%%%%%%%%%%%%%%%%%%%%%%%%%%%%%%%%%%%%%%%%%%%%%%%%%%%%%%%%%%%%%

     %%%%%%%%%%%%%%%%%%%%%%%%%%%%%%%%%%%%%%%%%%%%%%%%%%%%%%%%%%%%%%%%%%%%%%%%
     %                                                                      %
     %  vdW-DF NEWS:                                                        %
     %                                                                      %
     %  * vdW-DF3 is now available. DOI: 10.1021/acs.jctc.0c00471           %
     %    use with input_dft = 'vdW-DF3-opt1' or 'vdW-DF3-opt2'             %
     %                                                                      %
     %  * Unscreened and range-separated vdW-DF hybrid functionals          %
     %    DOI: 10.1063/1.4986522 and 10.1088/1361-648X/ac2ad2               %
     %    use with input_dft = 'vdW-DF-cx0' (etc) and 'vdW-DF-ahcx'         %
     %                                                                      %
     %%%%%%%%%%%%%%%%%%%%%%%%%%%%%%%%%%%%%%%%%%%%%%%%%%%%%%%%%%%%%%%%%%%%%%%%


     Carrying out vdW-DF run using the following parameters:
     Nqs    =  20  Npoints =  1024  r_max =  100.000
     q_mesh =  0.00001000  0.04494208  0.09755937  0.15916263
               0.23128650  0.31572767  0.41458969  0.53033537
               0.66584808  0.82450364  1.01025438  1.22772762
               1.48234092  1.78043706  2.12944203  2.53805004
               3.01644009  3.57652955  4.23227104  5.00000000


     -----------------------------------------------
     Non-local corr. energy    =      81.33678646 Ry
     -----------------------------------------------

     Cannot read wfcs: file not found
     Starting wfcs are 1945 randomized atomic wfcs
     Checking if some PAW data can be deallocated... 
       PAW data deallocated on  105 nodes for type:  1
       PAW data deallocated on   74 nodes for type:  2

     total cpu time spent up to now is      130.9 secs

     Self-consistent Calculation

     iteration #  1     ecut=    70.00 Ry     beta= 0.70
     Davidson diagonalization with overlap

---- Real-time Memory Report at c_bands before calling an iterative solver
          1278 MiB given to the printing process from OS
             0 MiB allocation reported by mallinfo(arena+hblkhd)
       1963724 MiB available memory on the node where the printing process lives
------------------
     ethr =  1.00E-05,  avg # of iterations = 27.7


     -----------------------------------------------
     Non-local corr. energy    =      81.31930170 Ry
     -----------------------------------------------


     total cpu time spent up to now is     3949.4 secs

     total energy              =  -46589.17359313 Ry
     estimated scf accuracy    <       0.39533739 Ry

     iteration #  2     ecut=    70.00 Ry     beta= 0.70
     Davidson diagonalization with overlap

---- Real-time Memory Report at c_bands before calling an iterative solver
          3711 MiB given to the printing process from OS
             0 MiB allocation reported by mallinfo(arena+hblkhd)
       1967052 MiB available memory on the node where the printing process lives
------------------
     ethr =  1.47E-05,  avg # of iterations = 13.8


     -----------------------------------------------
     Non-local corr. energy    =      81.31666374 Ry
     -----------------------------------------------


     total cpu time spent up to now is     6229.9 secs

     total energy              =  -46589.08763929 Ry
     estimated scf accuracy    <       0.64285843 Ry

     iteration #  3     ecut=    70.00 Ry     beta= 0.70
     Davidson diagonalization with overlap

---- Real-time Memory Report at c_bands before calling an iterative solver
          3711 MiB given to the printing process from OS
             0 MiB allocation reported by mallinfo(arena+hblkhd)
       1950751 MiB available memory on the node where the printing process lives
------------------
     ethr =  1.47E-05,  avg # of iterations = 11.8


     -----------------------------------------------
     Non-local corr. energy    =      81.31761775 Ry
     -----------------------------------------------


     total cpu time spent up to now is     8293.3 secs

     total energy              =  -46589.17300668 Ry
     estimated scf accuracy    <       0.65573052 Ry

     iteration #  4     ecut=    70.00 Ry     beta= 0.70
     Davidson diagonalization with overlap

---- Real-time Memory Report at c_bands before calling an iterative solver
          3711 MiB given to the printing process from OS
             0 MiB allocation reported by mallinfo(arena+hblkhd)
       1953413 MiB available memory on the node where the printing process lives
------------------
     ethr =  1.47E-05,  avg # of iterations = 14.5


     -----------------------------------------------
     Non-local corr. energy    =      81.32187527 Ry
     -----------------------------------------------


     total cpu time spent up to now is    10179.8 secs

     total energy              =  -46589.27339500 Ry
     estimated scf accuracy    <       0.09989937 Ry

     iteration #  5     ecut=    70.00 Ry     beta= 0.70
     Davidson diagonalization with overlap

---- Real-time Memory Report at c_bands before calling an iterative solver
          3711 MiB given to the printing process from OS
             0 MiB allocation reported by mallinfo(arena+hblkhd)
       1949080 MiB available memory on the node where the printing process lives
------------------
     ethr =  3.71E-06,  avg # of iterations = 15.2


     -----------------------------------------------
     Non-local corr. energy    =      81.32472332 Ry
     -----------------------------------------------


     total cpu time spent up to now is    12184.1 secs

     total energy              =  -46589.28373173 Ry
     estimated scf accuracy    <       0.02443586 Ry

     iteration #  6     ecut=    70.00 Ry     beta= 0.70
     Davidson diagonalization with overlap

---- Real-time Memory Report at c_bands before calling an iterative solver
          3711 MiB given to the printing process from OS
             0 MiB allocation reported by mallinfo(arena+hblkhd)
       1952447 MiB available memory on the node where the printing process lives
------------------
     ethr =  9.08E-07,  avg # of iterations = 16.5


     -----------------------------------------------
     Non-local corr. energy    =      81.33005505 Ry
     -----------------------------------------------


     total cpu time spent up to now is    14183.3 secs

     total energy              =  -46589.28668388 Ry
     estimated scf accuracy    <       0.01081002 Ry

     iteration #  7     ecut=    70.00 Ry     beta= 0.70
     Davidson diagonalization with overlap

---- Real-time Memory Report at c_bands before calling an iterative solver
          3711 MiB given to the printing process from OS
             0 MiB allocation reported by mallinfo(arena+hblkhd)
       1947428 MiB available memory on the node where the printing process lives
------------------
     ethr =  4.02E-07,  avg # of iterations = 16.5


     -----------------------------------------------
     Non-local corr. energy    =      81.33527655 Ry
     -----------------------------------------------


     total cpu time spent up to now is    16033.0 secs

     total energy              =  -46589.28765244 Ry
     estimated scf accuracy    <       0.00261844 Ry

     iteration #  8     ecut=    70.00 Ry     beta= 0.70
     Davidson diagonalization with overlap

---- Real-time Memory Report at c_bands before calling an iterative solver
          3711 MiB given to the printing process from OS
             0 MiB allocation reported by mallinfo(arena+hblkhd)
       1949029 MiB available memory on the node where the printing process lives
------------------
     c_bands:  1 eigenvalues not converged
     ethr =  9.73E-08,  avg # of iterations = 19.7


     -----------------------------------------------
     Non-local corr. energy    =      81.33643989 Ry
     -----------------------------------------------


     total cpu time spent up to now is    19219.3 secs

     total energy              =  -46589.28795694 Ry
     estimated scf accuracy    <       0.00146303 Ry

     iteration #  9     ecut=    70.00 Ry     beta= 0.70
     Davidson diagonalization with overlap

---- Real-time Memory Report at c_bands before calling an iterative solver
          3711 MiB given to the printing process from OS
             0 MiB allocation reported by mallinfo(arena+hblkhd)
       1947716 MiB available memory on the node where the printing process lives
------------------
     ethr =  5.44E-08,  avg # of iterations = 18.7


     -----------------------------------------------
     Non-local corr. energy    =      81.33662374 Ry
     -----------------------------------------------


     total cpu time spent up to now is    21944.8 secs

     total energy              =  -46589.28813115 Ry
     estimated scf accuracy    <       0.00042738 Ry

     iteration # 10     ecut=    70.00 Ry     beta= 0.70
     Davidson diagonalization with overlap

---- Real-time Memory Report at c_bands before calling an iterative solver
          3711 MiB given to the printing process from OS
             0 MiB allocation reported by mallinfo(arena+hblkhd)
       1950445 MiB available memory on the node where the printing process lives
------------------
     ethr =  1.59E-08,  avg # of iterations = 16.7


     -----------------------------------------------
     Non-local corr. energy    =      81.33669297 Ry
     -----------------------------------------------


     total cpu time spent up to now is    23992.6 secs

     total energy              =  -46589.28815247 Ry
     estimated scf accuracy    <       0.00012657 Ry

     iteration # 11     ecut=    70.00 Ry     beta= 0.70
     Davidson diagonalization with overlap

---- Real-time Memory Report at c_bands before calling an iterative solver
          3711 MiB given to the printing process from OS
             0 MiB allocation reported by mallinfo(arena+hblkhd)
       1945566 MiB available memory on the node where the printing process lives
------------------
     ethr =  4.70E-09,  avg # of iterations = 18.3


     -----------------------------------------------
     Non-local corr. energy    =      81.33640901 Ry
     -----------------------------------------------


     total cpu time spent up to now is    25963.3 secs

     total energy              =  -46589.28814832 Ry
     estimated scf accuracy    <       0.00005477 Ry

     iteration # 12     ecut=    70.00 Ry     beta= 0.70
     Davidson diagonalization with overlap

---- Real-time Memory Report at c_bands before calling an iterative solver
          3711 MiB given to the printing process from OS
             0 MiB allocation reported by mallinfo(arena+hblkhd)
       1946694 MiB available memory on the node where the printing process lives
------------------
     ethr =  2.04E-09,  avg # of iterations = 18.2


     -----------------------------------------------
     Non-local corr. energy    =      81.33642698 Ry
     -----------------------------------------------


     total cpu time spent up to now is    28430.6 secs

     total energy              =  -46589.28815395 Ry
     estimated scf accuracy    <       0.00000547 Ry

     iteration # 13     ecut=    70.00 Ry     beta= 0.70
     Davidson diagonalization with overlap

---- Real-time Memory Report at c_bands before calling an iterative solver
          3711 MiB given to the printing process from OS
             0 MiB allocation reported by mallinfo(arena+hblkhd)
       1947485 MiB available memory on the node where the printing process lives
------------------
     c_bands:  4 eigenvalues not converged
     ethr =  2.03E-10,  avg # of iterations = 24.0


     -----------------------------------------------
     Non-local corr. energy    =      81.33650291 Ry
     -----------------------------------------------


     total cpu time spent up to now is    30843.3 secs

     total energy              =  -46589.28815747 Ry
     estimated scf accuracy    <       0.00000146 Ry

     iteration # 14     ecut=    70.00 Ry     beta= 0.70
     Davidson diagonalization with overlap

---- Real-time Memory Report at c_bands before calling an iterative solver
          3711 MiB given to the printing process from OS
             0 MiB allocation reported by mallinfo(arena+hblkhd)
       1946346 MiB available memory on the node where the printing process lives
------------------
     c_bands:  1 eigenvalues not converged
     ethr =  5.44E-11,  avg # of iterations = 18.5


     -----------------------------------------------
     Non-local corr. energy    =      81.33654110 Ry
     -----------------------------------------------


     total cpu time spent up to now is    33529.3 secs

     total energy              =  -46589.28815774 Ry
     estimated scf accuracy    <       0.00000018 Ry

     iteration # 15     ecut=    70.00 Ry     beta= 0.70
     Davidson diagonalization with overlap

---- Real-time Memory Report at c_bands before calling an iterative solver
          3711 MiB given to the printing process from OS
             0 MiB allocation reported by mallinfo(arena+hblkhd)
       1944388 MiB available memory on the node where the printing process lives
------------------
     c_bands:  1 eigenvalues not converged
     ethr =  6.60E-12,  avg # of iterations = 18.0


     -----------------------------------------------
     Non-local corr. energy    =      81.33662638 Ry
     -----------------------------------------------


     total cpu time spent up to now is    36345.1 secs

     End of self-consistent calculation

          k = 0.0000 0.0000 0.0000 (241213 PWs)   bands (ev):

   -11.0318  -6.8917  -6.7987  -6.7361  -6.7346  -6.7121  -6.6714  -6.6457
    -6.6456  -6.6423  -6.6263  -6.6131  -6.6124  -6.5882  -6.5712  -6.5684
    -6.5540  -6.5535  -6.5259  -6.5155  -6.5149  -6.5077  -6.5017  -6.5017
    -6.4968  -6.4964  -6.4951  -6.4911  -6.4906  -6.4903  -6.4891  -6.4888
    -6.4869  -6.4618  -6.4522  -6.4516  -6.4510  -6.4480  -6.4438  -6.4434
    -6.4360  -6.4313  -6.4307  -6.4293  -6.4292  -6.4274  -6.4216  -6.4197
    -6.4189  -6.4122  -6.4120  -6.4112  -6.4067  -6.4005  -6.4004  -6.3997
    -6.3991  -6.3964  -6.3956  -6.3929  -6.3927  -6.3921  -6.3905  -6.3901
    -6.3877  -6.3849  -6.3841  -6.3825  -6.3808  -6.3806  -6.3804  -6.3778
    -6.3763  -6.3748  -6.3743  -6.3727  -6.3726  -6.3715  -6.3677  -6.3671
    -6.3662  -6.3629  -6.3627  -6.3615  -6.3608  -6.3601  -6.3593  -6.3586
    -6.3578  -6.3563  -6.3547  -6.3543  -6.3523  -6.3519  -6.3515  -6.3501
    -6.3495  -6.3492  -6.3468  -6.3449  -6.3444  -6.3443  -6.3442  -6.3438
    -6.3434  -6.3417  -6.3408  -6.3379  -6.3376  -6.3370  -6.3358  -6.3355
    -6.3338  -6.3314  -6.3312  -6.3311  -6.3254  -6.3245  -6.3242  -6.3229
    -6.3226  -6.3190  -6.3184  -6.3181  -6.3160  -6.3158  -6.3152  -6.3149
    -6.3121  -6.3117  -6.3095  -6.3092  -6.3074  -6.3067  -6.3066  -6.3061
    -6.3057  -6.3047  -6.3043  -6.3041  -6.3027  -6.2994  -6.2970  -6.2967
    -6.2965  -6.2960  -6.2693  -6.2531  -6.2520  -5.9521  -5.6403  -5.5656
    -5.5651  -5.5600  -5.5568  -5.5540  -5.5533  -5.5208  -5.5205  -5.5119
    -5.5115  -5.5040  -5.5039  -5.5031  -5.4961  -5.4867  -5.4715  -5.4714
    -5.4504  -5.4484  -5.4480  -5.4440  -5.4412  -5.4410  -5.4339  -5.4194
    -5.4190  -5.4126  -5.4124  -5.4058  -5.3864  -5.3844  -5.3836  -5.3779
    -5.3775  -5.3767  -5.3677  -5.3675  -5.3625  -5.3279  -5.3270  -5.3266
    -5.3065  -5.3065  -5.2966  -5.2952  -5.2924  -5.2924  -5.2856  -5.2856
    -5.2816  -5.2809  -5.2809  -5.2789  -5.2783  -5.2776  -5.2776  -5.2713
    -5.2713  -5.2712  -5.2690  -5.2690  -5.2682  -5.2667  -5.2658  -5.2658
    -5.2626  -5.2615  -5.2615  -5.2591  -5.2590  -5.2578  -5.2578  -5.2562
    -5.2559  -5.2533  -5.2533  -5.2519  -5.2516  -5.2516  -5.2479  -5.2479
    -5.2459  -5.2453  -5.2453  -5.2420  -5.2399  -5.2398  -5.2396  -5.2396
    -5.2395  -5.2392  -5.2377  -5.2377  -5.2360  -5.2358  -5.2351  -5.2351
    -5.2348  -5.2348  -5.2334  -5.2317  -5.2317  -5.2312  -5.2291  -5.2279
    -5.2279  -5.2265  -5.2263  -5.2263  -5.2257  -5.2251  -5.2251  -5.2246
    -5.2217  -5.2217  -5.2217  -5.2214  -5.2213  -5.2203  -5.2196  -5.2195
    -5.2189  -5.2189  -5.2184  -5.2184  -5.2160  -5.2155  -5.2154  -5.2154
    -5.2137  -5.2122  -5.2121  -5.2121  -5.2115  -5.2115  -5.2109  -5.2105
    -5.2103  -5.2090  -5.2077  -5.2077  -5.2074  -5.2074  -5.2066  -5.2061
    -5.2061  -5.2060  -5.2056  -5.2033  -5.2033  -5.2030  -5.2019  -5.2018
    -5.2008  -5.2007  -5.2001  -5.1998  -5.1989  -5.1988  -5.1980  -5.1980
    -5.1973  -5.1969  -5.1963  -5.1962  -5.1958  -5.1957  -5.1949  -5.1948
    -5.1948  -5.1941  -5.1933  -5.1923  -5.1923  -5.1918  -5.1917  -5.1902
    -5.1902  -5.1895  -5.1895  -5.1880  -5.1878  -5.1877  -5.1851  -5.1850
    -5.1850  -5.1840  -5.1833  -5.1833  -5.1829  -5.1824  -5.1820  -5.1819
    -5.1819  -5.1814  -5.1810  -5.1808  -5.1808  -5.1794  -5.1769  -5.1767
    -5.1767  -5.1765  -5.1765  -5.1748  -5.1746  -5.1746  -5.1734  -5.1733
    -5.1727  -5.1723  -5.1723  -5.1713  -5.1713  -5.1688  -5.1688  -5.1686
    -5.1686  -5.1686  -5.1680  -5.1674  -5.1673  -5.1670  -5.1666  -5.1658
    -5.1658  -5.1657  -5.1641  -5.1641  -5.1636  -5.1624  -5.1621  -5.1620
    -5.1612  -5.1612  -5.1612  -5.1596  -5.1596  -5.1579  -5.1578  -5.1576
    -5.1576  -5.1576  -5.1565  -5.1554  -5.1549  -5.1549  -5.1546  -5.1532
    -5.1532  -5.1519  -5.1501  -5.1501  -5.1496  -5.1496  -5.1489  -5.1464
    -5.1463  -5.1462  -5.1461  -5.1448  -5.1441  -5.1441  -5.1422  -5.1422
    -5.1408  -5.1407  -5.1406  -5.1394  -5.1371  -5.1371  -5.1367  -5.1366
    -5.1365  -5.1360  -5.1358  -5.1344  -5.1337  -5.1327  -5.1322  -5.1321
    -5.1314  -5.1314  -5.1305  -5.1280  -5.1279  -5.1274  -5.1271  -5.1265
    -5.1264  -5.1255  -5.1255  -5.1250  -5.1241  -5.1234  -5.1233  -5.1221
    -5.1220  -5.1202  -5.1202  -5.1201  -5.1190  -5.1190  -5.1183  -5.1175
    -5.1171  -5.1171  -5.1166  -5.1150  -5.1149  -5.1146  -5.1136  -5.1135
    -5.1132  -5.1132  -5.1113  -5.1113  -5.1109  -5.1100  -5.1099  -5.1096
    -5.1086  -5.1083  -5.1082  -5.1079  -5.1062  -5.1061  -5.1056  -5.1054
    -5.1052  -5.1049  -5.1045  -5.1045  -5.1033  -5.1031  -5.1031  -5.1020
    -5.1020  -5.1018  -5.1003  -5.1002  -5.1002  -5.1002  -5.0995  -5.0994
    -5.0986  -5.0985  -5.0978  -5.0960  -5.0960  -5.0956  -5.0955  -5.0954
    -5.0933  -5.0929  -5.0929  -5.0918  -5.0916  -5.0915  -5.0911  -5.0903
    -5.0900  -5.0900  -5.0879  -5.0879  -5.0870  -5.0869  -5.0867  -5.0855
    -5.0848  -5.0847  -5.0838  -5.0829  -5.0828  -5.0828  -5.0811  -5.0811
    -5.0798  -5.0796  -5.0794  -5.0794  -5.0783  -5.0776  -5.0776  -5.0766
    -5.0766  -5.0765  -5.0765  -5.0755  -5.0754  -5.0754  -5.0750  -5.0750
    -5.0735  -5.0734  -5.0729  -5.0723  -5.0708  -5.0708  -5.0697  -5.0697
    -5.0693  -5.0690  -5.0689  -5.0683  -5.0683  -5.0679  -5.0672  -5.0672
    -5.0671  -5.0662  -5.0645  -5.0645  -5.0642  -5.0639  -5.0635  -5.0635
    -5.0609  -5.0605  -5.0605  -5.0605  -5.0604  -5.0589  -5.0588  -5.0587
    -5.0580  -5.0580  -5.0579  -5.0573  -5.0572  -5.0564  -5.0564  -5.0558
    -5.0553  -5.0541  -5.0540  -5.0538  -5.0531  -5.0530  -5.0518  -5.0518
    -5.0514  -5.0511  -5.0501  -5.0500  -5.0492  -5.0492  -5.0489  -5.0465
    -5.0465  -5.0459  -5.0459  -5.0455  -5.0451  -5.0442  -5.0442  -5.0423
    -5.0423  -5.0421  -5.0421  -5.0409  -5.0409  -5.0407  -5.0397  -5.0392
    -5.0391  -5.0391  -5.0388  -5.0388  -5.0371  -5.0371  -5.0369  -5.0340
    -5.0340  -5.0338  -5.0332  -5.0332  -5.0327  -5.0313  -5.0313  -5.0300
    -5.0296  -5.0296  -5.0295  -5.0290  -5.0290  -5.0280  -5.0270  -5.0270
    -5.0263  -5.0262  -5.0261  -5.0256  -5.0254  -5.0254  -5.0247  -5.0238
    -5.0238  -5.0228  -5.0227  -5.0227  -5.0219  -5.0214  -5.0214  -5.0210
    -5.0207  -5.0207  -5.0192  -5.0182  -5.0181  -5.0180  -5.0161  -5.0161
    -5.0140  -5.0140  -5.0123  -5.0107  -5.0106  -5.0104  -5.0097  -5.0096
    -5.0092  -5.0079  -5.0079  -5.0079  -5.0067  -5.0067  -5.0064  -5.0037
    -5.0037  -5.0022  -5.0021  -5.0018  -5.0016  -5.0015  -5.0015  -5.0006
    -4.9990  -4.9990  -4.9989  -4.9989  -4.9988  -4.9960  -4.9958  -4.9958
    -4.9943  -4.9943  -4.9938  -4.9936  -4.9933  -4.9930  -4.9930  -4.9906
    -4.9904  -4.9904  -4.9901  -4.9900  -4.9889  -4.9888  -4.9872  -4.9835
    -4.9835  -4.9823  -4.9816  -4.9816  -4.9804  -4.9801  -4.9800  -4.9795
    -4.9787  -4.9786  -4.9784  -4.9772  -4.9759  -4.9759  -4.9754  -4.9739
    -4.9734  -4.9734  -4.9729  -4.9702  -4.9702  -4.9687  -4.9661  -4.9661
    -4.9628  -4.9600  -4.9600  -4.9583  -4.9583  -4.9572  -4.9572  -4.9477
    -4.9417  -4.9416  -4.9411  -4.9315  -4.9309  -4.9265  -4.9264  -4.8861
    -4.8656  -4.8656  -4.8404  -4.8220  -4.8220  -4.7855  -4.7854  -4.7851
    -4.7813  -4.7813  -4.7760  -4.7718  -4.7717  -4.7699  -4.7209  -4.7205
    -4.6533  -4.3592  -4.3588  -4.3474  -4.3349  -4.2956  -4.2953  -4.2928
    -4.2613  -4.1173  -4.1169  -4.1030  -4.0997  -4.0995  -4.0982  -4.0953
    -4.0950  -4.0929  -4.0651  -4.0649  -4.0619  -4.0452  -4.0367  -4.0365
    -4.0164  -4.0049  -4.0049  -3.9702  -3.9701  -3.9625  -3.9624  -3.9516
    -3.9515  -3.9493  -3.9417  -3.9301  -3.9291  -3.9291  -3.8692  -3.8395
    -3.8304  -3.8302  -3.8273  -3.8272  -3.8207  -3.8205  -3.8198  -3.8084
    -3.7250  -3.7246  -3.5884  -3.5170  -3.4422  -3.4417  -3.4404  -3.4351
    -3.4256  -3.4256  -3.4130  -3.4098  -3.4097  -3.4056  -3.4048  -3.4045
    -3.4038  -3.4038  -3.3699  -3.3474  -3.3472  -3.3384  -3.3124  -3.3107
    -3.3106  -3.3037  -3.3036  -3.3033  -3.2957  -3.2919  -3.2919  -3.2909
    -3.2909  -3.2903  -3.2902  -3.2878  -3.2836  -3.2787  -3.2770  -3.2768
    -3.2726  -3.2725  -3.2724  -3.2632  -3.2632  -3.2561  -3.2560  -3.2454
    -3.1832  -3.1458  -3.1456  -3.0949  -3.0930  -3.0917  -3.0915  -3.0800
    -3.0664  -3.0663  -3.0628  -3.0626  -3.0259  -2.9547  -2.9527  -2.9526
    -2.9502  -2.9499  -2.9459  -2.9440  -2.9439  -2.9340  -2.9336  -2.9333
    -2.9221  -2.9162  -2.9161  -2.9124  -2.9104  -2.9101  -2.6921  -1.2656
     1.6694   1.6702   1.9970   2.2933   2.5185   2.5190   2.5566   2.5571
     2.5627   2.5676   2.5676   2.5725   2.5980   2.5986   2.6073   2.6109
     2.6110   2.6139   2.6188   2.6190   2.6193   2.6231   2.6235   2.6294
     2.6330   2.6330   2.6338   2.6353   2.6367   2.6369   2.7109   2.7117
     2.7387   2.7848   2.7863   2.7866   2.7947   2.7948   2.8304   2.9314
     2.9385   2.9387   2.9406   2.9408   2.9451   2.9694   2.9800   2.9801
     2.9826   2.9908   2.9909   3.0021   3.0024   3.0108   3.0216   3.0421
     3.0421   3.1053   3.1054   3.1249   3.1253   3.1256   3.1301   3.2169
     3.2171   3.2288   3.2289   3.2300   3.2311   3.2345   3.2347   3.2384
     3.2560   3.2599   3.2600   3.2708   3.2773   3.2777   3.2843   3.2850
     3.2852   3.2943   3.2945   3.2956   3.3814   3.4377   3.4384   3.5748
     3.6068   3.6289   3.6716   3.6719   3.6912   3.6913   3.6958   3.6958
     3.6974   3.6978   3.7122   3.7153   3.7170   3.7171   3.7178   3.7222
     3.7596   3.7596   3.8779   3.9162   3.9171   3.9214   3.9412   3.9415
     3.9429   3.9710   3.9718   3.9719   3.9753   3.9757   3.9759   3.9901
[...]
Ga           -0.0021936835        7.4947356661       10.5721668239
Ga            0.0000046679        7.4928180039       15.8596139766
Ga           -1.6228565516       10.3027929588        5.2849691565
Ga           -1.6218387230       10.3000431649       10.5721668239
Ga           -1.6224002915       10.3029058241       15.8596139766
Ga           -3.2467859961       13.1146305318        5.3067194207
Ga           -3.2376471380       13.1089452121       10.5765961682
Ga           -3.2433613989       13.1130537655       15.8453114315
Ga            6.4868603646        1.8745561821        5.2836443144
Ga            6.4957016422        1.8747796759       10.5761349225
Ga            6.4732342343        1.8736996779       15.8602355119
Ga            4.8668411368        4.6805117940        5.2836443144
Ga            4.8714553270        4.6880568180       10.5761349225
Ga            4.8592863173        4.6691394711       15.8602355119
Ga            3.2450515939        7.4920943190        5.2847517855
Ga            3.2465066581        7.4942028137       10.5720589338
Ga            3.2447180689        7.4925777551       15.8595768056
Ga            1.6220315394       10.3026875350        5.2838431507
Ga            1.6218739469       10.3025965489       10.5707274126
Ga            1.6220050699       10.3026722528       15.8601227485
Ga           -0.0005035580       13.1135607410        5.2847517855
Ga            0.0020499840       13.1137666163       10.5720589338
Ga           -0.0002516527       13.1130301819       15.8595768056
Ga            9.7336832833        1.8732583319        5.2764444849
Ga            9.7334606394        1.8732362150       10.5737755660
Ga            9.7339250896        1.8745280692       15.8620005852
Ga            8.1113705543        4.6831046520        5.2831174372
Ga            8.1122769104        4.6836279369       10.5692655389
Ga            8.1098228159        4.6822110648       15.8608495674
Ga            6.4891286250        7.4929918483        5.2764444849
Ga            6.4889981491        7.4928100915       10.5737755660
Ga            6.4903491529        7.4925663900       15.8620005852
Ga            4.8683270612       10.3026905819        5.2845089203
Ga            4.8668135084       10.2999468450       10.5718948959
Ga            4.8677934960       10.3030723874       15.8594109559
Ga            3.2451819391       13.1140604017        5.2845089203
Ga            3.2420490168       13.1141214950       10.5718948959
Ga            3.2452458098       13.1134074179       15.8594109559
Ga           12.9799319216        1.8750690746        5.2840544795
Ga           12.9709280594        1.8754573668       10.5760640753
Ga           12.9943082521        1.8731817211       15.8591008313
Ga           11.3557416053        4.6832374186        5.2830159578
Ga           11.3547975695        4.6837295299       10.5692109680
Ga           11.3572755589        4.6822674006       15.8608889042
Ga            9.7336710591        7.4927460184        5.2830159578
Ga            9.7336252220        7.4916824038       10.5692109680
Ga            9.7335979756        7.4945594701       15.8608889042
Ga            8.1138210933       10.3034202648        5.2840544795
Ga            8.1096554331       10.2954285453       10.5760640753
Ga            8.1193747624       10.3168142089       15.8591008313
Ga            6.4918903946       13.1143018560        5.3058943120
Ga            6.4830362221       13.1091898972       10.5768303217
Ga            6.4902521420       13.1133560105       15.8452293570
N             1.6221100371        0.9365241956        4.8463270502
N             1.6218671098        0.9363839415        9.9230096664
N             1.6229283230        0.9369966332       15.0867931680
N             0.0060416455        3.7290511947        4.6401076130
N            -0.0019952655        3.7589276416        9.9309549627
N             0.0067619228        3.7303950790       15.2101356131
N            -1.6206077440        6.5512545060        4.6246960536
N            -1.6240706940        6.5580365665        9.9188865434
N            -1.6212413965        6.5475976138       15.2180849439
N            -3.2481208121        9.3701898299        4.6246960536
N            -3.2439788504        9.3637997970        9.9188865434
N            -3.2516045999        9.3714695169       15.2180849439
N            -4.8788958795       12.1900111800        4.6401076130
N            -4.8570405730       12.1681127874        9.9309549627
N            -4.8773719029       12.1899630163       15.2101356131
N             4.8482660539        0.9402889996        4.6398746038
N             4.8781913297        0.9317187165        9.9308555710
N             4.8495236269        0.9396734404       15.2101976999
N             3.2384484613        3.7285748609        4.6398746038
N             3.2459890163        3.7587760515        9.9308555710
N             3.2385441579        3.7299717307       15.2101976999
N             1.6223754339        6.5484709884        4.6333802509
N             1.6221476435        6.5608108302        9.9220085232
N             1.6224470879        6.5539010379       15.2083480819
N            -0.0011636156        9.3655312254        4.6296082828
N            -0.0000749749        9.3661597524        9.9189797592
N            -0.0012821570        9.3654627855       15.2091487867
N            -1.6290398202       12.1800874050        4.6333802509
N            -1.6184670989       12.1737202118        9.9220085232
N            -1.6243014323       12.1774344344       15.2083480819
N             8.1060291248        0.9377050838        4.6247211186
N             8.1132655067        0.9370516675        9.9189246968
N             8.1034645010        0.9399637245       15.2182128677
N             6.4868486989        3.7451823717        4.6312876113
N             6.4887681857        3.7462905879        9.9191386311
N             6.4857762037        3.7445631662       15.2119600182
N             4.8650922602        6.5511723978        4.6247211186
N             4.8681445760        6.5577659965        9.9189246968
N             4.8657659885        6.5478220481       15.2182128677
N             3.2459829481        9.3655752528        4.6297021374
N             3.2444922536        9.3660922623        9.9190802270
N             3.2460767633        9.3656278640       15.2093486833
N             1.6224477951       12.1776206258        4.6297021374
N             1.6221501912       12.1760711418        9.9190802270
N             1.6225402653       12.1776755666       15.2093486833
N            11.3614142563        0.9379925416        4.6245137319
N            11.3534860457        0.9372486468        9.9188723965
N            11.3639423352        0.9399404565       15.2177467798
N             9.7334657279        3.7471555766        4.6286597065
N             9.7334350601        3.7454963659        9.9179223606
N             9.7334600384        3.7468121325       15.2105998272
N             8.1118660590        6.5558485927        4.6286597065
N             8.1104138065        6.5566516390        9.9179223606
N             8.1115657829        6.5560153875       15.2105998272
N             6.4930337716        9.3702748919        4.6245137319
N             6.4884254346        9.3637808075        9.9188723965
N             6.4959847548        9.3714903150       15.2177467798
N             4.8737777605       12.1800799413        4.6330045759
N             4.8631300231       12.1739324672        9.9220999742
N             4.8699913226       12.1778938404       15.2085378890
N            14.6184415227        0.9403787651        4.6395223871
N            14.5884940619        0.9317883952        9.9306089961
N            14.6191343208        0.9402560794       15.2103481800
N            12.9800489746        3.7452967826        4.6308102323
N            12.9778131477        3.7464667483        9.9186496604
N            12.9811428672        3.7444608218       15.2116387281
N            11.3551118257        6.5558753985        4.6283534900
N            11.3564224283        6.5566320753        9.9176129836
N            11.3552803615        6.5559727027       15.2102715815
N             9.7335479195        9.3684015570        4.6308102323
N             9.7334432261        9.3658802912        9.9186496604
N             9.7333709026        9.3697668762       15.2116387281
N             8.1236139349       12.1897501337        4.6395223871
N             8.1012007259       12.1681100568        9.9306089961
N             8.1238540851       12.1904114573       15.2103481800
N             0.3614690363        1.6650748634        1.9645623019
N            -0.0192634560        1.8837677284        7.3228698280
N            -0.0107919935        1.8794425546       12.5386871876
N            -1.5669898437        4.6169449438        1.9921143616
N            -1.6222087805        4.6860261766        7.2719658512
N            -1.6249884521        4.6847024001       12.5694399275
N            -3.2410432592        7.4949899909        1.9899401956
N            -3.2444427786        7.4930272774        7.2675807237
N            -3.2442059251        7.4931640249       12.5686801247
N            -4.8964766753       10.3837852995        1.9921143616
N            -4.8642600413       10.3014236811        7.2719658512
N            -4.8667963011       10.2996783031       12.5694399275
N            -6.4886417136       13.5298147200        1.9645623019
N            -6.4896143830       13.0907442771        7.3228698280
N            -6.4891243621       13.1002433657       12.5386871876
N             2.8839468472        1.6650501674        1.9644291127
N             3.2629839054        1.8838873150        7.3234660228
N             3.2548866011        1.8792123342       12.5389511452
N             1.6228686522        4.6849825158        1.9765619032
N             1.6222145203        4.6835916166        7.2863316262
N             1.6220967255        4.6851898639       12.5700969900
N             0.0018782555        7.4883970733        1.9866318453
N            -0.0005143730        7.4930011836        7.2737905182
N            -0.0016694459        7.4923246049       12.5664303862
N            -1.6252921359       10.3067388639        1.9866318453
N            -1.6225011737       10.3023647317        7.2737905182
N            -1.6236646445       10.3017026986       12.5664303862
N            -3.2426251617       13.1122650055        1.9765619032
N            -3.2441567817       13.1123939604        7.2863316262
N            -3.2428315563       13.1114928234       12.5700969900
N             6.4045066825        1.8588804540        1.9926215507
N             6.4915330776        1.8716768651        7.2721145982
N             6.4914945625        1.8743911443       12.5697903222
N             4.8120887170        4.6170292773        1.9926215507
N             4.8666839317        4.6859981406        7.2721145982
N             4.8690153089        4.6846076460       12.5697903222
N             3.2433519775        7.4887723828        1.9865212502
N             3.2449277736        7.4931079649        7.2735758174
N             3.2461723572        7.4924784749       12.5663376554
N             1.6227121310       10.3030804747        1.9876838550
N             1.6223103272       10.3028484932        7.2737079382
N             1.6223441347       10.3028680120       12.5643491104
N            -0.0042302474       13.1137497982        1.9865212502
N             0.0003123749       13.1129466865        7.2735758174
N             0.0003895124       13.1143392726       12.5663376554
N             9.7343275597        1.8692507084        1.9902377999
N             9.7331713875        1.8728031044        7.2677372686
N             9.7332286131        1.8725677735       12.5689031002
N             8.0976378466        4.6751760695        1.9892529505
N             8.1107455207        4.6827437887        7.2727296457
N             8.1112605442        4.6830411376       12.5639293169
N             6.4859800594        7.4955536198        1.9902377999
N             6.4884784384        7.4927761473        7.2677372686
N             6.4883032487        7.4929433716       12.5689031002
N             4.8706572474       10.3067765018        1.9863868196
N             4.8667640386       10.3022577007        7.2733940755
N             4.8679598122       10.3017675017       12.5661950709
N             3.2498855426       13.1140354421        1.9863868196
N             3.2440255416       13.1129232250        7.2733940755
N             3.2441989036       13.1142038948       12.5661950709
N            13.0633929874        1.8594113972        1.9917054875
N            12.9752058128        1.8715427441        7.2723155139
N            12.9753683482        1.8745484369       12.5697937169
N            11.3695232000        4.6752058935        1.9893088350
N            11.3560628960        4.6827656646        7.2726715431
N            11.3551374964        4.6832430951       12.5638542974
N             9.7336063517        7.5086969920        1.9893088350
N             9.7334231535        7.4932601413        7.2726715431
N             9.7333739206        7.4922200065       12.5638542974
N             8.1419916798       10.3835285066        1.9917054875
N             8.1084041471       10.3010904997        7.2723155139
N             8.1110884211       10.2997284131       12.5697937169
N             6.4881247213       13.1121277435        1.9764777279
N             6.4880472979       13.1120830431        7.2856658351
N             6.4874255888       13.1117240992       12.5702873150
N             1.6224086225        0.9366965840        2.3108351160



     Writing config-only to output data dir ./GaN.save/
     NEW-OLD atomic charge density approx. for the potential

     Check: negative core charge=   -0.000003


     -----------------------------------------------
     Non-local corr. energy    =      81.33544750 Ry
     -----------------------------------------------


     total cpu time spent up to now is   150282.0 secs

     Self-consistent Calculation

     iteration #  1     ecut=    70.00 Ry     beta= 0.70
     Davidson diagonalization with overlap

---- Real-time Memory Report at c_bands before calling an iterative solver
          3711 MiB given to the printing process from OS
             0 MiB allocation reported by mallinfo(arena+hblkhd)
       1949103 MiB available memory on the node where the printing process lives
------------------
     ethr =  1.00E-06,  avg # of iterations =  4.0

     Threshold (ethr) on eigenvalues was too large:
     Diagonalizing with lowered threshold

     Davidson diagonalization with overlap

---- Real-time Memory Report at c_bands before calling an iterative solver
          3711 MiB given to the printing process from OS
             0 MiB allocation reported by mallinfo(arena+hblkhd)
       1958333 MiB available memory on the node where the printing process lives
------------------
     ethr =  3.10E-08,  avg # of iterations = 17.7


     -----------------------------------------------
     Non-local corr. energy    =      81.33532269 Ry
     -----------------------------------------------


     total cpu time spent up to now is   152848.6 secs

     total energy              =  -46589.29206283 Ry
     estimated scf accuracy    <       0.00087847 Ry

     iteration #  2     ecut=    70.00 Ry     beta= 0.70
     Davidson diagonalization with overlap

---- Real-time Memory Report at c_bands before calling an iterative solver
          3711 MiB given to the printing process from OS
             0 MiB allocation reported by mallinfo(arena+hblkhd)
       1939970 MiB available memory on the node where the printing process lives
------------------

     Maximum CPU time exceeded

     max_seconds     =  154800.00
     elapsed seconds =  154844.32
     Calculation stopped in k-point loop, point #     2
     Calculation stopped in scf loop at iteration #     1

     Writing config to output data dir ./GaN.save/
 
     init_run     :    124.65s CPU    128.98s WALL (       1 calls)
     electrons    : 146192.20s CPU 147533.47s WALL (       6 calls)
     update_pot   :     13.02s CPU     13.31s WALL (       5 calls)
     forces       :    337.26s CPU    342.58s WALL (       5 calls)
     stress       :   6941.60s CPU   7021.97s WALL (       5 calls)

     Called by init_run:
     wfcinit      :    111.36s CPU    115.08s WALL (       1 calls)
     wfcinit:atom :      0.25s CPU      0.44s WALL (       2 calls)
     wfcinit:wfcr :    109.19s CPU    112.17s WALL (       2 calls)
     potinit      :      1.81s CPU      2.05s WALL (       1 calls)
     hinit0       :      1.42s CPU      1.57s WALL (       1 calls)

     Called by electrons:
     c_bands      : 144361.91s CPU 145678.06s WALL (      67 calls)
     sum_band     :   1698.29s CPU   1721.27s WALL (      66 calls)
     v_of_rho     :     68.93s CPU     72.20s WALL (      71 calls)
     v_h          :      0.64s CPU      0.65s WALL (      71 calls)
     v_xc         :     77.65s CPU     81.32s WALL (      81 calls)
     newd         :     18.13s CPU     20.97s WALL (      71 calls)
     PAW_pot      :     43.96s CPU     44.33s WALL (      76 calls)
     mix_rho      :      3.53s CPU      3.71s WALL (      66 calls)
     vdW_kernel   :      0.26s CPU      0.27s WALL (       1 calls)

     Called by c_bands:
     init_us_2    :     68.78s CPU     70.06s WALL (     298 calls)
     init_us_2:cp :     68.77s CPU     70.06s WALL (     298 calls)
     cegterg      : 124865.72s CPU 126032.15s WALL (     137 calls)

     Called by sum_band:
     sum_band:wei :      0.26s CPU      0.26s WALL (      66 calls)
     sum_band:loo :   1473.98s CPU   1486.43s WALL (      66 calls)
     sum_band:buf :     17.41s CPU     17.67s WALL (     132 calls)
     sum_band:ini :     35.59s CPU     36.11s WALL (     132 calls)
     sum_band:cal :   1060.57s CPU   1068.69s WALL (     142 calls)
     sum_band:bec :      8.53s CPU      8.62s WALL (     142 calls)
     addusdens    :     14.44s CPU     17.68s WALL (      66 calls)
     addusd:skk   :      2.36s CPU      3.25s WALL (     132 calls)
     addusd:dgemm :      7.97s CPU     10.24s WALL (     132 calls)
     addusd:qvan2 :      2.35s CPU      2.38s WALL (     132 calls)

     Called by *egterg:
     cdiaghg      : 104350.25s CPU 105007.84s WALL (    2069 calls)
     cegterg:over :   4217.02s CPU   4320.97s WALL (    1946 calls)
     cegterg:upda :   2690.59s CPU   2733.29s WALL (    1946 calls)
     cegterg:last :   1330.17s CPU   1340.01s WALL (     144 calls)
     h_psi        :   8341.34s CPU   8466.41s WALL (    2085 calls)
     s_psi        :   2964.13s CPU   3007.71s WALL (    2085 calls)
     g_psi        :      7.37s CPU      7.44s WALL (    1946 calls)

     Called by h_psi:
     h_psi:calbec :   3128.20s CPU   3153.72s WALL (    2085 calls)
     vloc_psi     :   2210.45s CPU   2232.12s WALL (    2085 calls)
     add_vuspsi   :   2967.08s CPU   3017.89s WALL (    2085 calls)

     General routines
     calbec       :   4748.95s CPU   4787.41s WALL (    2277 calls)
     fft          :     35.46s CPU     35.84s WALL (    5314 calls)
     ffts         :      8.34s CPU      8.40s WALL (     137 calls)
     fftw         :   2434.02s CPU   2457.99s WALL ( 1483722 calls)
     interpolate  :      1.02s CPU      1.03s WALL (      71 calls)
     davcio       :      0.00s CPU      0.08s WALL (       4 calls)
 
     Parallel routines

     PAW routines
     PAW_pot      :     43.96s CPU     44.33s WALL (      76 calls)
     PAW_symme    :      1.31s CPU      1.32s WALL (     141 calls)
 
     PWSCF        :   1d18h41m CPU   1d19h 5m WALL

 
   This run was terminated on:   6:35:20  14Apr2024            

=------------------------------------------------------------------------------=
   JOB DONE.
=------------------------------------------------------------------------------=
