
     Program PWSCF v.7.1 starts on 24Mar2024 at 10:44:46 

     This program is part of the open-source Quantum ESPRESSO suite
     for quantum simulation of materials; please cite
         "P. Giannozzi et al., J. Phys.:Condens. Matter 21 395502 (2009);
         "P. Giannozzi et al., J. Phys.:Condens. Matter 29 465901 (2017);
         "P. Giannozzi et al., J. Chem. Phys. 152 154105 (2020);
          URL http://www.quantum-espresso.org", 
     in publications or presentations arising from this work. More details at
     http://www.quantum-espresso.org/quote

     Parallel version (MPI & OpenMP), running on     256 processor cores
     Number of MPI processes:               256
     Threads/MPI process:                     1

     MPI processes distributed on     2 nodes
     2025210 MiB available memory on the printing compute node when the environment starts
 
     Reading input from espresso.pwi
Warning: card &CELL ignored
Warning: card    CELL_DYNAMICS    = 'BFGS' ignored
Warning: card / ignored

     Current dimensions of program PWSCF are:
     Max number of different atomic species (ntypx) = 10
     Max number of k-points (npk) =  40000
     Max angular momentum in pseudopotentials (lmaxx) =  4
     file Ga.pbe-dn-kjpaw_psl.1.0.0.UPF: wavefunction(s)  4S renormalized
     file N.pbe-n-kjpaw_psl.1.0.0.UPF: wavefunction(s)  2S renormalized

     **************************************************************************
     Initializing libbeef V0.1.2 with the BEEF-vdW functional.
     Citation: Wellendorff et al., PRB 85, 235149 (2012).
     **************************************************************************


     IMPORTANT: XC functional enforced from input :
     Exchange-correlation= BEEF-VDW
                           (   1   4  43  14   2   0   0)
     Any further DFT definition will be discarded
     Please, verify this is what you really want

 
     K-points division:     npool     =       4
     R & G space division:  proc/nbgrp/npool/nimage =      64
     Subspace diagonalization in iterative solution of the eigenvalue problem:
     a serial algorithm will be used

 
     Parallelization info
     --------------------
     sticks:   dense  smooth     PW     G-vecs:    dense   smooth      PW
     Min         354     283     73                42160    30167    3987
     Max         356     285     74                42163    30170    3996
     Sum       22693   18145   4705              2698283  1930731  255309
 
     Using Slab Decomposition
 


     bravais-lattice index     =            4
     lattice parameter (alat)  =      30.6565  a.u.
     unit-cell volume          =   24400.9461 (a.u.)^3
     number of atoms/cell      =          300
     number of atomic types    =            2
     number of electrons       =      2692.00
     number of Kohn-Sham states=         1615
     kinetic-energy cutoff     =      70.0000  Ry
     charge density cutoff     =     350.0000  Ry
     scf convergence threshold =      1.0E-07
     mixing beta               =       0.7000
     number of iterations used =            8  plain     mixing
     energy convergence thresh.=      1.0E-04
     force convergence thresh. =      1.0E-03
     Exchange-correlation= BEEF-VDW
                           (   1   4  43  14   2   0   0)
     nstep                     =           50


     celldm(1)=  30.656540  celldm(2)=   0.000000  celldm(3)=   0.977927
     celldm(4)=   0.000000  celldm(5)=   0.000000  celldm(6)=   0.000000

     crystal axes: (cart. coord. in units of alat)
               a(1) = (   1.000000   0.000000   0.000000 )  
               a(2) = (  -0.500000   0.866025   0.000000 )  
               a(3) = (   0.000000   0.000000   0.977927 )  

     reciprocal axes: (cart. coord. in units 2 pi/alat)
               b(1) = (  1.000000  0.577350 -0.000000 )  
               b(2) = (  0.000000  1.154701  0.000000 )  
               b(3) = (  0.000000 -0.000000  1.022571 )  


     PseudoPot. # 1 for Ga read from file:
     //group///packages/espresso/pseudo/psl_1.0.0/pslibrary.1.0.0/pbe/PSEUDOPOTENTIALS/Ga.pbe-dn-kjpaw_psl.1.0.0.UPF
     MD5 check sum: cd2a01e492f15b435d17032472d8505c
     Pseudo is Projector augmented-wave + core cor, Zval = 13.0
     Generated using 'atomic' code by A. Dal Corso  v.7.1
     Shape of augmentation charge: PSQ
     Using radial grid of 1205 points,  6 beta functions with: 
                l(1) =   0
                l(2) =   0
                l(3) =   1
                l(4) =   1
                l(5) =   2
                l(6) =   2
     Q(r) pseudized with 0 coefficients 


     PseudoPot. # 2 for N  read from file:
     //group///packages/espresso/pseudo/psl_1.0.0/pslibrary.1.0.0/pbe/PSEUDOPOTENTIALS/N.pbe-n-kjpaw_psl.1.0.0.UPF
     MD5 check sum: f77f775694dac7e2c3fe1c82443d1a16
     Pseudo is Projector augmented-wave + core cor, Zval =  5.0
     Generated using 'atomic' code by A. Dal Corso  v.7.1
     Shape of augmentation charge: PSQ
     Using radial grid of 1085 points,  4 beta functions with: 
                l(1) =   0
                l(2) =   0
                l(3) =   1
                l(4) =   1
     Q(r) pseudized with 0 coefficients 


     atomic species   valence    mass     pseudopotential
        Ga            13.00    69.72300     Ga( 1.00)
        N              5.00    14.00700     N ( 1.00)

      2 Sym. Ops. (no inversion) found


                                    s                        frac. trans.

      isym =  1     identity                                     

 cryst.   s( 1) = (     1          0          0      )
                  (     0          1          0      )
                  (     0          0          1      )

 cart.    s( 1) = (  1.0000000  0.0000000  0.0000000 )
                  (  0.0000000  1.0000000  0.0000000 )
                  (  0.0000000  0.0000000  1.0000000 )


      isym =  2     inv. 180 deg rotation - cryst. axis [0,1,0]  

 cryst.   s( 2) = (     1          1          0      )
                  (     0         -1          0      )
                  (     0          0          1      )

 cart.    s( 2) = (  0.5000000  0.8660254  0.0000000 )
                  (  0.8660254 -0.5000000  0.0000000 )
                  (  0.0000000  0.0000000  1.0000000 )


     point group C_s (m)    
     there are  2 classes
     the character table:

       E     s    
A'     1.00  1.00
A''    1.00 -1.00

     the symmetry operations in each class and the name of the first element:

     E        1
          identity                                               
     s        2
          inv. 180 deg rotation - cryst. axis [0,1,0]            

   Cartesian axes

     site n.     atom                  positions (alat units)
         1           Ga  tau(   1) = (   0.1000001   0.0577350   0.4886906  )
         2           Ga  tau(   2) = (   0.1000001   0.0577350   0.8146665  )
         3           Ga  tau(   3) = (   0.0000001   0.2309401   0.1627148  )
         4           Ga  tau(   4) = (   0.0000001   0.2309401   0.4886906  )
         5           Ga  tau(   5) = (   0.0000001   0.2309401   0.8146665  )
         6           Ga  tau(   6) = (  -0.0999999   0.4041451   0.1627148  )
         7           Ga  tau(   7) = (  -0.0999999   0.4041451   0.4886906  )
         8           Ga  tau(   8) = (  -0.0999999   0.4041451   0.8146665  )
         9           Ga  tau(   9) = (  -0.1999999   0.5773502   0.1627148  )
        10           Ga  tau(  10) = (  -0.1999999   0.5773502   0.4886906  )
        11           Ga  tau(  11) = (  -0.1999999   0.5773502   0.8146665  )
        12           Ga  tau(  12) = (  -0.2999999   0.7505553   0.1627148  )
        13           Ga  tau(  13) = (  -0.2999999   0.7505553   0.4886906  )
        14           Ga  tau(  14) = (  -0.2999999   0.7505553   0.8146665  )
        15           Ga  tau(  15) = (   0.3000001   0.0577350   0.1627148  )
        16           Ga  tau(  16) = (   0.3000001   0.0577350   0.4886906  )
        17           Ga  tau(  17) = (   0.3000001   0.0577350   0.8146665  )
        18           Ga  tau(  18) = (   0.2000001   0.2309401   0.1627148  )
        19           Ga  tau(  19) = (   0.2000001   0.2309401   0.4886906  )
        20           Ga  tau(  20) = (   0.2000001   0.2309401   0.8146665  )
        21           Ga  tau(  21) = (   0.1000001   0.4041451   0.1627148  )
        22           Ga  tau(  22) = (   0.1000001   0.4041451   0.4886906  )
        23           Ga  tau(  23) = (   0.1000001   0.4041451   0.8146665  )
        24           Ga  tau(  24) = (   0.0000001   0.5773502   0.1627148  )
        25           Ga  tau(  25) = (   0.0000001   0.5773502   0.4886906  )
        26           Ga  tau(  26) = (   0.0000001   0.5773502   0.8146665  )
        27           Ga  tau(  27) = (  -0.0999999   0.7505553   0.1627148  )
        28           Ga  tau(  28) = (  -0.0999999   0.7505553   0.4886906  )
        29           Ga  tau(  29) = (  -0.0999999   0.7505553   0.8146665  )
        30           Ga  tau(  30) = (   0.5000001   0.0577350   0.1627148  )
        31           Ga  tau(  31) = (   0.5000001   0.0577350   0.4886906  )
        32           Ga  tau(  32) = (   0.5000001   0.0577350   0.8146665  )
        33           Ga  tau(  33) = (   0.4000001   0.2309401   0.1627148  )
        34           Ga  tau(  34) = (   0.4000001   0.2309401   0.4886906  )
        35           Ga  tau(  35) = (   0.4000001   0.2309401   0.8146665  )
        36           Ga  tau(  36) = (   0.3000001   0.4041451   0.1627148  )
        37           Ga  tau(  37) = (   0.3000001   0.4041451   0.4886906  )
        38           Ga  tau(  38) = (   0.3000001   0.4041451   0.8146665  )
        39           Ga  tau(  39) = (   0.2000001   0.5773502   0.1627148  )
        40           Ga  tau(  40) = (   0.2000001   0.5773502   0.4886906  )
        41           Ga  tau(  41) = (   0.2000001   0.5773502   0.8146665  )
        42           Ga  tau(  42) = (   0.1000001   0.7505553   0.1627148  )
        43           Ga  tau(  43) = (   0.1000001   0.7505553   0.4886906  )
        44           Ga  tau(  44) = (   0.1000001   0.7505553   0.8146665  )
        45           Ga  tau(  45) = (   0.7000001   0.0577350   0.1627148  )
        46           Ga  tau(  46) = (   0.7000001   0.0577350   0.4886906  )
        47           Ga  tau(  47) = (   0.7000001   0.0577350   0.8146665  )
        48           Ga  tau(  48) = (   0.6000001   0.2309401   0.1627148  )
        49           Ga  tau(  49) = (   0.6000001   0.2309401   0.4886906  )
        50           Ga  tau(  50) = (   0.6000001   0.2309401   0.8146665  )
        51           Ga  tau(  51) = (   0.5000001   0.4041451   0.1627148  )
        52           Ga  tau(  52) = (   0.5000001   0.4041451   0.4886906  )
        53           Ga  tau(  53) = (   0.5000001   0.4041451   0.8146665  )
        54           Ga  tau(  54) = (   0.4000001   0.5773502   0.1627148  )
        55           Ga  tau(  55) = (   0.4000001   0.5773502   0.4886906  )
        56           Ga  tau(  56) = (   0.4000001   0.5773502   0.8146665  )
        57           Ga  tau(  57) = (   0.3000001   0.7505553   0.1627148  )
        58           Ga  tau(  58) = (   0.3000001   0.7505553   0.4886906  )
        59           Ga  tau(  59) = (   0.3000001   0.7505553   0.8146665  )
        60           Ga  tau(  60) = (   0.9000001   0.0577350   0.1627148  )
        61           Ga  tau(  61) = (   0.9000001   0.0577350   0.4886906  )
        62           Ga  tau(  62) = (   0.9000001   0.0577350   0.8146665  )
        63           Ga  tau(  63) = (   0.8000001   0.2309401   0.1627148  )
        64           Ga  tau(  64) = (   0.8000001   0.2309401   0.4886906  )
        65           Ga  tau(  65) = (   0.8000001   0.2309401   0.8146665  )
        66           Ga  tau(  66) = (   0.7000001   0.4041451   0.1627148  )
        67           Ga  tau(  67) = (   0.7000001   0.4041451   0.4886906  )
        68           Ga  tau(  68) = (   0.7000001   0.4041451   0.8146665  )
        69           Ga  tau(  69) = (   0.6000001   0.5773502   0.1627148  )
        70           Ga  tau(  70) = (   0.6000001   0.5773502   0.4886906  )
        71           Ga  tau(  71) = (   0.6000001   0.5773502   0.8146665  )
        72           Ga  tau(  72) = (   0.5000001   0.7505553   0.1627148  )
        73           Ga  tau(  73) = (   0.5000001   0.7505553   0.4886906  )
        74           Ga  tau(  74) = (   0.5000001   0.7505553   0.8146665  )
        75           Ga  tau(  75) = (  -0.0000001   0.1154701   0.3257027  )
        76           Ga  tau(  76) = (  -0.0000001   0.1154701   0.6516786  )
        77           Ga  tau(  77) = (  -0.0000001   0.1154701   0.9776544  )
        78           Ga  tau(  78) = (  -0.1000001   0.2886752   0.3257027  )
        79           Ga  tau(  79) = (  -0.1000001   0.2886752   0.6516786  )
        80           Ga  tau(  80) = (  -0.1000001   0.2886752   0.9776544  )
        81           Ga  tau(  81) = (  -0.2000001   0.4618803   0.3257027  )
        82           Ga  tau(  82) = (  -0.2000001   0.4618803   0.6516786  )
        83           Ga  tau(  83) = (  -0.2000001   0.4618803   0.9776544  )
        84           Ga  tau(  84) = (  -0.3000001   0.6350854   0.3257027  )
        85           Ga  tau(  85) = (  -0.3000001   0.6350854   0.6516786  )
        86           Ga  tau(  86) = (  -0.3000001   0.6350854   0.9776544  )
        87           Ga  tau(  87) = (  -0.4000001   0.8082905   0.3257027  )
        88           Ga  tau(  88) = (  -0.4000001   0.8082905   0.6516786  )
        89           Ga  tau(  89) = (  -0.4000001   0.8082905   0.9776544  )
        90           Ga  tau(  90) = (   0.1999999   0.1154701   0.3257027  )
        91           Ga  tau(  91) = (   0.1999999   0.1154701   0.6516786  )
        92           Ga  tau(  92) = (   0.1999999   0.1154701   0.9776544  )
        93           Ga  tau(  93) = (   0.0999999   0.2886752   0.3257027  )
        94           Ga  tau(  94) = (   0.0999999   0.2886752   0.6516786  )
        95           Ga  tau(  95) = (   0.0999999   0.2886752   0.9776544  )
        96           Ga  tau(  96) = (  -0.0000001   0.4618803   0.3257027  )
        97           Ga  tau(  97) = (  -0.0000001   0.4618803   0.6516786  )
        98           Ga  tau(  98) = (  -0.0000001   0.4618803   0.9776544  )
        99           Ga  tau(  99) = (  -0.1000001   0.6350854   0.3257027  )
       100           Ga  tau( 100) = (  -0.1000001   0.6350854   0.6516786  )
       101           Ga  tau( 101) = (  -0.1000001   0.6350854   0.9776544  )
       102           Ga  tau( 102) = (  -0.2000001   0.8082905   0.3257027  )
       103           Ga  tau( 103) = (  -0.2000001   0.8082905   0.6516786  )
       104           Ga  tau( 104) = (  -0.2000001   0.8082905   0.9776544  )
       105           Ga  tau( 105) = (   0.3999999   0.1154701   0.3257027  )
       106           Ga  tau( 106) = (   0.3999999   0.1154701   0.6516786  )
       107           Ga  tau( 107) = (   0.3999999   0.1154701   0.9776544  )
       108           Ga  tau( 108) = (   0.2999999   0.2886752   0.3257027  )
       109           Ga  tau( 109) = (   0.2999999   0.2886752   0.6516786  )
       110           Ga  tau( 110) = (   0.2999999   0.2886752   0.9776544  )
       111           Ga  tau( 111) = (   0.1999999   0.4618803   0.3257027  )
       112           Ga  tau( 112) = (   0.1999999   0.4618803   0.6516786  )
       113           Ga  tau( 113) = (   0.1999999   0.4618803   0.9776544  )
       114           Ga  tau( 114) = (   0.0999999   0.6350854   0.3257027  )
       115           Ga  tau( 115) = (   0.0999999   0.6350854   0.6516786  )
       116           Ga  tau( 116) = (   0.0999999   0.6350854   0.9776544  )
       117           Ga  tau( 117) = (  -0.0000001   0.8082905   0.3257027  )
       118           Ga  tau( 118) = (  -0.0000001   0.8082905   0.6516786  )
       119           Ga  tau( 119) = (  -0.0000001   0.8082905   0.9776544  )
       120           Ga  tau( 120) = (   0.5999999   0.1154701   0.3257027  )
       121           Ga  tau( 121) = (   0.5999999   0.1154701   0.6516786  )
       122           Ga  tau( 122) = (   0.5999999   0.1154701   0.9776544  )
       123           Ga  tau( 123) = (   0.4999999   0.2886752   0.3257027  )
       124           Ga  tau( 124) = (   0.4999999   0.2886752   0.6516786  )
       125           Ga  tau( 125) = (   0.4999999   0.2886752   0.9776544  )
       126           Ga  tau( 126) = (   0.3999999   0.4618803   0.3257027  )
       127           Ga  tau( 127) = (   0.3999999   0.4618803   0.6516786  )
       128           Ga  tau( 128) = (   0.3999999   0.4618803   0.9776544  )
       129           Ga  tau( 129) = (   0.2999999   0.6350854   0.3257027  )
       130           Ga  tau( 130) = (   0.2999999   0.6350854   0.6516786  )
       131           Ga  tau( 131) = (   0.2999999   0.6350854   0.9776544  )
       132           Ga  tau( 132) = (   0.1999999   0.8082905   0.3257027  )
       133           Ga  tau( 133) = (   0.1999999   0.8082905   0.6516786  )
       134           Ga  tau( 134) = (   0.1999999   0.8082905   0.9776544  )
       135           Ga  tau( 135) = (   0.7999999   0.1154701   0.3257027  )
       136           Ga  tau( 136) = (   0.7999999   0.1154701   0.6516786  )
       137           Ga  tau( 137) = (   0.7999999   0.1154701   0.9776544  )
       138           Ga  tau( 138) = (   0.6999999   0.2886752   0.3257027  )
       139           Ga  tau( 139) = (   0.6999999   0.2886752   0.6516786  )
       140           Ga  tau( 140) = (   0.6999999   0.2886752   0.9776544  )
       141           Ga  tau( 141) = (   0.5999999   0.4618803   0.3257027  )
       142           Ga  tau( 142) = (   0.5999999   0.4618803   0.6516786  )
       143           Ga  tau( 143) = (   0.5999999   0.4618803   0.9776544  )
       144           Ga  tau( 144) = (   0.4999999   0.6350854   0.3257027  )
       145           Ga  tau( 145) = (   0.4999999   0.6350854   0.6516786  )
       146           Ga  tau( 146) = (   0.4999999   0.6350854   0.9776544  )
       147           Ga  tau( 147) = (   0.3999999   0.8082905   0.3257027  )
       148           Ga  tau( 148) = (   0.3999999   0.8082905   0.6516786  )
       149           Ga  tau( 149) = (   0.3999999   0.8082905   0.9776544  )
       150           N   tau( 150) = (   0.1000001   0.0577350   0.2855019  )
       151           N   tau( 151) = (   0.1000001   0.0577350   0.6114777  )
       152           N   tau( 152) = (   0.1000001   0.0577350   0.9374535  )
       153           N   tau( 153) = (   0.0000001   0.2309401   0.2855019  )
       154           N   tau( 154) = (   0.0000001   0.2309401   0.6114777  )
       155           N   tau( 155) = (   0.0000001   0.2309401   0.9374535  )
       156           N   tau( 156) = (  -0.0999999   0.4041451   0.2855019  )
       157           N   tau( 157) = (  -0.0999999   0.4041451   0.6114777  )
       158           N   tau( 158) = (  -0.0999999   0.4041451   0.9374535  )
       159           N   tau( 159) = (  -0.1999999   0.5773502   0.2855019  )
       160           N   tau( 160) = (  -0.1999999   0.5773502   0.6114777  )
       161           N   tau( 161) = (  -0.1999999   0.5773502   0.9374535  )
       162           N   tau( 162) = (  -0.2999999   0.7505553   0.2855019  )
       163           N   tau( 163) = (  -0.2999999   0.7505553   0.6114777  )
       164           N   tau( 164) = (  -0.2999999   0.7505553   0.9374535  )
       165           N   tau( 165) = (   0.3000001   0.0577350   0.2855019  )
       166           N   tau( 166) = (   0.3000001   0.0577350   0.6114777  )
       167           N   tau( 167) = (   0.3000001   0.0577350   0.9374535  )
       168           N   tau( 168) = (   0.2000001   0.2309401   0.2855019  )
       169           N   tau( 169) = (   0.2000001   0.2309401   0.6114777  )
       170           N   tau( 170) = (   0.2000001   0.2309401   0.9374535  )
       171           N   tau( 171) = (   0.1000001   0.4041451   0.2855019  )
       172           N   tau( 172) = (   0.1000001   0.4041451   0.6114777  )
       173           N   tau( 173) = (   0.1000001   0.4041451   0.9374535  )
       174           N   tau( 174) = (   0.0000001   0.5773502   0.2855019  )
       175           N   tau( 175) = (   0.0000001   0.5773502   0.6114777  )
       176           N   tau( 176) = (   0.0000001   0.5773502   0.9374535  )
       177           N   tau( 177) = (  -0.0999999   0.7505553   0.2855019  )
       178           N   tau( 178) = (  -0.0999999   0.7505553   0.6114777  )
       179           N   tau( 179) = (  -0.0999999   0.7505553   0.9374535  )
       180           N   tau( 180) = (   0.5000001   0.0577350   0.2855019  )
       181           N   tau( 181) = (   0.5000001   0.0577350   0.6114777  )
       182           N   tau( 182) = (   0.5000001   0.0577350   0.9374535  )
       183           N   tau( 183) = (   0.4000001   0.2309401   0.2855019  )
       184           N   tau( 184) = (   0.4000001   0.2309401   0.6114777  )
       185           N   tau( 185) = (   0.4000001   0.2309401   0.9374535  )
       186           N   tau( 186) = (   0.3000001   0.4041451   0.2855019  )
       187           N   tau( 187) = (   0.3000001   0.4041451   0.6114777  )
       188           N   tau( 188) = (   0.3000001   0.4041451   0.9374535  )
       189           N   tau( 189) = (   0.2000001   0.5773502   0.2855019  )
       190           N   tau( 190) = (   0.2000001   0.5773502   0.6114777  )
       191           N   tau( 191) = (   0.2000001   0.5773502   0.9374535  )
       192           N   tau( 192) = (   0.1000001   0.7505553   0.2855019  )
       193           N   tau( 193) = (   0.1000001   0.7505553   0.6114777  )
       194           N   tau( 194) = (   0.1000001   0.7505553   0.9374535  )
       195           N   tau( 195) = (   0.7000001   0.0577350   0.2855019  )
       196           N   tau( 196) = (   0.7000001   0.0577350   0.6114777  )
       197           N   tau( 197) = (   0.7000001   0.0577350   0.9374535  )
       198           N   tau( 198) = (   0.6000001   0.2309401   0.2855019  )
       199           N   tau( 199) = (   0.6000001   0.2309401   0.6114777  )
       200           N   tau( 200) = (   0.6000001   0.2309401   0.9374535  )
       201           N   tau( 201) = (   0.5000001   0.4041451   0.2855019  )
       202           N   tau( 202) = (   0.5000001   0.4041451   0.6114777  )
       203           N   tau( 203) = (   0.5000001   0.4041451   0.9374535  )
       204           N   tau( 204) = (   0.4000001   0.5773502   0.2855019  )
       205           N   tau( 205) = (   0.4000001   0.5773502   0.6114777  )
       206           N   tau( 206) = (   0.4000001   0.5773502   0.9374535  )
       207           N   tau( 207) = (   0.3000001   0.7505553   0.2855019  )
       208           N   tau( 208) = (   0.3000001   0.7505553   0.6114777  )
       209           N   tau( 209) = (   0.3000001   0.7505553   0.9374535  )
       210           N   tau( 210) = (   0.9000001   0.0577350   0.2855019  )
       211           N   tau( 211) = (   0.9000001   0.0577350   0.6114777  )
       212           N   tau( 212) = (   0.9000001   0.0577350   0.9374535  )
       213           N   tau( 213) = (   0.8000001   0.2309401   0.2855019  )
       214           N   tau( 214) = (   0.8000001   0.2309401   0.6114777  )
       215           N   tau( 215) = (   0.8000001   0.2309401   0.9374535  )
       216           N   tau( 216) = (   0.7000001   0.4041451   0.2855019  )
       217           N   tau( 217) = (   0.7000001   0.4041451   0.6114777  )
       218           N   tau( 218) = (   0.7000001   0.4041451   0.9374535  )
       219           N   tau( 219) = (   0.6000001   0.5773502   0.2855019  )
       220           N   tau( 220) = (   0.6000001   0.5773502   0.6114777  )
       221           N   tau( 221) = (   0.6000001   0.5773502   0.9374535  )
       222           N   tau( 222) = (   0.5000001   0.7505553   0.2855019  )
       223           N   tau( 223) = (   0.5000001   0.7505553   0.6114777  )
       224           N   tau( 224) = (   0.5000001   0.7505553   0.9374535  )
       225           N   tau( 225) = (  -0.0000001   0.1154701   0.1225140  )
       226           N   tau( 226) = (  -0.0000001   0.1154701   0.4484898  )
       227           N   tau( 227) = (  -0.0000001   0.1154701   0.7744656  )
       228           N   tau( 228) = (  -0.1000001   0.2886752   0.1225140  )
       229           N   tau( 229) = (  -0.1000001   0.2886752   0.4484898  )
       230           N   tau( 230) = (  -0.1000001   0.2886752   0.7744656  )
       231           N   tau( 231) = (  -0.2000001   0.4618803   0.1225140  )
       232           N   tau( 232) = (  -0.2000001   0.4618803   0.4484898  )
       233           N   tau( 233) = (  -0.2000001   0.4618803   0.7744656  )
       234           N   tau( 234) = (  -0.3000001   0.6350854   0.1225140  )
       235           N   tau( 235) = (  -0.3000001   0.6350854   0.4484898  )
       236           N   tau( 236) = (  -0.3000001   0.6350854   0.7744656  )
       237           N   tau( 237) = (  -0.4000001   0.8082905   0.1225140  )
       238           N   tau( 238) = (  -0.4000001   0.8082905   0.4484898  )
       239           N   tau( 239) = (  -0.4000001   0.8082905   0.7744656  )
       240           N   tau( 240) = (   0.1999999   0.1154701   0.1225140  )
       241           N   tau( 241) = (   0.1999999   0.1154701   0.4484898  )
       242           N   tau( 242) = (   0.1999999   0.1154701   0.7744656  )
       243           N   tau( 243) = (   0.0999999   0.2886752   0.1225140  )
       244           N   tau( 244) = (   0.0999999   0.2886752   0.4484898  )
       245           N   tau( 245) = (   0.0999999   0.2886752   0.7744656  )
       246           N   tau( 246) = (  -0.0000001   0.4618803   0.1225140  )
       247           N   tau( 247) = (  -0.0000001   0.4618803   0.4484898  )
       248           N   tau( 248) = (  -0.0000001   0.4618803   0.7744656  )
       249           N   tau( 249) = (  -0.1000001   0.6350854   0.1225140  )
       250           N   tau( 250) = (  -0.1000001   0.6350854   0.4484898  )
       251           N   tau( 251) = (  -0.1000001   0.6350854   0.7744656  )
       252           N   tau( 252) = (  -0.2000001   0.8082905   0.1225140  )
       253           N   tau( 253) = (  -0.2000001   0.8082905   0.4484898  )
       254           N   tau( 254) = (  -0.2000001   0.8082905   0.7744656  )
       255           N   tau( 255) = (   0.3999999   0.1154701   0.1225140  )
       256           N   tau( 256) = (   0.3999999   0.1154701   0.4484898  )
       257           N   tau( 257) = (   0.3999999   0.1154701   0.7744656  )
       258           N   tau( 258) = (   0.2999999   0.2886752   0.1225140  )
       259           N   tau( 259) = (   0.2999999   0.2886752   0.4484898  )
       260           N   tau( 260) = (   0.2999999   0.2886752   0.7744656  )
       261           N   tau( 261) = (   0.1999999   0.4618803   0.1225140  )
       262           N   tau( 262) = (   0.1999999   0.4618803   0.4484898  )
       263           N   tau( 263) = (   0.1999999   0.4618803   0.7744656  )
       264           N   tau( 264) = (   0.0999999   0.6350854   0.1225140  )
       265           N   tau( 265) = (   0.0999999   0.6350854   0.4484898  )
       266           N   tau( 266) = (   0.0999999   0.6350854   0.7744656  )
       267           N   tau( 267) = (  -0.0000001   0.8082905   0.1225140  )
       268           N   tau( 268) = (  -0.0000001   0.8082905   0.4484898  )
       269           N   tau( 269) = (  -0.0000001   0.8082905   0.7744656  )
       270           N   tau( 270) = (   0.5999999   0.1154701   0.1225140  )
       271           N   tau( 271) = (   0.5999999   0.1154701   0.4484898  )
       272           N   tau( 272) = (   0.5999999   0.1154701   0.7744656  )
       273           N   tau( 273) = (   0.4999999   0.2886752   0.1225140  )
       274           N   tau( 274) = (   0.4999999   0.2886752   0.4484898  )
       275           N   tau( 275) = (   0.4999999   0.2886752   0.7744656  )
       276           N   tau( 276) = (   0.3999999   0.4618803   0.1225140  )
       277           N   tau( 277) = (   0.3999999   0.4618803   0.4484898  )
       278           N   tau( 278) = (   0.3999999   0.4618803   0.7744656  )
       279           N   tau( 279) = (   0.2999999   0.6350854   0.1225140  )
       280           N   tau( 280) = (   0.2999999   0.6350854   0.4484898  )
       281           N   tau( 281) = (   0.2999999   0.6350854   0.7744656  )
       282           N   tau( 282) = (   0.1999999   0.8082905   0.1225140  )
       283           N   tau( 283) = (   0.1999999   0.8082905   0.4484898  )
       284           N   tau( 284) = (   0.1999999   0.8082905   0.7744656  )
       285           N   tau( 285) = (   0.7999999   0.1154701   0.1225140  )
       286           N   tau( 286) = (   0.7999999   0.1154701   0.4484898  )
       287           N   tau( 287) = (   0.7999999   0.1154701   0.7744656  )
       288           N   tau( 288) = (   0.6999999   0.2886752   0.1225140  )
       289           N   tau( 289) = (   0.6999999   0.2886752   0.4484898  )
       290           N   tau( 290) = (   0.6999999   0.2886752   0.7744656  )
       291           N   tau( 291) = (   0.5999999   0.4618803   0.1225140  )
       292           N   tau( 292) = (   0.5999999   0.4618803   0.4484898  )
       293           N   tau( 293) = (   0.5999999   0.4618803   0.7744656  )
       294           N   tau( 294) = (   0.4999999   0.6350854   0.1225140  )
       295           N   tau( 295) = (   0.4999999   0.6350854   0.4484898  )
       296           N   tau( 296) = (   0.4999999   0.6350854   0.7744656  )
       297           N   tau( 297) = (   0.3999999   0.8082905   0.1225140  )
       298           N   tau( 298) = (   0.3999999   0.8082905   0.4484898  )
       299           N   tau( 299) = (   0.3999999   0.8082905   0.7744656  )
       300           N   tau( 300) = (   0.1000001   0.0577350   0.1627148  )

   Crystallographic axes

     site n.     atom                  positions (cryst. coord.)
         1           Ga  tau(   1) = (  0.1333334  0.0666666  0.4997208  )
         2           Ga  tau(   2) = (  0.1333334  0.0666666  0.8330541  )
         3           Ga  tau(   3) = (  0.1333334  0.2666666  0.1663874  )
         4           Ga  tau(   4) = (  0.1333334  0.2666666  0.4997208  )
         5           Ga  tau(   5) = (  0.1333334  0.2666666  0.8330541  )
         6           Ga  tau(   6) = (  0.1333334  0.4666666  0.1663874  )
         7           Ga  tau(   7) = (  0.1333334  0.4666666  0.4997208  )
         8           Ga  tau(   8) = (  0.1333334  0.4666666  0.8330541  )
         9           Ga  tau(   9) = (  0.1333334  0.6666666  0.1663874  )
        10           Ga  tau(  10) = (  0.1333334  0.6666666  0.4997208  )
        11           Ga  tau(  11) = (  0.1333334  0.6666666  0.8330541  )
        12           Ga  tau(  12) = (  0.1333334  0.8666666  0.1663874  )
        13           Ga  tau(  13) = (  0.1333334  0.8666666  0.4997208  )
        14           Ga  tau(  14) = (  0.1333334  0.8666666  0.8330541  )
        15           Ga  tau(  15) = (  0.3333334  0.0666666  0.1663874  )
        16           Ga  tau(  16) = (  0.3333334  0.0666666  0.4997208  )
        17           Ga  tau(  17) = (  0.3333334  0.0666666  0.8330541  )
        18           Ga  tau(  18) = (  0.3333334  0.2666666  0.1663874  )
        19           Ga  tau(  19) = (  0.3333334  0.2666666  0.4997208  )
        20           Ga  tau(  20) = (  0.3333334  0.2666666  0.8330541  )
        21           Ga  tau(  21) = (  0.3333334  0.4666666  0.1663874  )
        22           Ga  tau(  22) = (  0.3333334  0.4666666  0.4997208  )
        23           Ga  tau(  23) = (  0.3333334  0.4666666  0.8330541  )
        24           Ga  tau(  24) = (  0.3333334  0.6666666  0.1663874  )
        25           Ga  tau(  25) = (  0.3333334  0.6666666  0.4997208  )
        26           Ga  tau(  26) = (  0.3333334  0.6666666  0.8330541  )
        27           Ga  tau(  27) = (  0.3333334  0.8666666  0.1663874  )
        28           Ga  tau(  28) = (  0.3333334  0.8666666  0.4997208  )
        29           Ga  tau(  29) = (  0.3333334  0.8666666  0.8330541  )
        30           Ga  tau(  30) = (  0.5333334  0.0666666  0.1663874  )
        31           Ga  tau(  31) = (  0.5333334  0.0666666  0.4997208  )
        32           Ga  tau(  32) = (  0.5333334  0.0666666  0.8330541  )
        33           Ga  tau(  33) = (  0.5333334  0.2666666  0.1663874  )
        34           Ga  tau(  34) = (  0.5333334  0.2666666  0.4997208  )
        35           Ga  tau(  35) = (  0.5333334  0.2666666  0.8330541  )
        36           Ga  tau(  36) = (  0.5333334  0.4666666  0.1663874  )
        37           Ga  tau(  37) = (  0.5333334  0.4666666  0.4997208  )
        38           Ga  tau(  38) = (  0.5333334  0.4666666  0.8330541  )
        39           Ga  tau(  39) = (  0.5333334  0.6666666  0.1663874  )
        40           Ga  tau(  40) = (  0.5333334  0.6666666  0.4997208  )
        41           Ga  tau(  41) = (  0.5333334  0.6666666  0.8330541  )
        42           Ga  tau(  42) = (  0.5333334  0.8666666  0.1663874  )
        43           Ga  tau(  43) = (  0.5333334  0.8666666  0.4997208  )
        44           Ga  tau(  44) = (  0.5333334  0.8666666  0.8330541  )
        45           Ga  tau(  45) = (  0.7333334  0.0666666  0.1663874  )
        46           Ga  tau(  46) = (  0.7333334  0.0666666  0.4997208  )
        47           Ga  tau(  47) = (  0.7333334  0.0666666  0.8330541  )
        48           Ga  tau(  48) = (  0.7333334  0.2666666  0.1663874  )
        49           Ga  tau(  49) = (  0.7333334  0.2666666  0.4997208  )
        50           Ga  tau(  50) = (  0.7333334  0.2666666  0.8330541  )
        51           Ga  tau(  51) = (  0.7333334  0.4666666  0.1663874  )
        52           Ga  tau(  52) = (  0.7333334  0.4666666  0.4997208  )
        53           Ga  tau(  53) = (  0.7333334  0.4666666  0.8330541  )
        54           Ga  tau(  54) = (  0.7333334  0.6666666  0.1663874  )
        55           Ga  tau(  55) = (  0.7333334  0.6666666  0.4997208  )
        56           Ga  tau(  56) = (  0.7333334  0.6666666  0.8330541  )
        57           Ga  tau(  57) = (  0.7333334  0.8666666  0.1663874  )
        58           Ga  tau(  58) = (  0.7333334  0.8666666  0.4997208  )
        59           Ga  tau(  59) = (  0.7333334  0.8666666  0.8330541  )
        60           Ga  tau(  60) = (  0.9333334  0.0666666  0.1663874  )
        61           Ga  tau(  61) = (  0.9333334  0.0666666  0.4997208  )
        62           Ga  tau(  62) = (  0.9333334  0.0666666  0.8330541  )
        63           Ga  tau(  63) = (  0.9333334  0.2666666  0.1663874  )
        64           Ga  tau(  64) = (  0.9333334  0.2666666  0.4997208  )
        65           Ga  tau(  65) = (  0.9333334  0.2666666  0.8330541  )
        66           Ga  tau(  66) = (  0.9333334  0.4666666  0.1663874  )
        67           Ga  tau(  67) = (  0.9333334  0.4666666  0.4997208  )
        68           Ga  tau(  68) = (  0.9333334  0.4666666  0.8330541  )
        69           Ga  tau(  69) = (  0.9333334  0.6666666  0.1663874  )
        70           Ga  tau(  70) = (  0.9333334  0.6666666  0.4997208  )
        71           Ga  tau(  71) = (  0.9333334  0.6666666  0.8330541  )
        72           Ga  tau(  72) = (  0.9333334  0.8666666  0.1663874  )
        73           Ga  tau(  73) = (  0.9333334  0.8666666  0.4997208  )
        74           Ga  tau(  74) = (  0.9333334  0.8666666  0.8330541  )
        75           Ga  tau(  75) = (  0.0666666  0.1333334  0.3330541  )
        76           Ga  tau(  76) = (  0.0666666  0.1333334  0.6663874  )
        77           Ga  tau(  77) = (  0.0666666  0.1333334  0.9997208  )
        78           Ga  tau(  78) = (  0.0666666  0.3333334  0.3330541  )
        79           Ga  tau(  79) = (  0.0666666  0.3333334  0.6663874  )
        80           Ga  tau(  80) = (  0.0666666  0.3333334  0.9997208  )
        81           Ga  tau(  81) = (  0.0666666  0.5333334  0.3330541  )
        82           Ga  tau(  82) = (  0.0666666  0.5333334  0.6663874  )
        83           Ga  tau(  83) = (  0.0666666  0.5333334  0.9997208  )
        84           Ga  tau(  84) = (  0.0666666  0.7333334  0.3330541  )
        85           Ga  tau(  85) = (  0.0666666  0.7333334  0.6663874  )
        86           Ga  tau(  86) = (  0.0666666  0.7333334  0.9997208  )
        87           Ga  tau(  87) = (  0.0666666  0.9333334  0.3330541  )
        88           Ga  tau(  88) = (  0.0666666  0.9333334  0.6663874  )
        89           Ga  tau(  89) = (  0.0666666  0.9333334  0.9997208  )
        90           Ga  tau(  90) = (  0.2666666  0.1333334  0.3330541  )
        91           Ga  tau(  91) = (  0.2666666  0.1333334  0.6663874  )
        92           Ga  tau(  92) = (  0.2666666  0.1333334  0.9997208  )
        93           Ga  tau(  93) = (  0.2666666  0.3333334  0.3330541  )
        94           Ga  tau(  94) = (  0.2666666  0.3333334  0.6663874  )
        95           Ga  tau(  95) = (  0.2666666  0.3333334  0.9997208  )
        96           Ga  tau(  96) = (  0.2666666  0.5333334  0.3330541  )
        97           Ga  tau(  97) = (  0.2666666  0.5333334  0.6663874  )
        98           Ga  tau(  98) = (  0.2666666  0.5333334  0.9997208  )
        99           Ga  tau(  99) = (  0.2666666  0.7333334  0.3330541  )
       100           Ga  tau( 100) = (  0.2666666  0.7333334  0.6663874  )
       101           Ga  tau( 101) = (  0.2666666  0.7333334  0.9997208  )
       102           Ga  tau( 102) = (  0.2666666  0.9333334  0.3330541  )
       103           Ga  tau( 103) = (  0.2666666  0.9333334  0.6663874  )
       104           Ga  tau( 104) = (  0.2666666  0.9333334  0.9997208  )
       105           Ga  tau( 105) = (  0.4666666  0.1333334  0.3330541  )
       106           Ga  tau( 106) = (  0.4666666  0.1333334  0.6663874  )
       107           Ga  tau( 107) = (  0.4666666  0.1333334  0.9997208  )
       108           Ga  tau( 108) = (  0.4666666  0.3333334  0.3330541  )
       109           Ga  tau( 109) = (  0.4666666  0.3333334  0.6663874  )
       110           Ga  tau( 110) = (  0.4666666  0.3333334  0.9997208  )
       111           Ga  tau( 111) = (  0.4666666  0.5333334  0.3330541  )
       112           Ga  tau( 112) = (  0.4666666  0.5333334  0.6663874  )
       113           Ga  tau( 113) = (  0.4666666  0.5333334  0.9997208  )
       114           Ga  tau( 114) = (  0.4666666  0.7333334  0.3330541  )
       115           Ga  tau( 115) = (  0.4666666  0.7333334  0.6663874  )
       116           Ga  tau( 116) = (  0.4666666  0.7333334  0.9997208  )
       117           Ga  tau( 117) = (  0.4666666  0.9333334  0.3330541  )
       118           Ga  tau( 118) = (  0.4666666  0.9333334  0.6663874  )
       119           Ga  tau( 119) = (  0.4666666  0.9333334  0.9997208  )
       120           Ga  tau( 120) = (  0.6666666  0.1333334  0.3330541  )
       121           Ga  tau( 121) = (  0.6666666  0.1333334  0.6663874  )
       122           Ga  tau( 122) = (  0.6666666  0.1333334  0.9997208  )
       123           Ga  tau( 123) = (  0.6666666  0.3333334  0.3330541  )
       124           Ga  tau( 124) = (  0.6666666  0.3333334  0.6663874  )
       125           Ga  tau( 125) = (  0.6666666  0.3333334  0.9997208  )
       126           Ga  tau( 126) = (  0.6666666  0.5333334  0.3330541  )
       127           Ga  tau( 127) = (  0.6666666  0.5333334  0.6663874  )
       128           Ga  tau( 128) = (  0.6666666  0.5333334  0.9997208  )
       129           Ga  tau( 129) = (  0.6666666  0.7333334  0.3330541  )
       130           Ga  tau( 130) = (  0.6666666  0.7333334  0.6663874  )
       131           Ga  tau( 131) = (  0.6666666  0.7333334  0.9997208  )
       132           Ga  tau( 132) = (  0.6666666  0.9333334  0.3330541  )
       133           Ga  tau( 133) = (  0.6666666  0.9333334  0.6663874  )
       134           Ga  tau( 134) = (  0.6666666  0.9333334  0.9997208  )
       135           Ga  tau( 135) = (  0.8666666  0.1333334  0.3330541  )
       136           Ga  tau( 136) = (  0.8666666  0.1333334  0.6663874  )
       137           Ga  tau( 137) = (  0.8666666  0.1333334  0.9997208  )
       138           Ga  tau( 138) = (  0.8666666  0.3333334  0.3330541  )
       139           Ga  tau( 139) = (  0.8666666  0.3333334  0.6663874  )
       140           Ga  tau( 140) = (  0.8666666  0.3333334  0.9997208  )
       141           Ga  tau( 141) = (  0.8666666  0.5333334  0.3330541  )
       142           Ga  tau( 142) = (  0.8666666  0.5333334  0.6663874  )
       143           Ga  tau( 143) = (  0.8666666  0.5333334  0.9997208  )
       144           Ga  tau( 144) = (  0.8666666  0.7333334  0.3330541  )
       145           Ga  tau( 145) = (  0.8666666  0.7333334  0.6663874  )
       146           Ga  tau( 146) = (  0.8666666  0.7333334  0.9997208  )
       147           Ga  tau( 147) = (  0.8666666  0.9333334  0.3330541  )
       148           Ga  tau( 148) = (  0.8666666  0.9333334  0.6663874  )
       149           Ga  tau( 149) = (  0.8666666  0.9333334  0.9997208  )
       150           N   tau( 150) = (  0.1333334  0.0666666  0.2919459  )
       151           N   tau( 151) = (  0.1333334  0.0666666  0.6252792  )
       152           N   tau( 152) = (  0.1333334  0.0666666  0.9586126  )
       153           N   tau( 153) = (  0.1333334  0.2666666  0.2919459  )
       154           N   tau( 154) = (  0.1333334  0.2666666  0.6252792  )
       155           N   tau( 155) = (  0.1333334  0.2666666  0.9586126  )
       156           N   tau( 156) = (  0.1333334  0.4666666  0.2919459  )
       157           N   tau( 157) = (  0.1333334  0.4666666  0.6252792  )
       158           N   tau( 158) = (  0.1333334  0.4666666  0.9586126  )
       159           N   tau( 159) = (  0.1333334  0.6666666  0.2919459  )
       160           N   tau( 160) = (  0.1333334  0.6666666  0.6252792  )
       161           N   tau( 161) = (  0.1333334  0.6666666  0.9586126  )
       162           N   tau( 162) = (  0.1333334  0.8666666  0.2919459  )
       163           N   tau( 163) = (  0.1333334  0.8666666  0.6252792  )
       164           N   tau( 164) = (  0.1333334  0.8666666  0.9586126  )
       165           N   tau( 165) = (  0.3333334  0.0666666  0.2919459  )
       166           N   tau( 166) = (  0.3333334  0.0666666  0.6252792  )
       167           N   tau( 167) = (  0.3333334  0.0666666  0.9586126  )
       168           N   tau( 168) = (  0.3333334  0.2666666  0.2919459  )
       169           N   tau( 169) = (  0.3333334  0.2666666  0.6252792  )
       170           N   tau( 170) = (  0.3333334  0.2666666  0.9586126  )
       171           N   tau( 171) = (  0.3333334  0.4666666  0.2919459  )
       172           N   tau( 172) = (  0.3333334  0.4666666  0.6252792  )
       173           N   tau( 173) = (  0.3333334  0.4666666  0.9586126  )
       174           N   tau( 174) = (  0.3333334  0.6666666  0.2919459  )
       175           N   tau( 175) = (  0.3333334  0.6666666  0.6252792  )
       176           N   tau( 176) = (  0.3333334  0.6666666  0.9586126  )
       177           N   tau( 177) = (  0.3333334  0.8666666  0.2919459  )
       178           N   tau( 178) = (  0.3333334  0.8666666  0.6252792  )
       179           N   tau( 179) = (  0.3333334  0.8666666  0.9586126  )
       180           N   tau( 180) = (  0.5333334  0.0666666  0.2919459  )
       181           N   tau( 181) = (  0.5333334  0.0666666  0.6252792  )
       182           N   tau( 182) = (  0.5333334  0.0666666  0.9586126  )
       183           N   tau( 183) = (  0.5333334  0.2666666  0.2919459  )
       184           N   tau( 184) = (  0.5333334  0.2666666  0.6252792  )
       185           N   tau( 185) = (  0.5333334  0.2666666  0.9586126  )
       186           N   tau( 186) = (  0.5333334  0.4666666  0.2919459  )
       187           N   tau( 187) = (  0.5333334  0.4666666  0.6252792  )
       188           N   tau( 188) = (  0.5333334  0.4666666  0.9586126  )
       189           N   tau( 189) = (  0.5333334  0.6666666  0.2919459  )
       190           N   tau( 190) = (  0.5333334  0.6666666  0.6252792  )
       191           N   tau( 191) = (  0.5333334  0.6666666  0.9586126  )
       192           N   tau( 192) = (  0.5333334  0.8666666  0.2919459  )
       193           N   tau( 193) = (  0.5333334  0.8666666  0.6252792  )
       194           N   tau( 194) = (  0.5333334  0.8666666  0.9586126  )
       195           N   tau( 195) = (  0.7333334  0.0666666  0.2919459  )
       196           N   tau( 196) = (  0.7333334  0.0666666  0.6252792  )
       197           N   tau( 197) = (  0.7333334  0.0666666  0.9586126  )
       198           N   tau( 198) = (  0.7333334  0.2666666  0.2919459  )
       199           N   tau( 199) = (  0.7333334  0.2666666  0.6252792  )
       200           N   tau( 200) = (  0.7333334  0.2666666  0.9586126  )
       201           N   tau( 201) = (  0.7333334  0.4666666  0.2919459  )
       202           N   tau( 202) = (  0.7333334  0.4666666  0.6252792  )
       203           N   tau( 203) = (  0.7333334  0.4666666  0.9586126  )
       204           N   tau( 204) = (  0.7333334  0.6666666  0.2919459  )
       205           N   tau( 205) = (  0.7333334  0.6666666  0.6252792  )
       206           N   tau( 206) = (  0.7333334  0.6666666  0.9586126  )
       207           N   tau( 207) = (  0.7333334  0.8666666  0.2919459  )
       208           N   tau( 208) = (  0.7333334  0.8666666  0.6252792  )
       209           N   tau( 209) = (  0.7333334  0.8666666  0.9586126  )
       210           N   tau( 210) = (  0.9333334  0.0666666  0.2919459  )
       211           N   tau( 211) = (  0.9333334  0.0666666  0.6252792  )
       212           N   tau( 212) = (  0.9333334  0.0666666  0.9586126  )
       213           N   tau( 213) = (  0.9333334  0.2666666  0.2919459  )
       214           N   tau( 214) = (  0.9333334  0.2666666  0.6252792  )
       215           N   tau( 215) = (  0.9333334  0.2666666  0.9586126  )
       216           N   tau( 216) = (  0.9333334  0.4666666  0.2919459  )
       217           N   tau( 217) = (  0.9333334  0.4666666  0.6252792  )
       218           N   tau( 218) = (  0.9333334  0.4666666  0.9586126  )
       219           N   tau( 219) = (  0.9333334  0.6666666  0.2919459  )
       220           N   tau( 220) = (  0.9333334  0.6666666  0.6252792  )
       221           N   tau( 221) = (  0.9333334  0.6666666  0.9586126  )
       222           N   tau( 222) = (  0.9333334  0.8666666  0.2919459  )
       223           N   tau( 223) = (  0.9333334  0.8666666  0.6252792  )
       224           N   tau( 224) = (  0.9333334  0.8666666  0.9586126  )
       225           N   tau( 225) = (  0.0666666  0.1333334  0.1252792  )
       226           N   tau( 226) = (  0.0666666  0.1333334  0.4586126  )
       227           N   tau( 227) = (  0.0666666  0.1333334  0.7919459  )
       228           N   tau( 228) = (  0.0666666  0.3333334  0.1252792  )
       229           N   tau( 229) = (  0.0666666  0.3333334  0.4586126  )
       230           N   tau( 230) = (  0.0666666  0.3333334  0.7919459  )
       231           N   tau( 231) = (  0.0666666  0.5333334  0.1252792  )
       232           N   tau( 232) = (  0.0666666  0.5333334  0.4586126  )
       233           N   tau( 233) = (  0.0666666  0.5333334  0.7919459  )
       234           N   tau( 234) = (  0.0666666  0.7333334  0.1252792  )
       235           N   tau( 235) = (  0.0666666  0.7333334  0.4586126  )
       236           N   tau( 236) = (  0.0666666  0.7333334  0.7919459  )
       237           N   tau( 237) = (  0.0666666  0.9333334  0.1252792  )
       238           N   tau( 238) = (  0.0666666  0.9333334  0.4586126  )
       239           N   tau( 239) = (  0.0666666  0.9333334  0.7919459  )
       240           N   tau( 240) = (  0.2666666  0.1333334  0.1252792  )
       241           N   tau( 241) = (  0.2666666  0.1333334  0.4586126  )
       242           N   tau( 242) = (  0.2666666  0.1333334  0.7919459  )
       243           N   tau( 243) = (  0.2666666  0.3333334  0.1252792  )
       244           N   tau( 244) = (  0.2666666  0.3333334  0.4586126  )
       245           N   tau( 245) = (  0.2666666  0.3333334  0.7919459  )
       246           N   tau( 246) = (  0.2666666  0.5333334  0.1252792  )
       247           N   tau( 247) = (  0.2666666  0.5333334  0.4586126  )
       248           N   tau( 248) = (  0.2666666  0.5333334  0.7919459  )
       249           N   tau( 249) = (  0.2666666  0.7333334  0.1252792  )
       250           N   tau( 250) = (  0.2666666  0.7333334  0.4586126  )
       251           N   tau( 251) = (  0.2666666  0.7333334  0.7919459  )
       252           N   tau( 252) = (  0.2666666  0.9333334  0.1252792  )
       253           N   tau( 253) = (  0.2666666  0.9333334  0.4586126  )
       254           N   tau( 254) = (  0.2666666  0.9333334  0.7919459  )
       255           N   tau( 255) = (  0.4666666  0.1333334  0.1252792  )
       256           N   tau( 256) = (  0.4666666  0.1333334  0.4586126  )
       257           N   tau( 257) = (  0.4666666  0.1333334  0.7919459  )
       258           N   tau( 258) = (  0.4666666  0.3333334  0.1252792  )
       259           N   tau( 259) = (  0.4666666  0.3333334  0.4586126  )
       260           N   tau( 260) = (  0.4666666  0.3333334  0.7919459  )
       261           N   tau( 261) = (  0.4666666  0.5333334  0.1252792  )
       262           N   tau( 262) = (  0.4666666  0.5333334  0.4586126  )
       263           N   tau( 263) = (  0.4666666  0.5333334  0.7919459  )
       264           N   tau( 264) = (  0.4666666  0.7333334  0.1252792  )
       265           N   tau( 265) = (  0.4666666  0.7333334  0.4586126  )
       266           N   tau( 266) = (  0.4666666  0.7333334  0.7919459  )
       267           N   tau( 267) = (  0.4666666  0.9333334  0.1252792  )
       268           N   tau( 268) = (  0.4666666  0.9333334  0.4586126  )
       269           N   tau( 269) = (  0.4666666  0.9333334  0.7919459  )
       270           N   tau( 270) = (  0.6666666  0.1333334  0.1252792  )
       271           N   tau( 271) = (  0.6666666  0.1333334  0.4586126  )
       272           N   tau( 272) = (  0.6666666  0.1333334  0.7919459  )
       273           N   tau( 273) = (  0.6666666  0.3333334  0.1252792  )
       274           N   tau( 274) = (  0.6666666  0.3333334  0.4586126  )
       275           N   tau( 275) = (  0.6666666  0.3333334  0.7919459  )
       276           N   tau( 276) = (  0.6666666  0.5333334  0.1252792  )
       277           N   tau( 277) = (  0.6666666  0.5333334  0.4586126  )
       278           N   tau( 278) = (  0.6666666  0.5333334  0.7919459  )
       279           N   tau( 279) = (  0.6666666  0.7333334  0.1252792  )
       280           N   tau( 280) = (  0.6666666  0.7333334  0.4586126  )
       281           N   tau( 281) = (  0.6666666  0.7333334  0.7919459  )
       282           N   tau( 282) = (  0.6666666  0.9333334  0.1252792  )
       283           N   tau( 283) = (  0.6666666  0.9333334  0.4586126  )
       284           N   tau( 284) = (  0.6666666  0.9333334  0.7919459  )
       285           N   tau( 285) = (  0.8666666  0.1333334  0.1252792  )
       286           N   tau( 286) = (  0.8666666  0.1333334  0.4586126  )
       287           N   tau( 287) = (  0.8666666  0.1333334  0.7919459  )
       288           N   tau( 288) = (  0.8666666  0.3333334  0.1252792  )
       289           N   tau( 289) = (  0.8666666  0.3333334  0.4586126  )
       290           N   tau( 290) = (  0.8666666  0.3333334  0.7919459  )
       291           N   tau( 291) = (  0.8666666  0.5333334  0.1252792  )
       292           N   tau( 292) = (  0.8666666  0.5333334  0.4586126  )
       293           N   tau( 293) = (  0.8666666  0.5333334  0.7919459  )
       294           N   tau( 294) = (  0.8666666  0.7333334  0.1252792  )
       295           N   tau( 295) = (  0.8666666  0.7333334  0.4586126  )
       296           N   tau( 296) = (  0.8666666  0.7333334  0.7919459  )
       297           N   tau( 297) = (  0.8666666  0.9333334  0.1252792  )
       298           N   tau( 298) = (  0.8666666  0.9333334  0.4586126  )
       299           N   tau( 299) = (  0.8666666  0.9333334  0.7919459  )
       300           N   tau( 300) = (  0.1333334  0.0666666  0.1663874  )

     number of k points=     6  Gaussian smearing, width (Ry)=  0.0100
                       cart. coord. in units 2pi/alat
        k(    1) = (   0.0000000   0.0000000   0.0000000), wk =   0.2500000
        k(    2) = (   0.0000000   0.0000000  -0.5112854), wk =   0.2500000
        k(    3) = (   0.0000000  -0.5773503   0.0000000), wk =   0.5000000
        k(    4) = (   0.0000000  -0.5773503  -0.5112854), wk =   0.5000000
        k(    5) = (  -0.5000000  -0.2886751   0.0000000), wk =   0.2500000
        k(    6) = (  -0.5000000  -0.2886751  -0.5112854), wk =   0.2500000

                       cryst. coord.
        k(    1) = (   0.0000000   0.0000000   0.0000000), wk =   0.2500000
        k(    2) = (   0.0000000   0.0000000  -0.5000000), wk =   0.2500000
        k(    3) = (   0.0000000  -0.5000000   0.0000000), wk =   0.5000000
        k(    4) = (   0.0000000  -0.5000000  -0.5000000), wk =   0.5000000
        k(    5) = (  -0.5000000  -0.0000000   0.0000000), wk =   0.2500000
        k(    6) = (  -0.5000000  -0.0000000  -0.5000000), wk =   0.2500000

     Dense  grid:  2698283 G-vectors     FFT dimensions: ( 192, 192, 180)

     Smooth grid:  1930731 G-vectors     FFT dimensions: ( 180, 180, 160)

     Dynamical RAM for                 wfc:      92.90 MB

     Dynamical RAM for     wfc (w. buffer):     278.71 MB

     Dynamical RAM for           str. fact:       1.29 MB

     Dynamical RAM for           local pot:       0.00 MB

     Dynamical RAM for          nlocal pot:     223.77 MB

     Dynamical RAM for                qrad:       3.00 MB

     Dynamical RAM for          rho,v,vnew:       4.46 MB

     Dynamical RAM for               rhoin:       1.49 MB

     Dynamical RAM for            rho*nmix:      10.29 MB

     Dynamical RAM for           G-vectors:       2.64 MB

     Dynamical RAM for          h,s,v(r/c):    1910.32 MB

     Dynamical RAM for          <psi|beta>:      95.86 MB

     Dynamical RAM for                 psi:     371.62 MB

     Dynamical RAM for                hpsi:     371.62 MB

     Dynamical RAM for                spsi:     371.62 MB

     Dynamical RAM for      wfcinit/wfcrot:     245.52 MB

     Dynamical RAM for           addusdens:      54.68 MB

     Dynamical RAM for          addusforce:     103.36 MB

     Dynamical RAM for         addusstress:      32.57 MB

     Estimated static dynamical RAM per process >     521.52 MB

     Estimated max dynamical RAM per process >       3.57 GB

     Estimated total dynamical RAM >     911.28 GB

     Atomic positions and unit cell read from directory:
     ./GaN.save/
     Atomic positions from file used, from input discarded
 

     Check: negative core charge=   -0.000003

     The initial density is read from file :
     ./GaN.save/charge-density



     %%%%%%%%%%%%%%%%%%%%%%%%%%%%%%%%%%%%%%%%%%%%%%%%%%%%%%%%%%%%%%%%%%%%%%%%
     %                                                                      %
     % You are using vdW-DF, which was implemented by the Thonhauser group. %
     % Please cite the following two papers that made this development      %
     % possible and the two reviews that describe the various versions:     %
     %                                                                      %
     %   T. Thonhauser et al., PRL 115, 136402 (2015).                      %
     %   T. Thonhauser et al., PRB 76, 125112 (2007).                       %
     %   K. Berland et al., Rep. Prog. Phys. 78, 066501 (2015).             %
     %   D.C. Langreth et al., J. Phys.: Condens. Matter 21, 084203 (2009). %
     %                                                                      %
     % If you are calculating stress with vdW-DF, please also cite:         %
     %                                                                      %
     %   R. Sabatini et al., J. Phys.: Condens. Matter 24, 424209 (2012).   %
     %                                                                      %
     %%%%%%%%%%%%%%%%%%%%%%%%%%%%%%%%%%%%%%%%%%%%%%%%%%%%%%%%%%%%%%%%%%%%%%%%

     %%%%%%%%%%%%%%%%%%%%%%%%%%%%%%%%%%%%%%%%%%%%%%%%%%%%%%%%%%%%%%%%%%%%%%%%
     %                                                                      %
     %  vdW-DF NEWS:                                                        %
     %                                                                      %
     %  * vdW-DF3 is now available. DOI: 10.1021/acs.jctc.0c00471           %
     %    use with input_dft = 'vdW-DF3-opt1' or 'vdW-DF3-opt2'             %
     %                                                                      %
     %  * Unscreened and range-separated vdW-DF hybrid functionals          %
     %    DOI: 10.1063/1.4986522 and 10.1088/1361-648X/ac2ad2               %
     %    use with input_dft = 'vdW-DF-cx0' (etc) and 'vdW-DF-ahcx'         %
     %                                                                      %
     %%%%%%%%%%%%%%%%%%%%%%%%%%%%%%%%%%%%%%%%%%%%%%%%%%%%%%%%%%%%%%%%%%%%%%%%


     Carrying out vdW-DF run using the following parameters:
     Nqs    =  20  Npoints =  1024  r_max =  100.000
     q_mesh =  0.00001000  0.04494208  0.09755937  0.15916263
               0.23128650  0.31572767  0.41458969  0.53033537
               0.66584808  0.82450364  1.01025438  1.22772762
               1.48234092  1.78043706  2.12944203  2.53805004
               3.01644009  3.57652955  4.23227104  5.00000000


     -----------------------------------------------
     Non-local corr. energy    =      81.33760797 Ry
     -----------------------------------------------

     Starting wfcs from file
     Checking if some PAW data can be deallocated... 
       PAW data deallocated on  151 nodes for type:  1
       PAW data deallocated on  105 nodes for type:  2

     total cpu time spent up to now is        8.6 secs

     Self-consistent Calculation

     iteration #  1     ecut=    70.00 Ry     beta= 0.70
     Davidson diagonalization with overlap

---- Real-time Memory Report at c_bands before calling an iterative solver
           302 MiB given to the printing process from OS
             0 MiB allocation reported by mallinfo(arena+hblkhd)
       2013817 MiB available memory on the node where the printing process lives
------------------
     ethr =  1.00E-05,  avg # of iterations =  1.0

     Threshold (ethr) on eigenvalues was too large:
     Diagonalizing with lowered threshold

     Davidson diagonalization with overlap

---- Real-time Memory Report at c_bands before calling an iterative solver
          2329 MiB given to the printing process from OS
             0 MiB allocation reported by mallinfo(arena+hblkhd)
       1920910 MiB available memory on the node where the printing process lives
------------------
     c_bands:  1 eigenvalues not converged
     ethr =  2.09E-12,  avg # of iterations = 19.0


     -----------------------------------------------
     Non-local corr. energy    =      81.33760458 Ry
     -----------------------------------------------


     total cpu time spent up to now is     2932.1 secs

     End of self-consistent calculation

          k = 0.0000 0.0000 0.0000 (241213 PWs)   bands (ev):

    -9.5812  -6.8805  -6.7002  -6.6832  -6.6823  -6.6742  -6.6558  -6.6505
    -6.6482  -6.6449  -6.5928  -6.5797  -6.5688  -6.5415  -6.5245  -6.5235
    -6.5217  -6.5204  -6.5189  -6.5167  -6.5130  -6.5129  -6.4977  -6.4971
    -6.4901  -6.4791  -6.4671  -6.4657  -6.4645  -6.4636  -6.4611  -6.4598
    -6.4565  -6.4510  -6.4487  -6.4474  -6.4466  -6.4463  -6.4356  -6.4246
    -6.4232  -6.4216  -6.4192  -6.4177  -6.4151  -6.4147  -6.4141  -6.4134
    -6.4111  -6.4092  -6.4076  -6.4057  -6.4043  -6.4037  -6.4024  -6.4014
    -6.4012  -6.4009  -6.3995  -6.3980  -6.3978  -6.3974  -6.3970  -6.3959
    -6.3957  -6.3955  -6.3950  -6.3938  -6.3936  -6.3931  -6.3925  -6.3918
    -6.3894  -6.3858  -6.3848  -6.3839  -6.3830  -6.3829  -6.3818  -6.3814
    -6.3809  -6.3790  -6.3782  -6.3780  -6.3776  -6.3765  -6.3757  -6.3756
    -6.3752  -6.3752  -6.3739  -6.3724  -6.3723  -6.3714  -6.3711  -6.3687
    -6.3678  -6.3664  -6.3654  -6.3645  -6.3621  -6.3609  -6.3597  -6.3595
    -6.3586  -6.3573  -6.3571  -6.3550  -6.3535  -6.3516  -6.3496  -6.3491
    -6.3487  -6.3480  -6.3477  -6.3476  -6.3467  -6.3425  -6.3423  -6.3410
    -6.3383  -6.3374  -6.3369  -6.3366  -6.3365  -6.3351  -6.3343  -6.3343
    -6.3322  -6.3288  -6.3276  -6.3268  -6.3262  -6.3242  -6.3235  -6.3215
    -6.3193  -6.3190  -6.3130  -6.3096  -6.3080  -6.3028  -6.3025  -6.2992
    -6.2709  -6.2519  -6.1862  -6.1826  -6.1709  -5.7900  -5.5549  -5.4843
    -5.4809  -5.4802  -5.4645  -5.4506  -5.4477  -5.4449  -5.4289  -5.4245
    -5.4209  -5.4160  -5.4030  -5.4013  -5.3982  -5.3914  -5.3871  -5.3824
    -5.3725  -5.3677  -5.3648  -5.3587  -5.3564  -5.3519  -5.3494  -5.3455
    -5.3431  -5.3330  -5.3317  -5.3295  -5.3275  -5.3185  -5.3183  -5.3174
    -5.3165  -5.3139  -5.3093  -5.3060  -5.3047  -5.3044  -5.3029  -5.2998
    -5.2977  -5.2961  -5.2945  -5.2943  -5.2923  -5.2920  -5.2914  -5.2897
    -5.2880  -5.2873  -5.2862  -5.2835  -5.2829  -5.2825  -5.2820  -5.2794
    -5.2782  -5.2772  -5.2761  -5.2760  -5.2754  -5.2742  -5.2736  -5.2729
    -5.2728  -5.2725  -5.2718  -5.2711  -5.2709  -5.2703  -5.2686  -5.2668
    -5.2664  -5.2658  -5.2655  -5.2627  -5.2621  -5.2618  -5.2615  -5.2603
    -5.2602  -5.2597  -5.2596  -5.2582  -5.2578  -5.2569  -5.2566  -5.2556
    -5.2548  -5.2533  -5.2531  -5.2528  -5.2522  -5.2516  -5.2494  -5.2493
    -5.2491  -5.2482  -5.2479  -5.2476  -5.2475  -5.2465  -5.2447  -5.2445
    -5.2440  -5.2430  -5.2424  -5.2406  -5.2401  -5.2400  -5.2392  -5.2386
    -5.2386  -5.2377  -5.2372  -5.2366  -5.2359  -5.2355  -5.2354  -5.2352
    -5.2348  -5.2347  -5.2336  -5.2328  -5.2321  -5.2312  -5.2308  -5.2303
    -5.2297  -5.2285  -5.2283  -5.2282  -5.2280  -5.2280  -5.2260  -5.2257
    -5.2251  -5.2251  -5.2243  -5.2242  -5.2235  -5.2234  -5.2231  -5.2227
    -5.2224  -5.2219  -5.2219  -5.2218  -5.2215  -5.2211  -5.2207  -5.2204
    -5.2197  -5.2191  -5.2184  -5.2181  -5.2175  -5.2167  -5.2164  -5.2159
    -5.2157  -5.2152  -5.2144  -5.2136  -5.2135  -5.2132  -5.2132  -5.2116
    -5.2110  -5.2107  -5.2101  -5.2098  -5.2094  -5.2091  -5.2087  -5.2084
    -5.2084  -5.2064  -5.2064  -5.2052  -5.2041  -5.2029  -5.2025  -5.2022
    -5.2019  -5.2013  -5.2013  -5.2000  -5.1997  -5.1997  -5.1980  -5.1977
    -5.1975  -5.1961  -5.1960  -5.1955  -5.1954  -5.1950  -5.1950  -5.1936
    -5.1927  -5.1926  -5.1922  -5.1913  -5.1912  -5.1897  -5.1897  -5.1890
    -5.1888  -5.1885  -5.1880  -5.1877  -5.1876  -5.1871  -5.1869  -5.1859
    -5.1858  -5.1839  -5.1831  -5.1825  -5.1815  -5.1809  -5.1804  -5.1796
    -5.1784  -5.1772  -5.1768  -5.1766  -5.1758  -5.1756  -5.1744  -5.1738
    -5.1734  -5.1732  -5.1725  -5.1715  -5.1714  -5.1708  -5.1702  -5.1696
    -5.1689  -5.1669  -5.1667  -5.1655  -5.1653  -5.1652  -5.1636  -5.1635
    -5.1623  -5.1618  -5.1617  -5.1605  -5.1604  -5.1596  -5.1581  -5.1579
    -5.1576  -5.1573  -5.1569  -5.1551  -5.1551  -5.1541  -5.1536  -5.1530
    -5.1514  -5.1514  -5.1507  -5.1506  -5.1493  -5.1489  -5.1485  -5.1480
    -5.1469  -5.1467  -5.1456  -5.1455  -5.1447  -5.1443  -5.1439  -5.1433
    -5.1423  -5.1418  -5.1414  -5.1410  -5.1388  -5.1386  -5.1383  -5.1383
    -5.1376  -5.1367  -5.1364  -5.1363  -5.1359  -5.1357  -5.1352  -5.1348
    -5.1346  -5.1343  -5.1338  -5.1332  -5.1325  -5.1322  -5.1318  -5.1311
    -5.1308  -5.1307  -5.1304  -5.1297  -5.1297  -5.1291  -5.1289  -5.1279
    -5.1272  -5.1271  -5.1265  -5.1257  -5.1255  -5.1253  -5.1251  -5.1242
    -5.1239  -5.1230  -5.1230  -5.1224  -5.1224  -5.1216  -5.1210  -5.1209
    -5.1207  -5.1201  -5.1195  -5.1195  -5.1184  -5.1182  -5.1175  -5.1170
    -5.1168  -5.1166  -5.1165  -5.1151  -5.1151  -5.1144  -5.1144  -5.1138
    -5.1133  -5.1130  -5.1130  -5.1120  -5.1116  -5.1112  -5.1109  -5.1087
    -5.1087  -5.1084  -5.1082  -5.1077  -5.1076  -5.1074  -5.1072  -5.1065
    -5.1062  -5.1061  -5.1057  -5.1054  -5.1047  -5.1047  -5.1038  -5.1027
    -5.1023  -5.1021  -5.1017  -5.1016  -5.1003  -5.1003  -5.0996  -5.0991
    -5.0986  -5.0983  -5.0981  -5.0981  -5.0977  -5.0976  -5.0975  -5.0973
    -5.0969  -5.0963  -5.0961  -5.0956  -5.0951  -5.0946  -5.0942  -5.0934
    -5.0933  -5.0926  -5.0926  -5.0918  -5.0915  -5.0908  -5.0900  -5.0896
    -5.0891  -5.0887  -5.0885  -5.0883  -5.0874  -5.0870  -5.0868  -5.0865
    -5.0861  -5.0859  -5.0858  -5.0850  -5.0841  -5.0839  -5.0828  -5.0825
    -5.0817  -5.0814  -5.0812  -5.0807  -5.0807  -5.0804  -5.0799  -5.0785
    -5.0777  -5.0774  -5.0761  -5.0761  -5.0758  -5.0744  -5.0733  -5.0728
    -5.0725  -5.0724  -5.0715  -5.0714  -5.0710  -5.0707  -5.0703  -5.0691
    -5.0686  -5.0677  -5.0660  -5.0656  -5.0655  -5.0651  -5.0651  -5.0648
    -5.0646  -5.0644  -5.0639  -5.0629  -5.0627  -5.0626  -5.0617  -5.0616
    -5.0614  -5.0613  -5.0611  -5.0609  -5.0593  -5.0588  -5.0587  -5.0583
    -5.0580  -5.0575  -5.0571  -5.0568  -5.0567  -5.0562  -5.0561  -5.0554
    -5.0549  -5.0547  -5.0542  -5.0541  -5.0533  -5.0528  -5.0524  -5.0518
    -5.0513  -5.0512  -5.0507  -5.0506  -5.0504  -5.0483  -5.0483  -5.0480
    -5.0476  -5.0472  -5.0469  -5.0464  -5.0459  -5.0457  -5.0452  -5.0451
    -5.0427  -5.0425  -5.0398  -5.0384  -5.0381  -5.0377  -5.0376  -5.0369
    -5.0362  -5.0352  -5.0348  -5.0346  -5.0338  -5.0326  -5.0324  -5.0319
    -5.0319  -5.0317  -5.0309  -5.0307  -5.0300  -5.0299  -5.0299  -5.0290
    -5.0288  -5.0281  -5.0275  -5.0274  -5.0264  -5.0258  -5.0251  -5.0248
    -5.0246  -5.0243  -5.0227  -5.0218  -5.0214  -5.0212  -5.0198  -5.0192
    -5.0185  -5.0169  -5.0167  -5.0156  -5.0153  -5.0138  -5.0134  -5.0133
    -5.0112  -5.0107  -5.0105  -5.0090  -5.0084  -5.0075  -5.0068  -5.0061
    -5.0059  -5.0047  -5.0028  -5.0022  -4.9998  -4.9989  -4.9982  -4.9968
    -4.9940  -4.9939  -4.9913  -4.9912  -4.9905  -4.9831  -4.9823  -4.9817
    -4.9806  -4.9786  -4.9772  -4.9768  -4.9712  -4.9642  -4.9638  -4.9561
    -4.9543  -4.9526  -4.9498  -4.9485  -4.9364  -4.9349  -4.9218  -4.9216
    -4.9208  -4.9202  -4.9092  -4.9087  -4.9044  -4.8773  -4.8566  -4.8531
    -4.8398  -4.8381  -4.8351  -4.8208  -4.8178  -4.8061  -4.8033  -4.8022
    -4.7996  -4.7834  -4.7818  -4.7752  -4.7605  -4.7582  -4.7396  -4.7363
    -4.6713  -4.6658  -4.6612  -4.6374  -4.6178  -4.6074  -4.6025  -4.5474
    -4.4887  -4.3615  -4.3610  -4.3496  -4.3269  -4.2976  -4.2855  -4.2697
    -4.2623  -4.1241  -4.1237  -4.1133  -4.1020  -4.1020  -4.1006  -4.1000
    -4.0964  -4.0927  -4.0710  -4.0690  -4.0663  -4.0545  -4.0434  -4.0424
    -3.9964  -3.9934  -3.9924  -3.9820  -3.9814  -3.9797  -3.9742  -3.9739
    -3.9722  -3.9610  -3.9587  -3.9267  -3.9149  -3.8992  -3.8663  -3.8559
    -3.8431  -3.8425  -3.8325  -3.8323  -3.8320  -3.8182  -3.8177  -3.7870
    -3.6979  -3.6743  -3.5725  -3.5246  -3.4422  -3.4377  -3.4358  -3.4287
    -3.4282  -3.4215  -3.4208  -3.4156  -3.4124  -3.4123  -3.4115  -3.4097
    -3.4084  -3.4072  -3.3848  -3.3604  -3.3587  -3.3467  -3.3245  -3.3229
    -3.3145  -3.3125  -3.3125  -3.3089  -3.3084  -3.3078  -3.3005  -3.3005
    -3.2984  -3.2982  -3.2966  -3.2929  -3.2925  -3.2855  -3.2852  -3.2824
    -3.2784  -3.2784  -3.2769  -3.2766  -3.2758  -3.2542  -3.2534  -3.2519
    -3.1706  -3.1583  -3.1563  -3.1076  -3.1065  -3.0974  -3.0944  -3.0843
    -3.0839  -3.0676  -3.0644  -3.0635  -2.9854  -2.9682  -2.9682  -2.9654
    -2.9604  -2.9595  -2.9593  -2.9484  -2.9443  -2.9440  -2.9414  -2.9397
    -2.9382  -2.9318  -2.9289  -2.9256  -2.8992  -2.8949  -2.3709  -1.3368
     2.0516   2.1632   2.2594   2.4403   2.5305   2.5345   2.5410   2.5454
     2.5478   2.5803   2.5806   2.5943   2.5959   2.5962   2.5988   2.6000
     2.6015   2.6024   2.6025   2.6035   2.6045   2.6075   2.6088   2.6093
     2.6096   2.6100   2.6160   2.6169   2.6188   2.6234   2.7400   2.7443
     2.7528   2.7681   2.7687   2.7694   2.8029   2.8141   2.8263   2.9231
     2.9279   2.9290   2.9402   2.9408   2.9499   2.9659   2.9668   2.9730
     2.9741   2.9743   2.9853   3.0076   3.0087   3.0161   3.0215   3.0425
     3.0529   3.0999   3.1009   3.1164   3.1183   3.1204   3.1474   3.2122
     3.2138   3.2196   3.2198   3.2202   3.2230   3.2233   3.2340   3.2366
     3.2566   3.2575   3.2578   3.2642   3.2653   3.2671   3.2695   3.2701
     3.2801   3.2933   3.3085   3.3108   3.4820   3.4949   3.5209   3.5852
     3.5960   3.6426   3.6744   3.6745   3.6773   3.6813   3.6839   3.6844
     3.6861   3.6897   3.6942   3.6948   3.7050   3.7075   3.7078   3.7561
     3.7740   3.7790   3.8916   3.9059   3.9090   3.9275   3.9395   3.9396
     3.9525   3.9638   3.9649   3.9659   3.9719   3.9734   3.9741   3.9969
     3.9986   4.0609   4.1755   4.1811   4.4823   4.5071   4.5096   4.5117
     4.5157   4.5295   4.5329   4.5567   4.5677   4.5685   4.5756   4.5886
     4.5913   4.5938   4.6157   4.6179   4.6455   4.6652   4.6686   4.7004
     4.7025   4.7086   4.7955   4.7958   4.9656   4.9661   4.9674   4.9815
     4.9823   4.9825   4.9885   4.9996   5.0007   5.0098   5.1436   5.1731
     5.2371   5.3142   5.4481   5.4485   5.4504   5.4542   5.4560   5.4570
     5.4575   5.4628   5.4633   5.4642   5.4646   5.4748   5.4764   5.5336
     5.5354   5.5447   5.5905   5.6587   5.6678   5.6681   5.6924   5.6932
     5.7534   5.7885   5.8505   5.8516   5.8637   5.8640   5.8654   5.8865
     5.8885   5.8947   5.9004   5.9008   5.9014   5.9131   5.9134   5.9264
     5.9282   5.9348   5.9398   5.9700   5.9711   5.9723   5.9737   5.9744
     5.9780   5.9782   5.9795   5.9796   5.9803   5.9904   5.9922   5.9965
     5.9973   5.9983   6.0008   6.0024   6.0087   6.0122   6.0169   6.0169
     6.0210   6.0219   6.0227   6.0235   6.0238   6.0242   6.0401   6.0402
     6.0545   6.0628   6.0785   6.0788   6.1475   6.1579   6.2206   6.2721
     6.2902   6.2936   6.2945   6.3150   6.3151   6.3171   6.3204   6.3320
     6.3330   6.3346   6.3369   6.3377   6.3545   6.3577   6.4045   6.4125
     6.4276   6.4439   6.4712   6.4717   6.4763   6.5076   6.5087   6.5149
     6.5224   6.5327   6.5343   6.5475   6.5579   6.5580   6.6102   6.6217
     6.6297   6.6299   6.6308   6.6310   6.6329   6.6369   6.6374   6.6376
     6.6382   6.6417   6.6452   6.6458   6.6463   6.6500   6.6514   6.6580
     6.6677   6.6849   6.6903   6.6990   6.7180   6.7181   6.7315   6.7318
     6.7345   6.7519   6.8128   6.8128   6.8344   6.8457   6.8499   6.8520
     6.8544   6.8561   6.8570   6.8867   6.8880   6.8885   7.0058   7.0231
     7.0707   7.0767   7.1022   7.1050   7.1064   7.1076   7.1133   7.1143
     7.1424   7.1771   7.2205   7.2381   7.2417   7.2737   7.2739   7.2754
     7.2756   7.2765   7.2891   7.2902   7.3007   7.3028   7.3164   7.3168
     7.3529   7.3546   7.3628   7.3662   7.3693   7.3747   7.3773   7.3822
     7.3862   7.3866   7.3885   7.3886   7.3890   7.3964   7.3967   7.3992
     7.4020   7.4035   7.4088   7.4093   7.4116   7.4214   7.4215   7.4235
     7.4265   7.4267   7.4280   7.4311   7.4313   7.4335   7.4351   7.4385
     7.4386   7.4402   7.4428   7.4466   7.4473   7.4941   7.4946   7.5002
     7.5311   7.5330   7.5453   7.5455   7.5512   7.5706   7.6162   7.6168
     7.6183   7.6201   7.6229   7.6233   7.6243   7.6272   7.6306   7.6603
     7.6681   7.6690   7.6733   7.6916   7.6940   7.6988   7.7001   7.7011
     7.7050   7.7051   7.7068   7.7245   7.7279   7.8049   7.8074   7.8689
     7.8704   7.8763   7.8778   7.8781   7.8979   7.9558   7.9605   8.0121
     8.0125   8.0388   8.0393   8.0465   8.0481   8.0492   8.0621   8.0659
     8.0661   8.0705   8.0903   8.1079   8.1423   8.1425   8.3041   8.3065
     8.3094   8.3126   8.3169   8.4079   8.4081   8.4118   8.4192   8.4210
     8.4309   8.4741   8.4750   8.5281   8.5285   8.5922   8.7570   8.7579
     8.9321   9.8829  10.2631  11.4217  11.9889  12.0036  12.0203  12.1144
    12.1634  12.1669  12.1822  12.3104  12.5252  12.5924  12.6853  12.8075
    12.8188  12.8657  12.8734  12.8736  12.8828  12.8828  12.8966  12.8990
    12.9019  12.9150  12.9159  12.9209  12.9252  12.9285  12.9293  12.9482
    12.9503  12.9532  12.9574  12.9575  12.9591  13.1232  13.1980  13.3009
    13.3607  13.6362  13.6379  13.6529  13.6559  13.6587  13.6742  13.7347
    13.7354  13.7499  13.7591  13.7671  13.8273  13.8347  13.8355  13.8375
    13.8544  13.8552  13.8637  13.8647  13.8695  13.8780  13.8804  13.8825
    13.8857  13.8876  13.8930  13.8989  13.9271  13.9287  13.9315  13.9577
    13.9587  13.9605  13.9896  13.9901  13.9949  14.0017  14.0058  14.0111
    14.0213  14.0271  14.0276  14.0364  14.0372  14.0403  14.0629  14.0647
    14.0767  14.0769  14.0922  14.1057  14.1066  14.1091  14.1332  14.1493
    14.1500  14.1574  14.1663  14.1670  14.1727  14.1745  14.1907  14.1976
    14.2054  14.2058  14.2161  14.2169  14.2527  14.4242  14.4253  14.4452
    14.4707  14.4850  14.5108  14.5257  14.5876  14.7071  14.7661  14.7756
    14.7961  14.8065  14.8510  14.8560  14.8595  14.8868  14.8932  14.9019
    14.9233  14.9258  14.9350  14.9463  15.0156  15.0168  15.0274  15.0353
    15.0359  15.0810  15.0830  15.0873  15.0976  15.0997  15.1134  15.1247
    15.1261  15.1332  15.1383  15.1442  15.1607  15.1955  15.2215  15.2246
    15.3181  15.3340  15.3413  15.3508  15.3747  15.3867  15.3944  15.4989
    15.5067  15.5485  15.6223  15.6264  15.6814  15.6838  15.7161  15.7281
    15.7640  15.7698  15.7716  15.8004  15.8060  15.8818  15.8879  15.9061
    15.9079  15.9197  15.9264  15.9368  15.9498  15.9579  15.9695  15.9711
    15.9922  15.9922  15.9966  16.0002  16.0452  16.0559  16.0574  16.0756
    16.0787  16.0975  16.0998  16.1014  16.1129  16.1133  16.1148  16.1157
    16.1167  16.1214  16.1230  16.1254  16.1255  16.1296  16.1537  16.1547
    16.1588  16.1611  16.1680  16.1690  16.1701  16.1796  16.1876  16.1969
    16.2012  16.2209  16.2252  16.2314  16.2322  16.2487  16.2757  16.2845
    16.2904  16.2925  16.2940  16.2960  16.3121  16.3156  16.3324  16.3357
    16.3386  16.3443  16.3446  16.3523  16.3524  16.3548  16.3591  16.3623
    16.3623  16.3665  16.3666  16.3695  16.3778  16.3784  16.3845  16.3935
    16.3945  16.4052  16.4064  16.4166  16.4239  16.4324  16.4385  16.4419
    16.4421  16.4469  16.4485  16.4716  16.4831  16.4981  16.5100  16.5197
    16.5283  16.5480  16.5659  16.6013  16.6036  16.6088  16.6281

     occupation numbers 
     1.0000   1.0000   1.0000   1.0000   1.0000   1.0000   1.0000   1.0000
     1.0000   1.0000   1.0000   1.0000   1.0000   1.0000   1.0000   1.0000
     1.0000   1.0000   1.0000   1.0000   1.0000   1.0000   1.0000   1.0000
     1.0000   1.0000   1.0000   1.0000   1.0000   1.0000   1.0000   1.0000
     1.0000   1.0000   1.0000   1.0000   1.0000   1.0000   1.0000   1.0000
     1.0000   1.0000   1.0000   1.0000   1.0000   1.0000   1.0000   1.0000
     1.0000   1.0000   1.0000   1.0000   1.0000   1.0000   1.0000   1.0000
     1.0000   1.0000   1.0000   1.0000   1.0000   1.0000   1.0000   1.0000
     1.0000   1.0000   1.0000   1.0000   1.0000   1.0000   1.0000   1.0000
     1.0000   1.0000   1.0000   1.0000   1.0000   1.0000   1.0000   1.0000
     1.0000   1.0000   1.0000   1.0000   1.0000   1.0000   1.0000   1.0000
     1.0000   1.0000   1.0000   1.0000   1.0000   1.0000   1.0000   1.0000
     1.0000   1.0000   1.0000   1.0000   1.0000   1.0000   1.0000   1.0000
     1.0000   1.0000   1.0000   1.0000   1.0000   1.0000   1.0000   1.0000
     1.0000   1.0000   1.0000   1.0000   1.0000   1.0000   1.0000   1.0000
     1.0000   1.0000   1.0000   1.0000   1.0000   1.0000   1.0000   1.0000
     1.0000   1.0000   1.0000   1.0000   1.0000   1.0000   1.0000   1.0000
     1.0000   1.0000   1.0000   1.0000   1.0000   1.0000   1.0000   1.0000
     1.0000   1.0000   1.0000   1.0000   1.0000   1.0000   1.0000   1.0000
     1.0000   1.0000   1.0000   1.0000   1.0000   1.0000   1.0000   1.0000
     1.0000   1.0000   1.0000   1.0000   1.0000   1.0000   1.0000   1.0000
     1.0000   1.0000   1.0000   1.0000   1.0000   1.0000   1.0000   1.0000
     1.0000   1.0000   1.0000   1.0000   1.0000   1.0000   1.0000   1.0000
     1.0000   1.0000   1.0000   1.0000   1.0000   1.0000   1.0000   1.0000
     1.0000   1.0000   1.0000   1.0000   1.0000   1.0000   1.0000   1.0000
     1.0000   1.0000   1.0000   1.0000   1.0000   1.0000   1.0000   1.0000
     1.0000   1.0000   1.0000   1.0000   1.0000   1.0000   1.0000   1.0000
     1.0000   1.0000   1.0000   1.0000   1.0000   1.0000   1.0000   1.0000
     1.0000   1.0000   1.0000   1.0000   1.0000   1.0000   1.0000   1.0000
     1.0000   1.0000   1.0000   1.0000   1.0000   1.0000   1.0000   1.0000
     1.0000   1.0000   1.0000   1.0000   1.0000   1.0000   1.0000   1.0000
     1.0000   1.0000   1.0000   1.0000   1.0000   1.0000   1.0000   1.0000
     1.0000   1.0000   1.0000   1.0000   1.0000   1.0000   1.0000   1.0000
     1.0000   1.0000   1.0000   1.0000   1.0000   1.0000   1.0000   1.0000
     1.0000   1.0000   1.0000   1.0000   1.0000   1.0000   1.0000   1.0000
     1.0000   1.0000   1.0000   1.0000   1.0000   1.0000   1.0000   1.0000
     1.0000   1.0000   1.0000   1.0000   1.0000   1.0000   1.0000   1.0000
     1.0000   1.0000   1.0000   1.0000   1.0000   1.0000   1.0000   1.0000
     1.0000   1.0000   1.0000   1.0000   1.0000   1.0000   1.0000   1.0000
     1.0000   1.0000   1.0000   1.0000   1.0000   1.0000   1.0000   1.0000
     1.0000   1.0000   1.0000   1.0000   1.0000   1.0000   1.0000   1.0000
     1.0000   1.0000   1.0000   1.0000   1.0000   1.0000   1.0000   1.0000
     1.0000   1.0000   1.0000   1.0000   1.0000   1.0000   1.0000   1.0000
     1.0000   1.0000   1.0000   1.0000   1.0000   1.0000   1.0000   1.0000
     1.0000   1.0000   1.0000   1.0000   1.0000   1.0000   1.0000   1.0000
     1.0000   1.0000   1.0000   1.0000   1.0000   1.0000   1.0000   1.0000
     1.0000   1.0000   1.0000   1.0000   1.0000   1.0000   1.0000   1.0000
     1.0000   1.0000   1.0000   1.0000   1.0000   1.0000   1.0000   1.0000
     1.0000   1.0000   1.0000   1.0000   1.0000   1.0000   1.0000   1.0000
     1.0000   1.0000   1.0000   1.0000   1.0000   1.0000   1.0000   1.0000
     1.0000   1.0000   1.0000   1.0000   1.0000   1.0000   1.0000   1.0000
     1.0000   1.0000   1.0000   1.0000   1.0000   1.0000   1.0000   1.0000
     1.0000   1.0000   1.0000   1.0000   1.0000   1.0000   1.0000   1.0000
     1.0000   1.0000   1.0000   1.0000   1.0000   1.0000   1.0000   1.0000
     1.0000   1.0000   1.0000   1.0000   1.0000   1.0000   1.0000   1.0000
     1.0000   1.0000   1.0000   1.0000   1.0000   1.0000   1.0000   1.0000
     1.0000   1.0000   1.0000   1.0000   1.0000   1.0000   1.0000   1.0000
     1.0000   1.0000   1.0000   1.0000   1.0000   1.0000   1.0000   1.0000
     1.0000   1.0000   1.0000   1.0000   1.0000   1.0000   1.0000   1.0000
     1.0000   1.0000   1.0000   1.0000   1.0000   1.0000   1.0000   1.0000
     1.0000   1.0000   1.0000   1.0000   1.0000   1.0000   1.0000   1.0000
     1.0000   1.0000   1.0000   1.0000   1.0000   1.0000   1.0000   1.0000
     1.0000   1.0000   1.0000   1.0000   1.0000   1.0000   1.0000   1.0000
     1.0000   1.0000   1.0000   1.0000   1.0000   1.0000   1.0000   1.0000
     1.0000   1.0000   1.0000   1.0000   1.0000   1.0000   1.0000   1.0000
     1.0000   1.0000   1.0000   1.0000   1.0000   1.0000   1.0000   1.0000
[...]
Ga            3.2446543039        7.4908156239        5.2849646671
Ga            3.2459011815        7.4930694301       10.5720430428
Ga            3.2445139118        7.4915985782       15.8597516719
Ga            1.6220348338       10.3026894370        5.2868610306
Ga            1.6218490700       10.3025821862       10.5732198295
Ga            1.6221114701       10.3027336830       15.8595946389
Ga           -0.0018095855       13.1138560254        5.2849646671
Ga            0.0007657068       13.1138089500       10.5720430428
Ga           -0.0012017232       13.1133429651       15.8597516719
Ga            9.7336787693        1.8725784024        5.2773867333
Ga            9.7334397625        1.8728444029       10.5751940944
Ga            9.7332651710        1.8734211930       15.8637237086
Ga            8.1106896517        4.6827115327        5.2838883986
Ga            8.1110433118        4.6829157184       10.5706584075
Ga            8.1086389433        4.6815275557       15.8617645483
Ga            6.4885375316        7.4933279038        5.2773867333
Ga            6.4886483915        7.4929879177       10.5751940944
Ga            6.4890606106        7.4925483219       15.8637237086
Ga            4.8690044673       10.3037387806        5.2847326058
Ga            4.8674795562       10.3011163726       10.5719118245
Ga            4.8684582320       10.3039171346       15.8599493315
Ga            3.2464284088       13.1141229532        5.2847326058
Ga            3.2433948813       13.1141135455       10.5719118245
Ga            3.2463097502       13.1135607226       15.8599493315
Ga           12.9868739688        1.8711932233        5.2789702365
Ga           12.9719745906        1.8756034641       10.5762820146
Ga           12.9964581317        1.8710763650       15.8600665328
Ga           11.3573248955        4.6826142514        5.2838357298
Ga           11.3560131097        4.6830988551       10.5708489847
Ga           11.3585883844        4.6816736822       15.8616367593
Ga            9.7339230255        7.4944287715        5.2838357298
Ga            9.7336868117        7.4930504298       10.5708489847
Ga            9.7337402132        7.4959932695       15.8616367593
Ga            8.1139355312       10.3113701796        5.2789702365
Ga            8.1103052226       10.2962618192       10.5762820146
Ga            8.1186264104       10.3197287373       15.8600665328
Ga            6.4995501154       13.1187241979        5.2962643459
Ga            6.4825332707       13.1088995180       10.5776178842
Ga            6.4940751654       13.1155632341       15.8460510523
N             1.6214540390        0.9361454549        5.0839640421
N             1.6217788602        0.9363329905        9.8862269727
N             1.6194712671        0.9350007011       15.0778389431
N             0.0046459075        3.7290717667        4.6321309611
N            -0.0020574354        3.7641847235        9.9362330195
N             0.0056101149        3.7343309717       15.1997328057
N            -1.6206455326        6.5514880886        4.6257957585
N            -1.6245888460        6.5591088593        9.9198694308
N            -1.6218031505        6.5489946123       15.2167796538
N            -3.2479374179        9.3700403128        4.6257957585
N            -3.2433092935        9.3628149179        9.9198694308
N            -3.2506756407        9.3702845244       15.2167796538
N            -4.8795759326       12.1887921495        4.6321309611
N            -4.8525188915       12.1654304058        9.9362330195
N            -4.8745392238       12.1869975751       15.1997328057
N             4.8478427063        0.9410292069        4.6330251190
N             4.8826534134        0.9295224230        9.9363421895
N             4.8510801020        0.9380925613       15.2005087514
N             3.2388778259        3.7278381274        4.6330251190
N             3.2463180122        3.7637384761        9.9363421895
N             3.2379533140        3.7321101171       15.2005087514
N             1.6223214471        6.5486708655        4.6338418773
N             1.6222448738        6.5623345289        9.9202716444
N             1.6224956918        6.5548267176       15.2077844386
N            -0.0004231522        9.3659587321        4.6308673095
N             0.0004369502        9.3664553125        9.9219945355
N            -0.0013565111        9.3654198571       15.2078079243
N            -1.6288937149       12.1799407124        4.6338418773
N            -1.6170989219       12.1730425664        9.9202716444
N            -1.6234754683       12.1770136867       15.2077844386
N             8.1060118689        0.9378690067        4.6255221054
N             8.1142601568        0.9372099884        9.9201615648
N             8.1036380845        0.9403810694       15.2172704876
N             6.4874612832        3.7455360474        4.6311985470
N             6.4896629533        3.7468071822        9.9178498202
N             6.4857544549        3.7445506096       15.2113398075
N             4.8652255936        6.5510754923        4.6255221054
N             4.8687790110        6.5585482283        9.9201615648
N             4.8662142115        6.5477637033       15.2172704876
N             3.2452609218        9.3659208967        4.6310351817
N             3.2439619349        9.3663492280        9.9221371131
N             3.2463874311        9.3655077083       15.2080070165
N             1.6223861184       12.1768225107        4.6310351817
N             1.6221075707       12.1754833895        9.9221371131
N             1.6225915413       12.1780046906       15.2080070165
N            11.3612115781        0.9379622751        4.6255165970
N            11.3523017925        0.9373156724        9.9197665162
N            11.3622308493        0.9401394123       15.2168322586
N             9.7338363874        3.7473319576        4.6291507724
N             9.7335076341        3.7460170354        9.9205000448
N             9.7335796730        3.7466683622       15.2108665265
N             8.1122041391        6.5560814028        4.6291507724
N             8.1109010064        6.5564541552        9.9205000448
N             8.1115010915        6.5561908793       15.2108665265
N             6.4929062210        9.3701145007        4.6255165970
N             6.4878913538        9.3627217014        9.9197665162
N             6.4953013127        9.3699086469       15.2168322586
N             4.8738900525       12.1801447731        4.6332758508
N             4.8618092039       12.1731698919        9.9201852422
N             4.8694532536       12.1775831861       15.2083299223
N            14.6189043828        0.9419004599        4.6312421193
N            14.5839914784        0.9295231421        9.9354500279
N            14.6148056312        0.9391736098       15.2008486224
N            12.9798029694        3.7454818291        4.6306048511
N            12.9768682436        3.7470550388        9.9170139977
N            12.9810054443        3.7445179153       15.2108752806
N            11.3553358585        6.5560047439        4.6289873211
N            11.3561656344        6.5564838153        9.9204278867
N            11.3558784084        6.5563179852       15.2108046442
N             9.7335851720        9.3680959870        4.6306048511
N             9.7334802486        9.3647678350        9.9170139977
N             9.7333516356        9.3696193177       15.2108752806
N             8.1251631913       12.1893901350        4.6312421193
N             8.0969876674       12.1653433317        9.9354500279
N             8.1207522941       12.1872039370       15.2008486224
N             0.3166067198        1.6939769254        1.9303146992
N            -0.0519725586        1.9032985694        7.3446034595
N            -0.0105761262        1.8791029743       12.5291873179
N            -1.5707726383        4.6224997372        1.9905966933
N            -1.6259608718        4.6920827582        7.2702876670
N            -1.6277296920        4.6860577035       12.5678063391
N            -3.2403554560        7.4953870943        1.9908637093
N            -3.2451998374        7.4925901894        7.2698776647
N            -3.2440330570        7.4932638303       12.5693802511
N            -4.8935574805       10.3777319066        1.9905966933
N            -4.8608909334       10.2951459839        7.2702876670
N            -4.8669931939       10.2966266679       12.5678063391
N            -6.4860429519       13.4765117833        1.9303146992
N            -6.4890547298       13.0526519428        7.3446034595
N            -6.4893105136       13.1006001024       12.5291873179
N             2.9270839706        1.6899553972        1.9291008648
N             3.2960568395        1.9029819824        7.3458865167
N             3.2528627145        1.8780438427       12.5304044459
N             1.6222285981        4.6800435226        1.9756828525
N             1.6223403879        4.6832395734        7.2834298516
N             1.6222183530        4.6872882580       12.5677053247
N             0.0027450915        7.4883058176        1.9862937467
N            -0.0007568549        7.4946243548        7.2756372300
N            -0.0017215041        7.4922219262       12.5661884650
N            -1.6249377477       10.3075351938        1.9862937467
N            -1.6212167072       10.3013431506        7.2756372300
N            -1.6237795960       10.3017089542       12.5661884650
N            -3.2472224823       13.1141801991        1.9756828525
N            -3.2443987262       13.1126789864        7.2834298516
N            -3.2409534799       13.1105489588       12.5677053247
N             6.4080525338        1.8578869642        1.9917776169
N             6.4988567058        1.8722502630        7.2706366692
N             6.4933050452        1.8761501166       12.5688134378
N             4.8130012553        4.6205968195        1.9917776169
N             4.8708423230        4.6920538898        7.2706366692
N             4.8714438649        4.6852960839       12.5688134378
N             3.2421067457        7.4886773923        1.9862227357
N             3.2452598128        7.4945720069        7.2755280264
N             3.2464652144        7.4922095226       12.5661651684
N             1.6226816487       10.3030628758        1.9873745167
N             1.6223279503       10.3028586679        7.2773936102
N             1.6223404618       10.3028658914       12.5651696206
N            -0.0049351275       13.1127188910        1.9862227357
N             0.0017462921       13.1125022199        7.2755280264
N             0.0003030214       13.1147273705       12.5661651684
N             9.7339777972        1.8682750343        1.9911264690
N             9.7332260397        1.8738474041        7.2698110186
N             9.7331774019        1.8726395431       12.5695246593
N             8.0981907265        4.6754952749        1.9895781576
N             8.1128458995        4.6839564429        7.2744373029
N             8.1115287066        4.6831959612       12.5647413734
N             6.4849602195        7.4957385536        1.9911264690
N             6.4894101546        7.4923013277        7.2698110186
N             6.4883397974        7.4928631366       12.5695246593
N             4.8707965038       10.3087131296        1.9863401716
N             4.8656468138       10.3012936208        7.2752936120
N             4.8683749042       10.3016647621       12.5660853796
N             3.2516323396       13.1131877278        1.9863401716
N             3.2426320116       13.1124377199        7.2752936120
N             3.2443174745       13.1146147448       12.5660853796
N            13.0590284383        1.8592607730        1.9910268628
N            12.9683193953        1.8719335820        7.2700806127
N            12.9731050182        1.8763655621       12.5683278697
N            11.3677526669        4.6760507093        1.9895010493
N            11.3544709797        4.6839764314        7.2743602043
N            11.3553111652        4.6834369108       12.5648978753
N             9.7334527170        7.5067412574        1.9895010493
N             9.7336757501        7.4912761179        7.2743602043
N             9.7336286043        7.4922735001       12.5648978753
N             8.1396789609       10.3798240083        1.9910268628
N             8.1052994139       10.2949312683        7.2700806127
N             8.1115304327       10.2968597492       12.5683278697
N             6.4957642598       13.1165384332        1.9760832544
N             6.4889031322       13.1125771593        7.2816830443
N             6.4858158532       13.1107947179       12.5679833232
N             1.6259708216        0.9387532206        2.4090659841



     Writing config-only to output data dir ./GaN.save/
     NEW-OLD atomic charge density approx. for the potential

     Check: negative core charge=   -0.000003


     -----------------------------------------------
     Non-local corr. energy    =      81.33724532 Ry
     -----------------------------------------------


     total cpu time spent up to now is   149138.4 secs

     Self-consistent Calculation

     iteration #  1     ecut=    70.00 Ry     beta= 0.70
     Davidson diagonalization with overlap

---- Real-time Memory Report at c_bands before calling an iterative solver
          3533 MiB given to the printing process from OS
             0 MiB allocation reported by mallinfo(arena+hblkhd)
       1904937 MiB available memory on the node where the printing process lives
------------------
     ethr =  1.00E-06,  avg # of iterations =  3.0

     Threshold (ethr) on eigenvalues was too large:
     Diagonalizing with lowered threshold

     Davidson diagonalization with overlap

---- Real-time Memory Report at c_bands before calling an iterative solver
          3533 MiB given to the printing process from OS
             0 MiB allocation reported by mallinfo(arena+hblkhd)
       1913442 MiB available memory on the node where the printing process lives
------------------
     ethr =  5.51E-08,  avg # of iterations = 17.3


     -----------------------------------------------
     Non-local corr. energy    =      81.33722462 Ry
     -----------------------------------------------


     total cpu time spent up to now is   151271.0 secs

     total energy              =  -46588.56489658 Ry
     estimated scf accuracy    <       0.00153369 Ry

     iteration #  2     ecut=    70.00 Ry     beta= 0.70
     Davidson diagonalization with overlap

---- Real-time Memory Report at c_bands before calling an iterative solver
          3533 MiB given to the printing process from OS
             0 MiB allocation reported by mallinfo(arena+hblkhd)
       1895074 MiB available memory on the node where the printing process lives
------------------
     ethr =  5.70E-08,  avg # of iterations = 14.0


     -----------------------------------------------
     Non-local corr. energy    =      81.33720136 Ry
     -----------------------------------------------


     total cpu time spent up to now is   153453.2 secs

     total energy              =  -46588.56529161 Ry
     estimated scf accuracy    <       0.00036398 Ry

     iteration #  3     ecut=    70.00 Ry     beta= 0.70
     Davidson diagonalization with overlap

---- Real-time Memory Report at c_bands before calling an iterative solver
          3533 MiB given to the printing process from OS
             0 MiB allocation reported by mallinfo(arena+hblkhd)
       1895060 MiB available memory on the node where the printing process lives
------------------
     ethr =  1.35E-08,  avg # of iterations = 15.8


     -----------------------------------------------
     Non-local corr. energy    =      81.33722063 Ry
     -----------------------------------------------


     total cpu time spent up to now is   155587.7 secs

     total energy              =  -46588.56532523 Ry
     estimated scf accuracy    <       0.00023370 Ry

     Maximum CPU time exceeded

     max_seconds     =  154800.00
     elapsed seconds =  155587.11
     Calculation stopped in scf loop at iteration #     3

     Writing config to output data dir ./GaN.save/
 
     init_run     :      6.32s CPU      6.95s WALL (       1 calls)
     electrons    : 146107.20s CPU 147494.44s WALL (       7 calls)
     update_pot   :     17.98s CPU     18.33s WALL (       6 calls)
     forces       :    386.90s CPU    393.11s WALL (       6 calls)
     stress       :   7495.76s CPU   7566.48s WALL (       6 calls)

     Called by init_run:
     wfcinit      :      0.73s CPU      0.82s WALL (       1 calls)
     potinit      :      1.67s CPU      1.98s WALL (       1 calls)
     hinit0       :      1.51s CPU      1.63s WALL (       1 calls)

     Called by electrons:
     c_bands      : 144440.68s CPU 145798.91s WALL (      71 calls)
     sum_band     :   1518.12s CPU   1537.40s WALL (      71 calls)
     v_of_rho     :     71.43s CPU     74.51s WALL (      76 calls)
     v_h          :      0.67s CPU      0.67s WALL (      76 calls)
     v_xc         :     81.43s CPU     85.10s WALL (      88 calls)
     newd         :     15.06s CPU     15.30s WALL (      76 calls)
     PAW_pot      :     47.06s CPU     47.46s WALL (      82 calls)
     mix_rho      :      3.94s CPU      4.03s WALL (      71 calls)
     vdW_kernel   :      0.17s CPU      0.18s WALL (       1 calls)

     Called by c_bands:
     init_us_2    :     71.67s CPU     72.56s WALL (     320 calls)
     init_us_2:cp :     71.67s CPU     72.56s WALL (     320 calls)
     cegterg      : 116480.56s CPU 117652.25s WALL (     144 calls)

     Called by sum_band:
     sum_band:wei :      1.15s CPU      1.16s WALL (      71 calls)
     sum_band:loo :   1488.10s CPU   1500.74s WALL (      71 calls)
     sum_band:buf :     17.56s CPU     17.78s WALL (     142 calls)
     sum_band:ini :     37.22s CPU     37.65s WALL (     142 calls)
     sum_band:cal :   1111.07s CPU   1119.68s WALL (     154 calls)
     sum_band:bec :      9.16s CPU      9.27s WALL (     154 calls)
     addusdens    :     14.89s CPU     15.20s WALL (      71 calls)
     addusd:skk   :      2.63s CPU      2.69s WALL (     142 calls)
     addusd:dgemm :      7.06s CPU      7.25s WALL (     142 calls)
     addusd:qvan2 :      1.72s CPU      1.75s WALL (     142 calls)

     Called by *egterg:
     cdiaghg      :  96593.58s CPU  97244.85s WALL (    1880 calls)
     cegterg:over :   3997.13s CPU   4094.80s WALL (    1754 calls)
     cegterg:upda :   2563.13s CPU   2603.31s WALL (    1754 calls)
     cegterg:last :   1299.84s CPU   1309.54s WALL (     150 calls)
     h_psi        :   8071.02s CPU   8193.86s WALL (    1898 calls)
     s_psi        :   2892.92s CPU   2937.14s WALL (    1898 calls)
     g_psi        :      5.94s CPU      6.00s WALL (    1754 calls)

     Called by h_psi:
     h_psi:calbec :   3019.43s CPU   3042.99s WALL (    1898 calls)
     vloc_psi     :   2113.80s CPU   2135.49s WALL (    1898 calls)
     add_vuspsi   :   2904.65s CPU   2955.48s WALL (    1898 calls)

     General routines
     calbec       :   4804.37s CPU   4841.25s WALL (    2112 calls)
     fft          :     35.57s CPU     36.00s WALL (    5798 calls)
     ffts         :      3.70s CPU      3.73s WALL (     147 calls)
     fftw         :   2313.70s CPU   2337.92s WALL ( 1522866 calls)
     interpolate  :      0.96s CPU      0.98s WALL (      76 calls)
     davcio       :      0.00s CPU      1.85s WALL (      10 calls)
 
     Parallel routines

     PAW routines
     PAW_pot      :     47.06s CPU     47.46s WALL (      82 calls)
     PAW_symme    :      0.85s CPU      0.86s WALL (     152 calls)
 
     PWSCF        :   1d18h48m CPU   1d19h13m WALL

 
   This run was terminated on:   5:58: 6  26Mar2024            

=------------------------------------------------------------------------------=
   JOB DONE.
=------------------------------------------------------------------------------=
