
     Program PWSCF v.7.1 starts on 30Nov2023 at  7:30:28 

     This program is part of the open-source Quantum ESPRESSO suite
     for quantum simulation of materials; please cite
         "P. Giannozzi et al., J. Phys.:Condens. Matter 21 395502 (2009);
         "P. Giannozzi et al., J. Phys.:Condens. Matter 29 465901 (2017);
         "P. Giannozzi et al., J. Chem. Phys. 152 154105 (2020);
          URL http://www.quantum-espresso.org", 
     in publications or presentations arising from this work. More details at
     http://www.quantum-espresso.org/quote

     Parallel version (MPI & OpenMP), running on     256 processor cores
     Number of MPI processes:               256
     Threads/MPI process:                     1

     MPI processes distributed on     2 nodes
     1700730 MiB available memory on the printing compute node when the environment starts
 
     Reading input from espresso.pwi
Warning: card &CELL ignored
Warning: card    CELL_DYNAMICS    = 'BFGS' ignored
Warning: card / ignored

     Current dimensions of program PWSCF are:
     Max number of different atomic species (ntypx) = 10
     Max number of k-points (npk) =  40000
     Max angular momentum in pseudopotentials (lmaxx) =  4
     file Ga.pbe-dn-kjpaw_psl.1.0.0.UPF: wavefunction(s)  4S renormalized
     file N.pbe-n-kjpaw_psl.1.0.0.UPF: wavefunction(s)  2S renormalized

     **************************************************************************
     Initializing libbeef V0.1.2 with the BEEF-vdW functional.
     Citation: Wellendorff et al., PRB 85, 235149 (2012).
     **************************************************************************


     IMPORTANT: XC functional enforced from input :
     Exchange-correlation= BEEF-VDW
                           (   1   4  43  14   2   0   0)
     Any further DFT definition will be discarded
     Please, verify this is what you really want

 
     K-points division:     npool     =       4
     R & G space division:  proc/nbgrp/npool/nimage =      64
     Subspace diagonalization in iterative solution of the eigenvalue problem:
     a serial algorithm will be used

 
     Parallelization info
     --------------------
     sticks:   dense  smooth     PW     G-vecs:    dense   smooth      PW
     Min         354     283     73                42160    30167    3987
     Max         356     285     74                42163    30170    3996
     Sum       22693   18145   4705              2698283  1930731  255309
 
     Using Slab Decomposition
 


     bravais-lattice index     =            4
     lattice parameter (alat)  =      30.6565  a.u.
     unit-cell volume          =   24400.9461 (a.u.)^3
     number of atoms/cell      =          300
     number of atomic types    =            2
     number of electrons       =      2707.00
     number of Kohn-Sham states=         1625
     kinetic-energy cutoff     =      70.0000  Ry
     charge density cutoff     =     350.0000  Ry
     scf convergence threshold =      1.0E-09
     mixing beta               =       0.7000
     number of iterations used =            8  plain     mixing
     energy convergence thresh.=      1.0E-04
     force convergence thresh. =      1.0E-03
     Exchange-correlation= BEEF-VDW
                           (   1   4  43  14   2   0   0)
     nstep                     =           50


     celldm(1)=  30.656540  celldm(2)=   0.000000  celldm(3)=   0.977927
     celldm(4)=   0.000000  celldm(5)=   0.000000  celldm(6)=   0.000000

     crystal axes: (cart. coord. in units of alat)
               a(1) = (   1.000000   0.000000   0.000000 )  
               a(2) = (  -0.500000   0.866025   0.000000 )  
               a(3) = (   0.000000   0.000000   0.977927 )  

     reciprocal axes: (cart. coord. in units 2 pi/alat)
               b(1) = (  1.000000  0.577350 -0.000000 )  
               b(2) = (  0.000000  1.154701  0.000000 )  
               b(3) = (  0.000000 -0.000000  1.022571 )  


     PseudoPot. # 1 for Ga read from file:
     /trace/group/acmegroup/atimmins/packages/espresso/pseudo/psl_1.0.0/pslibrary.1.0.0/pbe/PSEUDOPOTENTIALS/Ga.pbe-dn-kjpaw_psl.1.0.0.UPF
     MD5 check sum: cd2a01e492f15b435d17032472d8505c
     Pseudo is Projector augmented-wave + core cor, Zval = 13.0
     Generated using 'atomic' code by A. Dal Corso  v.7.1
     Shape of augmentation charge: PSQ
     Using radial grid of 1205 points,  6 beta functions with: 
                l(1) =   0
                l(2) =   0
                l(3) =   1
                l(4) =   1
                l(5) =   2
                l(6) =   2
     Q(r) pseudized with 0 coefficients 


     PseudoPot. # 2 for N  read from file:
     /trace/group/acmegroup/atimmins/packages/espresso/pseudo/psl_1.0.0/pslibrary.1.0.0/pbe/PSEUDOPOTENTIALS/N.pbe-n-kjpaw_psl.1.0.0.UPF
     MD5 check sum: f77f775694dac7e2c3fe1c82443d1a16
     Pseudo is Projector augmented-wave + core cor, Zval =  5.0
     Generated using 'atomic' code by A. Dal Corso  v.7.1
     Shape of augmentation charge: PSQ
     Using radial grid of 1085 points,  4 beta functions with: 
                l(1) =   0
                l(2) =   0
                l(3) =   1
                l(4) =   1
     Q(r) pseudized with 0 coefficients 


     atomic species   valence    mass     pseudopotential
        Ga            13.00    69.72300     Ga( 1.00)
        N              5.00    14.00700     N ( 1.00)

      2 Sym. Ops. (no inversion) found


                                    s                        frac. trans.

      isym =  1     identity                                     

 cryst.   s( 1) = (     1          0          0      )
                  (     0          1          0      )
                  (     0          0          1      )

 cart.    s( 1) = (  1.0000000  0.0000000  0.0000000 )
                  (  0.0000000  1.0000000  0.0000000 )
                  (  0.0000000  0.0000000  1.0000000 )


      isym =  2     inv. 180 deg rotation - cryst. axis [0,1,0]  

 cryst.   s( 2) = (     1          1          0      )
                  (     0         -1          0      )
                  (     0          0          1      )

 cart.    s( 2) = (  0.5000000  0.8660254  0.0000000 )
                  (  0.8660254 -0.5000000  0.0000000 )
                  (  0.0000000  0.0000000  1.0000000 )


     point group C_s (m)    
     there are  2 classes
     the character table:

       E     s    
A'     1.00  1.00
A''    1.00 -1.00

     the symmetry operations in each class and the name of the first element:

     E        1
          identity                                               
     s        2
          inv. 180 deg rotation - cryst. axis [0,1,0]            

   Cartesian axes

     site n.     atom                  positions (alat units)
         1           Ga  tau(   1) = (   0.1000001   0.0577350   0.1627148  )
         2           Ga  tau(   2) = (   0.1000001   0.0577350   0.4886906  )
         3           Ga  tau(   3) = (   0.1000001   0.0577350   0.8146665  )
         4           Ga  tau(   4) = (   0.0000001   0.2309401   0.1627148  )
         5           Ga  tau(   5) = (   0.0000001   0.2309401   0.4886906  )
         6           Ga  tau(   6) = (   0.0000001   0.2309401   0.8146665  )
         7           Ga  tau(   7) = (  -0.0999999   0.4041451   0.1627148  )
         8           Ga  tau(   8) = (  -0.0999999   0.4041451   0.4886906  )
         9           Ga  tau(   9) = (  -0.0999999   0.4041451   0.8146665  )
        10           Ga  tau(  10) = (  -0.1999999   0.5773502   0.1627148  )
        11           Ga  tau(  11) = (  -0.1999999   0.5773502   0.4886906  )
        12           Ga  tau(  12) = (  -0.1999999   0.5773502   0.8146665  )
        13           Ga  tau(  13) = (  -0.2999999   0.7505553   0.1627148  )
        14           Ga  tau(  14) = (  -0.2999999   0.7505553   0.4886906  )
        15           Ga  tau(  15) = (  -0.2999999   0.7505553   0.8146665  )
        16           Ga  tau(  16) = (   0.3000001   0.0577350   0.1627148  )
        17           Ga  tau(  17) = (   0.3000001   0.0577350   0.4886906  )
        18           Ga  tau(  18) = (   0.3000001   0.0577350   0.8146665  )
        19           Ga  tau(  19) = (   0.2000001   0.2309401   0.1627148  )
        20           Ga  tau(  20) = (   0.2000001   0.2309401   0.4886906  )
        21           Ga  tau(  21) = (   0.2000001   0.2309401   0.8146665  )
        22           Ga  tau(  22) = (   0.1000001   0.4041451   0.1627148  )
        23           Ga  tau(  23) = (   0.1000001   0.4041451   0.4886906  )
        24           Ga  tau(  24) = (   0.1000001   0.4041451   0.8146665  )
        25           Ga  tau(  25) = (   0.0000001   0.5773502   0.1627148  )
        26           Ga  tau(  26) = (   0.0000001   0.5773502   0.4886906  )
        27           Ga  tau(  27) = (   0.0000001   0.5773502   0.8146665  )
        28           Ga  tau(  28) = (  -0.0999999   0.7505553   0.1627148  )
        29           Ga  tau(  29) = (  -0.0999999   0.7505553   0.4886906  )
        30           Ga  tau(  30) = (  -0.0999999   0.7505553   0.8146665  )
        31           Ga  tau(  31) = (   0.5000001   0.0577350   0.1627148  )
        32           Ga  tau(  32) = (   0.5000001   0.0577350   0.4886906  )
        33           Ga  tau(  33) = (   0.5000001   0.0577350   0.8146665  )
        34           Ga  tau(  34) = (   0.4000001   0.2309401   0.1627148  )
        35           Ga  tau(  35) = (   0.4000001   0.2309401   0.4886906  )
        36           Ga  tau(  36) = (   0.4000001   0.2309401   0.8146665  )
        37           Ga  tau(  37) = (   0.3000001   0.4041451   0.1627148  )
        38           Ga  tau(  38) = (   0.3000001   0.4041451   0.4886906  )
        39           Ga  tau(  39) = (   0.3000001   0.4041451   0.8146665  )
        40           Ga  tau(  40) = (   0.2000001   0.5773502   0.1627148  )
        41           Ga  tau(  41) = (   0.2000001   0.5773502   0.4886906  )
        42           Ga  tau(  42) = (   0.2000001   0.5773502   0.8146665  )
        43           Ga  tau(  43) = (   0.1000001   0.7505553   0.1627148  )
        44           Ga  tau(  44) = (   0.1000001   0.7505553   0.4886906  )
        45           Ga  tau(  45) = (   0.1000001   0.7505553   0.8146665  )
        46           Ga  tau(  46) = (   0.7000001   0.0577350   0.1627148  )
        47           Ga  tau(  47) = (   0.7000001   0.0577350   0.4886906  )
        48           Ga  tau(  48) = (   0.7000001   0.0577350   0.8146665  )
        49           Ga  tau(  49) = (   0.6000001   0.2309401   0.1627148  )
        50           Ga  tau(  50) = (   0.6000001   0.2309401   0.4886906  )
        51           Ga  tau(  51) = (   0.6000001   0.2309401   0.8146665  )
        52           Ga  tau(  52) = (   0.5000001   0.4041451   0.1627148  )
        53           Ga  tau(  53) = (   0.5000001   0.4041451   0.4886906  )
        54           Ga  tau(  54) = (   0.5000001   0.4041451   0.8146665  )
        55           Ga  tau(  55) = (   0.4000001   0.5773502   0.1627148  )
        56           Ga  tau(  56) = (   0.4000001   0.5773502   0.4886906  )
        57           Ga  tau(  57) = (   0.4000001   0.5773502   0.8146665  )
        58           Ga  tau(  58) = (   0.3000001   0.7505553   0.1627148  )
        59           Ga  tau(  59) = (   0.3000001   0.7505553   0.4886906  )
        60           Ga  tau(  60) = (   0.3000001   0.7505553   0.8146665  )
        61           Ga  tau(  61) = (   0.9000001   0.0577350   0.1627148  )
        62           Ga  tau(  62) = (   0.9000001   0.0577350   0.4886906  )
        63           Ga  tau(  63) = (   0.9000001   0.0577350   0.8146665  )
        64           Ga  tau(  64) = (   0.8000001   0.2309401   0.1627148  )
        65           Ga  tau(  65) = (   0.8000001   0.2309401   0.4886906  )
        66           Ga  tau(  66) = (   0.8000001   0.2309401   0.8146665  )
        67           Ga  tau(  67) = (   0.7000001   0.4041451   0.1627148  )
        68           Ga  tau(  68) = (   0.7000001   0.4041451   0.4886906  )
        69           Ga  tau(  69) = (   0.7000001   0.4041451   0.8146665  )
        70           Ga  tau(  70) = (   0.6000001   0.5773502   0.1627148  )
        71           Ga  tau(  71) = (   0.6000001   0.5773502   0.4886906  )
        72           Ga  tau(  72) = (   0.6000001   0.5773502   0.8146665  )
        73           Ga  tau(  73) = (   0.5000001   0.7505553   0.1627148  )
        74           Ga  tau(  74) = (   0.5000001   0.7505553   0.4886906  )
        75           Ga  tau(  75) = (   0.5000001   0.7505553   0.8146665  )
        76           Ga  tau(  76) = (  -0.0000001   0.1154701   0.3257027  )
        77           Ga  tau(  77) = (  -0.0000001   0.1154701   0.6516786  )
        78           Ga  tau(  78) = (  -0.0000001   0.1154701   0.9776544  )
        79           Ga  tau(  79) = (  -0.1000001   0.2886752   0.3257027  )
        80           Ga  tau(  80) = (  -0.1000001   0.2886752   0.6516786  )
        81           Ga  tau(  81) = (  -0.1000001   0.2886752   0.9776544  )
        82           Ga  tau(  82) = (  -0.2000001   0.4618803   0.3257027  )
        83           Ga  tau(  83) = (  -0.2000001   0.4618803   0.6516786  )
        84           Ga  tau(  84) = (  -0.2000001   0.4618803   0.9776544  )
        85           Ga  tau(  85) = (  -0.3000001   0.6350854   0.3257027  )
        86           Ga  tau(  86) = (  -0.3000001   0.6350854   0.6516786  )
        87           Ga  tau(  87) = (  -0.3000001   0.6350854   0.9776544  )
        88           Ga  tau(  88) = (  -0.4000001   0.8082905   0.3257027  )
        89           Ga  tau(  89) = (  -0.4000001   0.8082905   0.6516786  )
        90           Ga  tau(  90) = (  -0.4000001   0.8082905   0.9776544  )
        91           Ga  tau(  91) = (   0.1999999   0.1154701   0.3257027  )
        92           Ga  tau(  92) = (   0.1999999   0.1154701   0.6516786  )
        93           Ga  tau(  93) = (   0.1999999   0.1154701   0.9776544  )
        94           Ga  tau(  94) = (   0.0999999   0.2886752   0.3257027  )
        95           Ga  tau(  95) = (   0.0999999   0.2886752   0.6516786  )
        96           Ga  tau(  96) = (   0.0999999   0.2886752   0.9776544  )
        97           Ga  tau(  97) = (  -0.0000001   0.4618803   0.3257027  )
        98           Ga  tau(  98) = (  -0.0000001   0.4618803   0.6516786  )
        99           Ga  tau(  99) = (  -0.0000001   0.4618803   0.9776544  )
       100           Ga  tau( 100) = (  -0.1000001   0.6350854   0.3257027  )
       101           Ga  tau( 101) = (  -0.1000001   0.6350854   0.6516786  )
       102           Ga  tau( 102) = (  -0.1000001   0.6350854   0.9776544  )
       103           Ga  tau( 103) = (  -0.2000001   0.8082905   0.3257027  )
       104           Ga  tau( 104) = (  -0.2000001   0.8082905   0.6516786  )
       105           Ga  tau( 105) = (  -0.2000001   0.8082905   0.9776544  )
       106           Ga  tau( 106) = (   0.3999999   0.1154701   0.3257027  )
       107           Ga  tau( 107) = (   0.3999999   0.1154701   0.6516786  )
       108           Ga  tau( 108) = (   0.3999999   0.1154701   0.9776544  )
       109           Ga  tau( 109) = (   0.2999999   0.2886752   0.3257027  )
       110           Ga  tau( 110) = (   0.2999999   0.2886752   0.6516786  )
       111           Ga  tau( 111) = (   0.2999999   0.2886752   0.9776544  )
       112           Ga  tau( 112) = (   0.1999999   0.4618803   0.3257027  )
       113           Ga  tau( 113) = (   0.1999999   0.4618803   0.6516786  )
       114           Ga  tau( 114) = (   0.1999999   0.4618803   0.9776544  )
       115           Ga  tau( 115) = (   0.0999999   0.6350854   0.3257027  )
       116           Ga  tau( 116) = (   0.0999999   0.6350854   0.6516786  )
       117           Ga  tau( 117) = (   0.0999999   0.6350854   0.9776544  )
       118           Ga  tau( 118) = (  -0.0000001   0.8082905   0.3257027  )
       119           Ga  tau( 119) = (  -0.0000001   0.8082905   0.6516786  )
       120           Ga  tau( 120) = (  -0.0000001   0.8082905   0.9776544  )
       121           Ga  tau( 121) = (   0.5999999   0.1154701   0.3257027  )
       122           Ga  tau( 122) = (   0.5999999   0.1154701   0.6516786  )
       123           Ga  tau( 123) = (   0.5999999   0.1154701   0.9776544  )
       124           Ga  tau( 124) = (   0.4999999   0.2886752   0.3257027  )
       125           Ga  tau( 125) = (   0.4999999   0.2886752   0.6516786  )
       126           Ga  tau( 126) = (   0.4999999   0.2886752   0.9776544  )
       127           Ga  tau( 127) = (   0.3999999   0.4618803   0.3257027  )
       128           Ga  tau( 128) = (   0.3999999   0.4618803   0.6516786  )
       129           Ga  tau( 129) = (   0.3999999   0.4618803   0.9776544  )
       130           Ga  tau( 130) = (   0.2999999   0.6350854   0.3257027  )
       131           Ga  tau( 131) = (   0.2999999   0.6350854   0.6516786  )
       132           Ga  tau( 132) = (   0.2999999   0.6350854   0.9776544  )
       133           Ga  tau( 133) = (   0.1999999   0.8082905   0.3257027  )
       134           Ga  tau( 134) = (   0.1999999   0.8082905   0.6516786  )
       135           Ga  tau( 135) = (   0.1999999   0.8082905   0.9776544  )
       136           Ga  tau( 136) = (   0.7999999   0.1154701   0.3257027  )
       137           Ga  tau( 137) = (   0.7999999   0.1154701   0.6516786  )
       138           Ga  tau( 138) = (   0.7999999   0.1154701   0.9776544  )
       139           Ga  tau( 139) = (   0.6999999   0.2886752   0.3257027  )
       140           Ga  tau( 140) = (   0.6999999   0.2886752   0.6516786  )
       141           Ga  tau( 141) = (   0.6999999   0.2886752   0.9776544  )
       142           Ga  tau( 142) = (   0.5999999   0.4618803   0.3257027  )
       143           Ga  tau( 143) = (   0.5999999   0.4618803   0.6516786  )
       144           Ga  tau( 144) = (   0.5999999   0.4618803   0.9776544  )
       145           Ga  tau( 145) = (   0.4999999   0.6350854   0.3257027  )
       146           Ga  tau( 146) = (   0.4999999   0.6350854   0.6516786  )
       147           Ga  tau( 147) = (   0.4999999   0.6350854   0.9776544  )
       148           Ga  tau( 148) = (   0.3999999   0.8082905   0.3257027  )
       149           Ga  tau( 149) = (   0.3999999   0.8082905   0.6516786  )
       150           Ga  tau( 150) = (   0.3999999   0.8082905   0.9776544  )
       151           N   tau( 151) = (   0.1000001   0.0577350   0.6114777  )
       152           N   tau( 152) = (   0.1000001   0.0577350   0.9374535  )
       153           N   tau( 153) = (   0.0000001   0.2309401   0.2855019  )
       154           N   tau( 154) = (   0.0000001   0.2309401   0.6114777  )
       155           N   tau( 155) = (   0.0000001   0.2309401   0.9374535  )
       156           N   tau( 156) = (  -0.0999999   0.4041451   0.2855019  )
       157           N   tau( 157) = (  -0.0999999   0.4041451   0.6114777  )
       158           N   tau( 158) = (  -0.0999999   0.4041451   0.9374535  )
       159           N   tau( 159) = (  -0.1999999   0.5773502   0.2855019  )
       160           N   tau( 160) = (  -0.1999999   0.5773502   0.6114777  )
       161           N   tau( 161) = (  -0.1999999   0.5773502   0.9374535  )
       162           N   tau( 162) = (  -0.2999999   0.7505553   0.2855019  )
       163           N   tau( 163) = (  -0.2999999   0.7505553   0.6114777  )
       164           N   tau( 164) = (  -0.2999999   0.7505553   0.9374535  )
       165           N   tau( 165) = (   0.3000001   0.0577350   0.2855019  )
       166           N   tau( 166) = (   0.3000001   0.0577350   0.6114777  )
       167           N   tau( 167) = (   0.3000001   0.0577350   0.9374535  )
       168           N   tau( 168) = (   0.2000001   0.2309401   0.2855019  )
       169           N   tau( 169) = (   0.2000001   0.2309401   0.6114777  )
       170           N   tau( 170) = (   0.2000001   0.2309401   0.9374535  )
       171           N   tau( 171) = (   0.1000001   0.4041451   0.2855019  )
       172           N   tau( 172) = (   0.1000001   0.4041451   0.6114777  )
       173           N   tau( 173) = (   0.1000001   0.4041451   0.9374535  )
       174           N   tau( 174) = (   0.0000001   0.5773502   0.2855019  )
       175           N   tau( 175) = (   0.0000001   0.5773502   0.6114777  )
       176           N   tau( 176) = (   0.0000001   0.5773502   0.9374535  )
       177           N   tau( 177) = (  -0.0999999   0.7505553   0.2855019  )
       178           N   tau( 178) = (  -0.0999999   0.7505553   0.6114777  )
       179           N   tau( 179) = (  -0.0999999   0.7505553   0.9374535  )
       180           N   tau( 180) = (   0.5000001   0.0577350   0.2855019  )
       181           N   tau( 181) = (   0.5000001   0.0577350   0.6114777  )
       182           N   tau( 182) = (   0.5000001   0.0577350   0.9374535  )
       183           N   tau( 183) = (   0.4000001   0.2309401   0.2855019  )
       184           N   tau( 184) = (   0.4000001   0.2309401   0.6114777  )
       185           N   tau( 185) = (   0.4000001   0.2309401   0.9374535  )
       186           N   tau( 186) = (   0.3000001   0.4041451   0.2855019  )
       187           N   tau( 187) = (   0.3000001   0.4041451   0.6114777  )
       188           N   tau( 188) = (   0.3000001   0.4041451   0.9374535  )
       189           N   tau( 189) = (   0.2000001   0.5773502   0.2855019  )
       190           N   tau( 190) = (   0.2000001   0.5773502   0.6114777  )
       191           N   tau( 191) = (   0.2000001   0.5773502   0.9374535  )
       192           N   tau( 192) = (   0.1000001   0.7505553   0.2855019  )
       193           N   tau( 193) = (   0.1000001   0.7505553   0.6114777  )
       194           N   tau( 194) = (   0.1000001   0.7505553   0.9374535  )
       195           N   tau( 195) = (   0.7000001   0.0577350   0.2855019  )
       196           N   tau( 196) = (   0.7000001   0.0577350   0.6114777  )
       197           N   tau( 197) = (   0.7000001   0.0577350   0.9374535  )
       198           N   tau( 198) = (   0.6000001   0.2309401   0.2855019  )
       199           N   tau( 199) = (   0.6000001   0.2309401   0.6114777  )
       200           N   tau( 200) = (   0.6000001   0.2309401   0.9374535  )
       201           N   tau( 201) = (   0.5000001   0.4041451   0.2855019  )
       202           N   tau( 202) = (   0.5000001   0.4041451   0.6114777  )
       203           N   tau( 203) = (   0.5000001   0.4041451   0.9374535  )
       204           N   tau( 204) = (   0.4000001   0.5773502   0.2855019  )
       205           N   tau( 205) = (   0.4000001   0.5773502   0.6114777  )
       206           N   tau( 206) = (   0.4000001   0.5773502   0.9374535  )
       207           N   tau( 207) = (   0.3000001   0.7505553   0.2855019  )
       208           N   tau( 208) = (   0.3000001   0.7505553   0.6114777  )
       209           N   tau( 209) = (   0.3000001   0.7505553   0.9374535  )
       210           N   tau( 210) = (   0.9000001   0.0577350   0.2855019  )
       211           N   tau( 211) = (   0.9000001   0.0577350   0.6114777  )
       212           N   tau( 212) = (   0.9000001   0.0577350   0.9374535  )
       213           N   tau( 213) = (   0.8000001   0.2309401   0.2855019  )
       214           N   tau( 214) = (   0.8000001   0.2309401   0.6114777  )
       215           N   tau( 215) = (   0.8000001   0.2309401   0.9374535  )
       216           N   tau( 216) = (   0.7000001   0.4041451   0.2855019  )
       217           N   tau( 217) = (   0.7000001   0.4041451   0.6114777  )
       218           N   tau( 218) = (   0.7000001   0.4041451   0.9374535  )
       219           N   tau( 219) = (   0.6000001   0.5773502   0.2855019  )
       220           N   tau( 220) = (   0.6000001   0.5773502   0.6114777  )
       221           N   tau( 221) = (   0.6000001   0.5773502   0.9374535  )
       222           N   tau( 222) = (   0.5000001   0.7505553   0.2855019  )
       223           N   tau( 223) = (   0.5000001   0.7505553   0.6114777  )
       224           N   tau( 224) = (   0.5000001   0.7505553   0.9374535  )
       225           N   tau( 225) = (  -0.0000001   0.1154701   0.1225140  )
       226           N   tau( 226) = (  -0.0000001   0.1154701   0.4484898  )
       227           N   tau( 227) = (  -0.0000001   0.1154701   0.7744656  )
       228           N   tau( 228) = (  -0.1000001   0.2886752   0.1225140  )
       229           N   tau( 229) = (  -0.1000001   0.2886752   0.4484898  )
       230           N   tau( 230) = (  -0.1000001   0.2886752   0.7744656  )
       231           N   tau( 231) = (  -0.2000001   0.4618803   0.1225140  )
       232           N   tau( 232) = (  -0.2000001   0.4618803   0.4484898  )
       233           N   tau( 233) = (  -0.2000001   0.4618803   0.7744656  )
       234           N   tau( 234) = (  -0.3000001   0.6350854   0.1225140  )
       235           N   tau( 235) = (  -0.3000001   0.6350854   0.4484898  )
       236           N   tau( 236) = (  -0.3000001   0.6350854   0.7744656  )
       237           N   tau( 237) = (  -0.4000001   0.8082905   0.1225140  )
       238           N   tau( 238) = (  -0.4000001   0.8082905   0.4484898  )
       239           N   tau( 239) = (  -0.4000001   0.8082905   0.7744656  )
       240           N   tau( 240) = (   0.1999999   0.1154701   0.1225140  )
       241           N   tau( 241) = (   0.1999999   0.1154701   0.4484898  )
       242           N   tau( 242) = (   0.1999999   0.1154701   0.7744656  )
       243           N   tau( 243) = (   0.0999999   0.2886752   0.1225140  )
       244           N   tau( 244) = (   0.0999999   0.2886752   0.4484898  )
       245           N   tau( 245) = (   0.0999999   0.2886752   0.7744656  )
       246           N   tau( 246) = (  -0.0000001   0.4618803   0.1225140  )
       247           N   tau( 247) = (  -0.0000001   0.4618803   0.4484898  )
       248           N   tau( 248) = (  -0.0000001   0.4618803   0.7744656  )
       249           N   tau( 249) = (  -0.1000001   0.6350854   0.1225140  )
       250           N   tau( 250) = (  -0.1000001   0.6350854   0.4484898  )
       251           N   tau( 251) = (  -0.1000001   0.6350854   0.7744656  )
       252           N   tau( 252) = (  -0.2000001   0.8082905   0.1225140  )
       253           N   tau( 253) = (  -0.2000001   0.8082905   0.4484898  )
       254           N   tau( 254) = (  -0.2000001   0.8082905   0.7744656  )
       255           N   tau( 255) = (   0.3999999   0.1154701   0.1225140  )
       256           N   tau( 256) = (   0.3999999   0.1154701   0.4484898  )
       257           N   tau( 257) = (   0.3999999   0.1154701   0.7744656  )
       258           N   tau( 258) = (   0.2999999   0.2886752   0.1225140  )
       259           N   tau( 259) = (   0.2999999   0.2886752   0.4484898  )
       260           N   tau( 260) = (   0.2999999   0.2886752   0.7744656  )
       261           N   tau( 261) = (   0.1999999   0.4618803   0.1225140  )
       262           N   tau( 262) = (   0.1999999   0.4618803   0.4484898  )
       263           N   tau( 263) = (   0.1999999   0.4618803   0.7744656  )
       264           N   tau( 264) = (   0.0999999   0.6350854   0.1225140  )
       265           N   tau( 265) = (   0.0999999   0.6350854   0.4484898  )
       266           N   tau( 266) = (   0.0999999   0.6350854   0.7744656  )
       267           N   tau( 267) = (  -0.0000001   0.8082905   0.1225140  )
       268           N   tau( 268) = (  -0.0000001   0.8082905   0.4484898  )
       269           N   tau( 269) = (  -0.0000001   0.8082905   0.7744656  )
       270           N   tau( 270) = (   0.5999999   0.1154701   0.1225140  )
       271           N   tau( 271) = (   0.5999999   0.1154701   0.4484898  )
       272           N   tau( 272) = (   0.5999999   0.1154701   0.7744656  )
       273           N   tau( 273) = (   0.4999999   0.2886752   0.1225140  )
       274           N   tau( 274) = (   0.4999999   0.2886752   0.4484898  )
       275           N   tau( 275) = (   0.4999999   0.2886752   0.7744656  )
       276           N   tau( 276) = (   0.3999999   0.4618803   0.1225140  )
       277           N   tau( 277) = (   0.3999999   0.4618803   0.4484898  )
       278           N   tau( 278) = (   0.3999999   0.4618803   0.7744656  )
       279           N   tau( 279) = (   0.2999999   0.6350854   0.1225140  )
       280           N   tau( 280) = (   0.2999999   0.6350854   0.4484898  )
       281           N   tau( 281) = (   0.2999999   0.6350854   0.7744656  )
       282           N   tau( 282) = (   0.1999999   0.8082905   0.1225140  )
       283           N   tau( 283) = (   0.1999999   0.8082905   0.4484898  )
       284           N   tau( 284) = (   0.1999999   0.8082905   0.7744656  )
       285           N   tau( 285) = (   0.7999999   0.1154701   0.1225140  )
       286           N   tau( 286) = (   0.7999999   0.1154701   0.4484898  )
       287           N   tau( 287) = (   0.7999999   0.1154701   0.7744656  )
       288           N   tau( 288) = (   0.6999999   0.2886752   0.1225140  )
       289           N   tau( 289) = (   0.6999999   0.2886752   0.4484898  )
       290           N   tau( 290) = (   0.6999999   0.2886752   0.7744656  )
       291           N   tau( 291) = (   0.5999999   0.4618803   0.1225140  )
       292           N   tau( 292) = (   0.5999999   0.4618803   0.4484898  )
       293           N   tau( 293) = (   0.5999999   0.4618803   0.7744656  )
       294           N   tau( 294) = (   0.4999999   0.6350854   0.1225140  )
       295           N   tau( 295) = (   0.4999999   0.6350854   0.4484898  )
       296           N   tau( 296) = (   0.4999999   0.6350854   0.7744656  )
       297           N   tau( 297) = (   0.3999999   0.8082905   0.1225140  )
       298           N   tau( 298) = (   0.3999999   0.8082905   0.4484898  )
       299           N   tau( 299) = (   0.3999999   0.8082905   0.7744656  )
       300           Ga  tau( 300) = (   0.1000001   0.0577350   0.2855019  )

   Crystallographic axes

     site n.     atom                  positions (cryst. coord.)
         1           Ga  tau(   1) = (  0.1333334  0.0666666  0.1663874  )
         2           Ga  tau(   2) = (  0.1333334  0.0666666  0.4997208  )
         3           Ga  tau(   3) = (  0.1333334  0.0666666  0.8330541  )
         4           Ga  tau(   4) = (  0.1333334  0.2666666  0.1663874  )
         5           Ga  tau(   5) = (  0.1333334  0.2666666  0.4997208  )
         6           Ga  tau(   6) = (  0.1333334  0.2666666  0.8330541  )
         7           Ga  tau(   7) = (  0.1333334  0.4666666  0.1663874  )
         8           Ga  tau(   8) = (  0.1333334  0.4666666  0.4997208  )
         9           Ga  tau(   9) = (  0.1333334  0.4666666  0.8330541  )
        10           Ga  tau(  10) = (  0.1333334  0.6666666  0.1663874  )
        11           Ga  tau(  11) = (  0.1333334  0.6666666  0.4997208  )
        12           Ga  tau(  12) = (  0.1333334  0.6666666  0.8330541  )
        13           Ga  tau(  13) = (  0.1333334  0.8666666  0.1663874  )
        14           Ga  tau(  14) = (  0.1333334  0.8666666  0.4997208  )
        15           Ga  tau(  15) = (  0.1333334  0.8666666  0.8330541  )
        16           Ga  tau(  16) = (  0.3333334  0.0666666  0.1663874  )
        17           Ga  tau(  17) = (  0.3333334  0.0666666  0.4997208  )
        18           Ga  tau(  18) = (  0.3333334  0.0666666  0.8330541  )
        19           Ga  tau(  19) = (  0.3333334  0.2666666  0.1663874  )
        20           Ga  tau(  20) = (  0.3333334  0.2666666  0.4997208  )
        21           Ga  tau(  21) = (  0.3333334  0.2666666  0.8330541  )
        22           Ga  tau(  22) = (  0.3333334  0.4666666  0.1663874  )
        23           Ga  tau(  23) = (  0.3333334  0.4666666  0.4997208  )
        24           Ga  tau(  24) = (  0.3333334  0.4666666  0.8330541  )
        25           Ga  tau(  25) = (  0.3333334  0.6666666  0.1663874  )
        26           Ga  tau(  26) = (  0.3333334  0.6666666  0.4997208  )
        27           Ga  tau(  27) = (  0.3333334  0.6666666  0.8330541  )
        28           Ga  tau(  28) = (  0.3333334  0.8666666  0.1663874  )
        29           Ga  tau(  29) = (  0.3333334  0.8666666  0.4997208  )
        30           Ga  tau(  30) = (  0.3333334  0.8666666  0.8330541  )
        31           Ga  tau(  31) = (  0.5333334  0.0666666  0.1663874  )
        32           Ga  tau(  32) = (  0.5333334  0.0666666  0.4997208  )
        33           Ga  tau(  33) = (  0.5333334  0.0666666  0.8330541  )
        34           Ga  tau(  34) = (  0.5333334  0.2666666  0.1663874  )
        35           Ga  tau(  35) = (  0.5333334  0.2666666  0.4997208  )
        36           Ga  tau(  36) = (  0.5333334  0.2666666  0.8330541  )
        37           Ga  tau(  37) = (  0.5333334  0.4666666  0.1663874  )
        38           Ga  tau(  38) = (  0.5333334  0.4666666  0.4997208  )
        39           Ga  tau(  39) = (  0.5333334  0.4666666  0.8330541  )
        40           Ga  tau(  40) = (  0.5333334  0.6666666  0.1663874  )
        41           Ga  tau(  41) = (  0.5333334  0.6666666  0.4997208  )
        42           Ga  tau(  42) = (  0.5333334  0.6666666  0.8330541  )
        43           Ga  tau(  43) = (  0.5333334  0.8666666  0.1663874  )
        44           Ga  tau(  44) = (  0.5333334  0.8666666  0.4997208  )
        45           Ga  tau(  45) = (  0.5333334  0.8666666  0.8330541  )
        46           Ga  tau(  46) = (  0.7333334  0.0666666  0.1663874  )
        47           Ga  tau(  47) = (  0.7333334  0.0666666  0.4997208  )
        48           Ga  tau(  48) = (  0.7333334  0.0666666  0.8330541  )
        49           Ga  tau(  49) = (  0.7333334  0.2666666  0.1663874  )
        50           Ga  tau(  50) = (  0.7333334  0.2666666  0.4997208  )
        51           Ga  tau(  51) = (  0.7333334  0.2666666  0.8330541  )
        52           Ga  tau(  52) = (  0.7333334  0.4666666  0.1663874  )
        53           Ga  tau(  53) = (  0.7333334  0.4666666  0.4997208  )
        54           Ga  tau(  54) = (  0.7333334  0.4666666  0.8330541  )
        55           Ga  tau(  55) = (  0.7333334  0.6666666  0.1663874  )
        56           Ga  tau(  56) = (  0.7333334  0.6666666  0.4997208  )
        57           Ga  tau(  57) = (  0.7333334  0.6666666  0.8330541  )
        58           Ga  tau(  58) = (  0.7333334  0.8666666  0.1663874  )
        59           Ga  tau(  59) = (  0.7333334  0.8666666  0.4997208  )
        60           Ga  tau(  60) = (  0.7333334  0.8666666  0.8330541  )
        61           Ga  tau(  61) = (  0.9333334  0.0666666  0.1663874  )
        62           Ga  tau(  62) = (  0.9333334  0.0666666  0.4997208  )
        63           Ga  tau(  63) = (  0.9333334  0.0666666  0.8330541  )
        64           Ga  tau(  64) = (  0.9333334  0.2666666  0.1663874  )
        65           Ga  tau(  65) = (  0.9333334  0.2666666  0.4997208  )
        66           Ga  tau(  66) = (  0.9333334  0.2666666  0.8330541  )
        67           Ga  tau(  67) = (  0.9333334  0.4666666  0.1663874  )
        68           Ga  tau(  68) = (  0.9333334  0.4666666  0.4997208  )
        69           Ga  tau(  69) = (  0.9333334  0.4666666  0.8330541  )
        70           Ga  tau(  70) = (  0.9333334  0.6666666  0.1663874  )
        71           Ga  tau(  71) = (  0.9333334  0.6666666  0.4997208  )
        72           Ga  tau(  72) = (  0.9333334  0.6666666  0.8330541  )
        73           Ga  tau(  73) = (  0.9333334  0.8666666  0.1663874  )
        74           Ga  tau(  74) = (  0.9333334  0.8666666  0.4997208  )
        75           Ga  tau(  75) = (  0.9333334  0.8666666  0.8330541  )
        76           Ga  tau(  76) = (  0.0666666  0.1333334  0.3330541  )
        77           Ga  tau(  77) = (  0.0666666  0.1333334  0.6663874  )
        78           Ga  tau(  78) = (  0.0666666  0.1333334  0.9997208  )
        79           Ga  tau(  79) = (  0.0666666  0.3333334  0.3330541  )
        80           Ga  tau(  80) = (  0.0666666  0.3333334  0.6663874  )
        81           Ga  tau(  81) = (  0.0666666  0.3333334  0.9997208  )
        82           Ga  tau(  82) = (  0.0666666  0.5333334  0.3330541  )
        83           Ga  tau(  83) = (  0.0666666  0.5333334  0.6663874  )
        84           Ga  tau(  84) = (  0.0666666  0.5333334  0.9997208  )
        85           Ga  tau(  85) = (  0.0666666  0.7333334  0.3330541  )
        86           Ga  tau(  86) = (  0.0666666  0.7333334  0.6663874  )
        87           Ga  tau(  87) = (  0.0666666  0.7333334  0.9997208  )
        88           Ga  tau(  88) = (  0.0666666  0.9333334  0.3330541  )
        89           Ga  tau(  89) = (  0.0666666  0.9333334  0.6663874  )
        90           Ga  tau(  90) = (  0.0666666  0.9333334  0.9997208  )
        91           Ga  tau(  91) = (  0.2666666  0.1333334  0.3330541  )
        92           Ga  tau(  92) = (  0.2666666  0.1333334  0.6663874  )
        93           Ga  tau(  93) = (  0.2666666  0.1333334  0.9997208  )
        94           Ga  tau(  94) = (  0.2666666  0.3333334  0.3330541  )
        95           Ga  tau(  95) = (  0.2666666  0.3333334  0.6663874  )
        96           Ga  tau(  96) = (  0.2666666  0.3333334  0.9997208  )
        97           Ga  tau(  97) = (  0.2666666  0.5333334  0.3330541  )
        98           Ga  tau(  98) = (  0.2666666  0.5333334  0.6663874  )
        99           Ga  tau(  99) = (  0.2666666  0.5333334  0.9997208  )
       100           Ga  tau( 100) = (  0.2666666  0.7333334  0.3330541  )
       101           Ga  tau( 101) = (  0.2666666  0.7333334  0.6663874  )
       102           Ga  tau( 102) = (  0.2666666  0.7333334  0.9997208  )
       103           Ga  tau( 103) = (  0.2666666  0.9333334  0.3330541  )
       104           Ga  tau( 104) = (  0.2666666  0.9333334  0.6663874  )
       105           Ga  tau( 105) = (  0.2666666  0.9333334  0.9997208  )
       106           Ga  tau( 106) = (  0.4666666  0.1333334  0.3330541  )
       107           Ga  tau( 107) = (  0.4666666  0.1333334  0.6663874  )
       108           Ga  tau( 108) = (  0.4666666  0.1333334  0.9997208  )
       109           Ga  tau( 109) = (  0.4666666  0.3333334  0.3330541  )
       110           Ga  tau( 110) = (  0.4666666  0.3333334  0.6663874  )
       111           Ga  tau( 111) = (  0.4666666  0.3333334  0.9997208  )
       112           Ga  tau( 112) = (  0.4666666  0.5333334  0.3330541  )
       113           Ga  tau( 113) = (  0.4666666  0.5333334  0.6663874  )
       114           Ga  tau( 114) = (  0.4666666  0.5333334  0.9997208  )
       115           Ga  tau( 115) = (  0.4666666  0.7333334  0.3330541  )
       116           Ga  tau( 116) = (  0.4666666  0.7333334  0.6663874  )
       117           Ga  tau( 117) = (  0.4666666  0.7333334  0.9997208  )
       118           Ga  tau( 118) = (  0.4666666  0.9333334  0.3330541  )
       119           Ga  tau( 119) = (  0.4666666  0.9333334  0.6663874  )
       120           Ga  tau( 120) = (  0.4666666  0.9333334  0.9997208  )
       121           Ga  tau( 121) = (  0.6666666  0.1333334  0.3330541  )
       122           Ga  tau( 122) = (  0.6666666  0.1333334  0.6663874  )
       123           Ga  tau( 123) = (  0.6666666  0.1333334  0.9997208  )
       124           Ga  tau( 124) = (  0.6666666  0.3333334  0.3330541  )
       125           Ga  tau( 125) = (  0.6666666  0.3333334  0.6663874  )
       126           Ga  tau( 126) = (  0.6666666  0.3333334  0.9997208  )
       127           Ga  tau( 127) = (  0.6666666  0.5333334  0.3330541  )
       128           Ga  tau( 128) = (  0.6666666  0.5333334  0.6663874  )
       129           Ga  tau( 129) = (  0.6666666  0.5333334  0.9997208  )
       130           Ga  tau( 130) = (  0.6666666  0.7333334  0.3330541  )
       131           Ga  tau( 131) = (  0.6666666  0.7333334  0.6663874  )
       132           Ga  tau( 132) = (  0.6666666  0.7333334  0.9997208  )
       133           Ga  tau( 133) = (  0.6666666  0.9333334  0.3330541  )
       134           Ga  tau( 134) = (  0.6666666  0.9333334  0.6663874  )
       135           Ga  tau( 135) = (  0.6666666  0.9333334  0.9997208  )
       136           Ga  tau( 136) = (  0.8666666  0.1333334  0.3330541  )
       137           Ga  tau( 137) = (  0.8666666  0.1333334  0.6663874  )
       138           Ga  tau( 138) = (  0.8666666  0.1333334  0.9997208  )
       139           Ga  tau( 139) = (  0.8666666  0.3333334  0.3330541  )
       140           Ga  tau( 140) = (  0.8666666  0.3333334  0.6663874  )
       141           Ga  tau( 141) = (  0.8666666  0.3333334  0.9997208  )
       142           Ga  tau( 142) = (  0.8666666  0.5333334  0.3330541  )
       143           Ga  tau( 143) = (  0.8666666  0.5333334  0.6663874  )
       144           Ga  tau( 144) = (  0.8666666  0.5333334  0.9997208  )
       145           Ga  tau( 145) = (  0.8666666  0.7333334  0.3330541  )
       146           Ga  tau( 146) = (  0.8666666  0.7333334  0.6663874  )
       147           Ga  tau( 147) = (  0.8666666  0.7333334  0.9997208  )
       148           Ga  tau( 148) = (  0.8666666  0.9333334  0.3330541  )
       149           Ga  tau( 149) = (  0.8666666  0.9333334  0.6663874  )
       150           Ga  tau( 150) = (  0.8666666  0.9333334  0.9997208  )
       151           N   tau( 151) = (  0.1333334  0.0666666  0.6252792  )
       152           N   tau( 152) = (  0.1333334  0.0666666  0.9586126  )
       153           N   tau( 153) = (  0.1333334  0.2666666  0.2919459  )
       154           N   tau( 154) = (  0.1333334  0.2666666  0.6252792  )
       155           N   tau( 155) = (  0.1333334  0.2666666  0.9586126  )
       156           N   tau( 156) = (  0.1333334  0.4666666  0.2919459  )
       157           N   tau( 157) = (  0.1333334  0.4666666  0.6252792  )
       158           N   tau( 158) = (  0.1333334  0.4666666  0.9586126  )
       159           N   tau( 159) = (  0.1333334  0.6666666  0.2919459  )
       160           N   tau( 160) = (  0.1333334  0.6666666  0.6252792  )
       161           N   tau( 161) = (  0.1333334  0.6666666  0.9586126  )
       162           N   tau( 162) = (  0.1333334  0.8666666  0.2919459  )
       163           N   tau( 163) = (  0.1333334  0.8666666  0.6252792  )
       164           N   tau( 164) = (  0.1333334  0.8666666  0.9586126  )
       165           N   tau( 165) = (  0.3333334  0.0666666  0.2919459  )
       166           N   tau( 166) = (  0.3333334  0.0666666  0.6252792  )
       167           N   tau( 167) = (  0.3333334  0.0666666  0.9586126  )
       168           N   tau( 168) = (  0.3333334  0.2666666  0.2919459  )
       169           N   tau( 169) = (  0.3333334  0.2666666  0.6252792  )
       170           N   tau( 170) = (  0.3333334  0.2666666  0.9586126  )
       171           N   tau( 171) = (  0.3333334  0.4666666  0.2919459  )
       172           N   tau( 172) = (  0.3333334  0.4666666  0.6252792  )
       173           N   tau( 173) = (  0.3333334  0.4666666  0.9586126  )
       174           N   tau( 174) = (  0.3333334  0.6666666  0.2919459  )
       175           N   tau( 175) = (  0.3333334  0.6666666  0.6252792  )
       176           N   tau( 176) = (  0.3333334  0.6666666  0.9586126  )
       177           N   tau( 177) = (  0.3333334  0.8666666  0.2919459  )
       178           N   tau( 178) = (  0.3333334  0.8666666  0.6252792  )
       179           N   tau( 179) = (  0.3333334  0.8666666  0.9586126  )
       180           N   tau( 180) = (  0.5333334  0.0666666  0.2919459  )
       181           N   tau( 181) = (  0.5333334  0.0666666  0.6252792  )
       182           N   tau( 182) = (  0.5333334  0.0666666  0.9586126  )
       183           N   tau( 183) = (  0.5333334  0.2666666  0.2919459  )
       184           N   tau( 184) = (  0.5333334  0.2666666  0.6252792  )
       185           N   tau( 185) = (  0.5333334  0.2666666  0.9586126  )
       186           N   tau( 186) = (  0.5333334  0.4666666  0.2919459  )
       187           N   tau( 187) = (  0.5333334  0.4666666  0.6252792  )
       188           N   tau( 188) = (  0.5333334  0.4666666  0.9586126  )
       189           N   tau( 189) = (  0.5333334  0.6666666  0.2919459  )
       190           N   tau( 190) = (  0.5333334  0.6666666  0.6252792  )
       191           N   tau( 191) = (  0.5333334  0.6666666  0.9586126  )
       192           N   tau( 192) = (  0.5333334  0.8666666  0.2919459  )
       193           N   tau( 193) = (  0.5333334  0.8666666  0.6252792  )
       194           N   tau( 194) = (  0.5333334  0.8666666  0.9586126  )
       195           N   tau( 195) = (  0.7333334  0.0666666  0.2919459  )
       196           N   tau( 196) = (  0.7333334  0.0666666  0.6252792  )
       197           N   tau( 197) = (  0.7333334  0.0666666  0.9586126  )
       198           N   tau( 198) = (  0.7333334  0.2666666  0.2919459  )
       199           N   tau( 199) = (  0.7333334  0.2666666  0.6252792  )
       200           N   tau( 200) = (  0.7333334  0.2666666  0.9586126  )
       201           N   tau( 201) = (  0.7333334  0.4666666  0.2919459  )
       202           N   tau( 202) = (  0.7333334  0.4666666  0.6252792  )
       203           N   tau( 203) = (  0.7333334  0.4666666  0.9586126  )
       204           N   tau( 204) = (  0.7333334  0.6666666  0.2919459  )
       205           N   tau( 205) = (  0.7333334  0.6666666  0.6252792  )
       206           N   tau( 206) = (  0.7333334  0.6666666  0.9586126  )
       207           N   tau( 207) = (  0.7333334  0.8666666  0.2919459  )
       208           N   tau( 208) = (  0.7333334  0.8666666  0.6252792  )
       209           N   tau( 209) = (  0.7333334  0.8666666  0.9586126  )
       210           N   tau( 210) = (  0.9333334  0.0666666  0.2919459  )
       211           N   tau( 211) = (  0.9333334  0.0666666  0.6252792  )
       212           N   tau( 212) = (  0.9333334  0.0666666  0.9586126  )
       213           N   tau( 213) = (  0.9333334  0.2666666  0.2919459  )
       214           N   tau( 214) = (  0.9333334  0.2666666  0.6252792  )
       215           N   tau( 215) = (  0.9333334  0.2666666  0.9586126  )
       216           N   tau( 216) = (  0.9333334  0.4666666  0.2919459  )
       217           N   tau( 217) = (  0.9333334  0.4666666  0.6252792  )
       218           N   tau( 218) = (  0.9333334  0.4666666  0.9586126  )
       219           N   tau( 219) = (  0.9333334  0.6666666  0.2919459  )
       220           N   tau( 220) = (  0.9333334  0.6666666  0.6252792  )
       221           N   tau( 221) = (  0.9333334  0.6666666  0.9586126  )
       222           N   tau( 222) = (  0.9333334  0.8666666  0.2919459  )
       223           N   tau( 223) = (  0.9333334  0.8666666  0.6252792  )
       224           N   tau( 224) = (  0.9333334  0.8666666  0.9586126  )
       225           N   tau( 225) = (  0.0666666  0.1333334  0.1252792  )
       226           N   tau( 226) = (  0.0666666  0.1333334  0.4586126  )
       227           N   tau( 227) = (  0.0666666  0.1333334  0.7919459  )
       228           N   tau( 228) = (  0.0666666  0.3333334  0.1252792  )
       229           N   tau( 229) = (  0.0666666  0.3333334  0.4586126  )
       230           N   tau( 230) = (  0.0666666  0.3333334  0.7919459  )
       231           N   tau( 231) = (  0.0666666  0.5333334  0.1252792  )
       232           N   tau( 232) = (  0.0666666  0.5333334  0.4586126  )
       233           N   tau( 233) = (  0.0666666  0.5333334  0.7919459  )
       234           N   tau( 234) = (  0.0666666  0.7333334  0.1252792  )
       235           N   tau( 235) = (  0.0666666  0.7333334  0.4586126  )
       236           N   tau( 236) = (  0.0666666  0.7333334  0.7919459  )
       237           N   tau( 237) = (  0.0666666  0.9333334  0.1252792  )
       238           N   tau( 238) = (  0.0666666  0.9333334  0.4586126  )
       239           N   tau( 239) = (  0.0666666  0.9333334  0.7919459  )
       240           N   tau( 240) = (  0.2666666  0.1333334  0.1252792  )
       241           N   tau( 241) = (  0.2666666  0.1333334  0.4586126  )
       242           N   tau( 242) = (  0.2666666  0.1333334  0.7919459  )
       243           N   tau( 243) = (  0.2666666  0.3333334  0.1252792  )
       244           N   tau( 244) = (  0.2666666  0.3333334  0.4586126  )
       245           N   tau( 245) = (  0.2666666  0.3333334  0.7919459  )
       246           N   tau( 246) = (  0.2666666  0.5333334  0.1252792  )
       247           N   tau( 247) = (  0.2666666  0.5333334  0.4586126  )
       248           N   tau( 248) = (  0.2666666  0.5333334  0.7919459  )
       249           N   tau( 249) = (  0.2666666  0.7333334  0.1252792  )
       250           N   tau( 250) = (  0.2666666  0.7333334  0.4586126  )
       251           N   tau( 251) = (  0.2666666  0.7333334  0.7919459  )
       252           N   tau( 252) = (  0.2666666  0.9333334  0.1252792  )
       253           N   tau( 253) = (  0.2666666  0.9333334  0.4586126  )
       254           N   tau( 254) = (  0.2666666  0.9333334  0.7919459  )
       255           N   tau( 255) = (  0.4666666  0.1333334  0.1252792  )
       256           N   tau( 256) = (  0.4666666  0.1333334  0.4586126  )
       257           N   tau( 257) = (  0.4666666  0.1333334  0.7919459  )
       258           N   tau( 258) = (  0.4666666  0.3333334  0.1252792  )
       259           N   tau( 259) = (  0.4666666  0.3333334  0.4586126  )
       260           N   tau( 260) = (  0.4666666  0.3333334  0.7919459  )
       261           N   tau( 261) = (  0.4666666  0.5333334  0.1252792  )
       262           N   tau( 262) = (  0.4666666  0.5333334  0.4586126  )
       263           N   tau( 263) = (  0.4666666  0.5333334  0.7919459  )
       264           N   tau( 264) = (  0.4666666  0.7333334  0.1252792  )
       265           N   tau( 265) = (  0.4666666  0.7333334  0.4586126  )
       266           N   tau( 266) = (  0.4666666  0.7333334  0.7919459  )
       267           N   tau( 267) = (  0.4666666  0.9333334  0.1252792  )
       268           N   tau( 268) = (  0.4666666  0.9333334  0.4586126  )
       269           N   tau( 269) = (  0.4666666  0.9333334  0.7919459  )
       270           N   tau( 270) = (  0.6666666  0.1333334  0.1252792  )
       271           N   tau( 271) = (  0.6666666  0.1333334  0.4586126  )
       272           N   tau( 272) = (  0.6666666  0.1333334  0.7919459  )
       273           N   tau( 273) = (  0.6666666  0.3333334  0.1252792  )
       274           N   tau( 274) = (  0.6666666  0.3333334  0.4586126  )
       275           N   tau( 275) = (  0.6666666  0.3333334  0.7919459  )
       276           N   tau( 276) = (  0.6666666  0.5333334  0.1252792  )
       277           N   tau( 277) = (  0.6666666  0.5333334  0.4586126  )
       278           N   tau( 278) = (  0.6666666  0.5333334  0.7919459  )
       279           N   tau( 279) = (  0.6666666  0.7333334  0.1252792  )
       280           N   tau( 280) = (  0.6666666  0.7333334  0.4586126  )
       281           N   tau( 281) = (  0.6666666  0.7333334  0.7919459  )
       282           N   tau( 282) = (  0.6666666  0.9333334  0.1252792  )
       283           N   tau( 283) = (  0.6666666  0.9333334  0.4586126  )
       284           N   tau( 284) = (  0.6666666  0.9333334  0.7919459  )
       285           N   tau( 285) = (  0.8666666  0.1333334  0.1252792  )
       286           N   tau( 286) = (  0.8666666  0.1333334  0.4586126  )
       287           N   tau( 287) = (  0.8666666  0.1333334  0.7919459  )
       288           N   tau( 288) = (  0.8666666  0.3333334  0.1252792  )
       289           N   tau( 289) = (  0.8666666  0.3333334  0.4586126  )
       290           N   tau( 290) = (  0.8666666  0.3333334  0.7919459  )
       291           N   tau( 291) = (  0.8666666  0.5333334  0.1252792  )
       292           N   tau( 292) = (  0.8666666  0.5333334  0.4586126  )
       293           N   tau( 293) = (  0.8666666  0.5333334  0.7919459  )
       294           N   tau( 294) = (  0.8666666  0.7333334  0.1252792  )
       295           N   tau( 295) = (  0.8666666  0.7333334  0.4586126  )
       296           N   tau( 296) = (  0.8666666  0.7333334  0.7919459  )
       297           N   tau( 297) = (  0.8666666  0.9333334  0.1252792  )
       298           N   tau( 298) = (  0.8666666  0.9333334  0.4586126  )
       299           N   tau( 299) = (  0.8666666  0.9333334  0.7919459  )
       300           Ga  tau( 300) = (  0.1333334  0.0666666  0.2919459  )

     number of k points=     6  Gaussian smearing, width (Ry)=  0.0100
                       cart. coord. in units 2pi/alat
        k(    1) = (   0.0000000   0.0000000   0.0000000), wk =   0.2500000
        k(    2) = (   0.0000000   0.0000000  -0.5112854), wk =   0.2500000
        k(    3) = (   0.0000000  -0.5773503   0.0000000), wk =   0.5000000
        k(    4) = (   0.0000000  -0.5773503  -0.5112854), wk =   0.5000000
        k(    5) = (  -0.5000000  -0.2886751   0.0000000), wk =   0.2500000
        k(    6) = (  -0.5000000  -0.2886751  -0.5112854), wk =   0.2500000

                       cryst. coord.
        k(    1) = (   0.0000000   0.0000000   0.0000000), wk =   0.2500000
        k(    2) = (   0.0000000   0.0000000  -0.5000000), wk =   0.2500000
        k(    3) = (   0.0000000  -0.5000000   0.0000000), wk =   0.5000000
        k(    4) = (   0.0000000  -0.5000000  -0.5000000), wk =   0.5000000
        k(    5) = (  -0.5000000  -0.0000000   0.0000000), wk =   0.2500000
        k(    6) = (  -0.5000000  -0.0000000  -0.5000000), wk =   0.2500000

     Dense  grid:  2698283 G-vectors     FFT dimensions: ( 192, 192, 180)

     Smooth grid:  1930731 G-vectors     FFT dimensions: ( 180, 180, 160)

     Dynamical RAM for                 wfc:      93.48 MB

     Dynamical RAM for     wfc (w. buffer):     280.44 MB

     Dynamical RAM for           str. fact:       1.29 MB

     Dynamical RAM for           local pot:       0.00 MB

     Dynamical RAM for          nlocal pot:     224.93 MB

     Dynamical RAM for                qrad:       3.00 MB

     Dynamical RAM for          rho,v,vnew:       4.46 MB

     Dynamical RAM for               rhoin:       1.49 MB

     Dynamical RAM for            rho*nmix:      10.29 MB

     Dynamical RAM for           G-vectors:       2.64 MB

     Dynamical RAM for          h,s,v(r/c):    1934.05 MB

     Dynamical RAM for          <psi|beta>:      96.95 MB

     Dynamical RAM for                 psi:     373.92 MB

     Dynamical RAM for                hpsi:     373.92 MB

     Dynamical RAM for                spsi:     373.92 MB

     Dynamical RAM for      wfcinit/wfcrot:     247.41 MB

     Dynamical RAM for           addusdens:      54.68 MB

     Dynamical RAM for          addusforce:     103.36 MB

     Dynamical RAM for         addusstress:      32.57 MB

     Estimated static dynamical RAM per process >     524.39 MB

     Estimated max dynamical RAM per process >       3.60 GB

     Estimated total dynamical RAM >     919.93 GB

     Atomic positions and unit cell read from directory:
     ./GaN.save/
     Atomic positions from file used, from input discarded
 

     Check: negative core charge=   -0.000003

     The initial density is read from file :
     ./GaN.save/charge-density



     %%%%%%%%%%%%%%%%%%%%%%%%%%%%%%%%%%%%%%%%%%%%%%%%%%%%%%%%%%%%%%%%%%%%%%%%
     %                                                                      %
     % You are using vdW-DF, which was implemented by the Thonhauser group. %
     % Please cite the following two papers that made this development      %
     % possible and the two reviews that describe the various versions:     %
     %                                                                      %
     %   T. Thonhauser et al., PRL 115, 136402 (2015).                      %
     %   T. Thonhauser et al., PRB 76, 125112 (2007).                       %
     %   K. Berland et al., Rep. Prog. Phys. 78, 066501 (2015).             %
     %   D.C. Langreth et al., J. Phys.: Condens. Matter 21, 084203 (2009). %
     %                                                                      %
     % If you are calculating stress with vdW-DF, please also cite:         %
     %                                                                      %
     %   R. Sabatini et al., J. Phys.: Condens. Matter 24, 424209 (2012).   %
     %                                                                      %
     %%%%%%%%%%%%%%%%%%%%%%%%%%%%%%%%%%%%%%%%%%%%%%%%%%%%%%%%%%%%%%%%%%%%%%%%

     %%%%%%%%%%%%%%%%%%%%%%%%%%%%%%%%%%%%%%%%%%%%%%%%%%%%%%%%%%%%%%%%%%%%%%%%
     %                                                                      %
     %  vdW-DF NEWS:                                                        %
     %                                                                      %
     %  * vdW-DF3 is now available. DOI: 10.1021/acs.jctc.0c00471           %
     %    use with input_dft = 'vdW-DF3-opt1' or 'vdW-DF3-opt2'             %
     %                                                                      %
     %  * Unscreened and range-separated vdW-DF hybrid functionals          %
     %    DOI: 10.1063/1.4986522 and 10.1088/1361-648X/ac2ad2               %
     %    use with input_dft = 'vdW-DF-cx0' (etc) and 'vdW-DF-ahcx'         %
     %                                                                      %
     %%%%%%%%%%%%%%%%%%%%%%%%%%%%%%%%%%%%%%%%%%%%%%%%%%%%%%%%%%%%%%%%%%%%%%%%


     Carrying out vdW-DF run using the following parameters:
     Nqs    =  20  Npoints =  1024  r_max =  100.000
     q_mesh =  0.00001000  0.04494208  0.09755937  0.15916263
               0.23128650  0.31572767  0.41458969  0.53033537
               0.66584808  0.82450364  1.01025438  1.22772762
               1.48234092  1.78043706  2.12944203  2.53805004
               3.01644009  3.57652955  4.23227104  5.00000000


     -----------------------------------------------
     Non-local corr. energy    =      82.12808720 Ry
     -----------------------------------------------

     Cannot read wfcs: file not found
     Starting wfcs are 1955 randomized atomic wfcs
     Checking if some PAW data can be deallocated... 
       PAW data deallocated on  149 nodes for type:  1
       PAW data deallocated on  107 nodes for type:  2

     total cpu time spent up to now is      121.6 secs

     Self-consistent Calculation

     iteration #  1     ecut=    70.00 Ry     beta= 0.70
     Davidson diagonalization with overlap

---- Real-time Memory Report at c_bands before calling an iterative solver
          1277 MiB given to the printing process from OS
             0 MiB allocation reported by mallinfo(arena+hblkhd)
       1617249 MiB available memory on the node where the printing process lives
------------------
     ethr =  1.00E-05,  avg # of iterations = 27.2


     -----------------------------------------------
     Non-local corr. energy    =      82.10845547 Ry
     -----------------------------------------------


     total cpu time spent up to now is     3741.6 secs

     total energy              =  -47097.92170919 Ry
     estimated scf accuracy    <       0.76231945 Ry

     iteration #  2     ecut=    70.00 Ry     beta= 0.70
     Davidson diagonalization with overlap

---- Real-time Memory Report at c_bands before calling an iterative solver
          3643 MiB given to the printing process from OS
             0 MiB allocation reported by mallinfo(arena+hblkhd)
       1617651 MiB available memory on the node where the printing process lives
------------------
     ethr =  2.82E-05,  avg # of iterations = 10.8


     -----------------------------------------------
     Non-local corr. energy    =      82.09997456 Ry
     -----------------------------------------------


     total cpu time spent up to now is     5955.8 secs

     total energy              =  -47097.10677185 Ry
     estimated scf accuracy    <       7.14450506 Ry

     iteration #  3     ecut=    70.00 Ry     beta= 0.70
     Davidson diagonalization with overlap

---- Real-time Memory Report at c_bands before calling an iterative solver
          3643 MiB given to the printing process from OS
             0 MiB allocation reported by mallinfo(arena+hblkhd)
       1597046 MiB available memory on the node where the printing process lives
------------------
     ethr =  2.82E-05,  avg # of iterations = 11.0


     -----------------------------------------------
     Non-local corr. energy    =      82.10702467 Ry
     -----------------------------------------------


     total cpu time spent up to now is     7984.1 secs

     total energy              =  -47098.14765331 Ry
     estimated scf accuracy    <       0.50941940 Ry

     iteration #  4     ecut=    70.00 Ry     beta= 0.70
     Davidson diagonalization with overlap

---- Real-time Memory Report at c_bands before calling an iterative solver
          3643 MiB given to the printing process from OS
             0 MiB allocation reported by mallinfo(arena+hblkhd)
       1596911 MiB available memory on the node where the printing process lives
------------------
     ethr =  1.88E-05,  avg # of iterations = 14.0


     -----------------------------------------------
     Non-local corr. energy    =      82.11164860 Ry
     -----------------------------------------------


     total cpu time spent up to now is     9954.7 secs

     total energy              =  -47098.19912543 Ry
     estimated scf accuracy    <       0.27462266 Ry

     iteration #  5     ecut=    70.00 Ry     beta= 0.70
     Davidson diagonalization with overlap

---- Real-time Memory Report at c_bands before calling an iterative solver
          3643 MiB given to the printing process from OS
             0 MiB allocation reported by mallinfo(arena+hblkhd)
       1596756 MiB available memory on the node where the printing process lives
------------------
     ethr =  1.01E-05,  avg # of iterations = 15.3


     -----------------------------------------------
     Non-local corr. energy    =      82.11613310 Ry
     -----------------------------------------------


     total cpu time spent up to now is    11845.0 secs

     total energy              =  -47098.22907853 Ry
     estimated scf accuracy    <       0.02861392 Ry

     iteration #  6     ecut=    70.00 Ry     beta= 0.70
     Davidson diagonalization with overlap

---- Real-time Memory Report at c_bands before calling an iterative solver
          3643 MiB given to the printing process from OS
             0 MiB allocation reported by mallinfo(arena+hblkhd)
       1596611 MiB available memory on the node where the printing process lives
------------------
     ethr =  1.06E-06,  avg # of iterations = 16.2


     -----------------------------------------------
     Non-local corr. energy    =      82.12126479 Ry
     -----------------------------------------------


     total cpu time spent up to now is    14115.0 secs

     total energy              =  -47098.23009392 Ry
     estimated scf accuracy    <       0.01694873 Ry

     iteration #  7     ecut=    70.00 Ry     beta= 0.70
     Davidson diagonalization with overlap

---- Real-time Memory Report at c_bands before calling an iterative solver
          3643 MiB given to the printing process from OS
             0 MiB allocation reported by mallinfo(arena+hblkhd)
       1596448 MiB available memory on the node where the printing process lives
------------------
     ethr =  6.26E-07,  avg # of iterations = 16.5


     -----------------------------------------------
     Non-local corr. energy    =      82.12723142 Ry
     -----------------------------------------------


     total cpu time spent up to now is    16264.6 secs

     total energy              =  -47098.23012661 Ry
     estimated scf accuracy    <       0.01812906 Ry

     iteration #  8     ecut=    70.00 Ry     beta= 0.70
     Davidson diagonalization with overlap

---- Real-time Memory Report at c_bands before calling an iterative solver
          3643 MiB given to the printing process from OS
             0 MiB allocation reported by mallinfo(arena+hblkhd)
       1596292 MiB available memory on the node where the printing process lives
------------------
     ethr =  6.26E-07,  avg # of iterations = 15.5


     -----------------------------------------------
     Non-local corr. energy    =      82.12929847 Ry
     -----------------------------------------------


     total cpu time spent up to now is    18155.4 secs

     total energy              =  -47098.23127972 Ry
     estimated scf accuracy    <       0.00990178 Ry

     iteration #  9     ecut=    70.00 Ry     beta= 0.70
     Davidson diagonalization with overlap

---- Real-time Memory Report at c_bands before calling an iterative solver
          3643 MiB given to the printing process from OS
             0 MiB allocation reported by mallinfo(arena+hblkhd)
       1596142 MiB available memory on the node where the printing process lives
------------------
     ethr =  3.66E-07,  avg # of iterations = 17.0


     -----------------------------------------------
     Non-local corr. energy    =      82.12927042 Ry
     -----------------------------------------------


     total cpu time spent up to now is    19990.3 secs

     total energy              =  -47098.23209775 Ry
     estimated scf accuracy    <       0.00088587 Ry

     iteration # 10     ecut=    70.00 Ry     beta= 0.70
     Davidson diagonalization with overlap

---- Real-time Memory Report at c_bands before calling an iterative solver
          3643 MiB given to the printing process from OS
             0 MiB allocation reported by mallinfo(arena+hblkhd)
       1596009 MiB available memory on the node where the printing process lives
------------------
     ethr =  3.27E-08,  avg # of iterations = 16.7


     -----------------------------------------------
     Non-local corr. energy    =      82.12914456 Ry
     -----------------------------------------------


     total cpu time spent up to now is    22654.6 secs

     total energy              =  -47098.23224347 Ry
     estimated scf accuracy    <       0.00045864 Ry

     iteration # 11     ecut=    70.00 Ry     beta= 0.70
     Davidson diagonalization with overlap

---- Real-time Memory Report at c_bands before calling an iterative solver
          3643 MiB given to the printing process from OS
             0 MiB allocation reported by mallinfo(arena+hblkhd)
       1595978 MiB available memory on the node where the printing process lives
------------------
     ethr =  1.69E-08,  avg # of iterations = 15.3


     -----------------------------------------------
     Non-local corr. energy    =      82.12824494 Ry
     -----------------------------------------------


     total cpu time spent up to now is    24524.3 secs

     total energy              =  -47098.23227027 Ry
     estimated scf accuracy    <       0.00009922 Ry

     iteration # 12     ecut=    70.00 Ry     beta= 0.70
     Davidson diagonalization with overlap

---- Real-time Memory Report at c_bands before calling an iterative solver
          3643 MiB given to the printing process from OS
             0 MiB allocation reported by mallinfo(arena+hblkhd)
       1595972 MiB available memory on the node where the printing process lives
------------------
     ethr =  3.67E-09,  avg # of iterations = 17.2


     -----------------------------------------------
     Non-local corr. energy    =      82.12833463 Ry
     -----------------------------------------------


     total cpu time spent up to now is    27097.5 secs

     total energy              =  -47098.23228435 Ry
     estimated scf accuracy    <       0.00002292 Ry

     iteration # 13     ecut=    70.00 Ry     beta= 0.70
     Davidson diagonalization with overlap

---- Real-time Memory Report at c_bands before calling an iterative solver
          3643 MiB given to the printing process from OS
             0 MiB allocation reported by mallinfo(arena+hblkhd)
       1595952 MiB available memory on the node where the printing process lives
------------------
     ethr =  8.47E-10,  avg # of iterations = 15.7


     -----------------------------------------------
     Non-local corr. energy    =      82.12843841 Ry
     -----------------------------------------------


     total cpu time spent up to now is    29953.9 secs

     total energy              =  -47098.23228973 Ry
     estimated scf accuracy    <       0.00002159 Ry

     iteration # 14     ecut=    70.00 Ry     beta= 0.70
     Davidson diagonalization with overlap

---- Real-time Memory Report at c_bands before calling an iterative solver
          3643 MiB given to the printing process from OS
             0 MiB allocation reported by mallinfo(arena+hblkhd)
       1595945 MiB available memory on the node where the printing process lives
------------------
     ethr =  7.98E-10,  avg # of iterations = 16.2


     -----------------------------------------------
     Non-local corr. energy    =      82.12847267 Ry
     -----------------------------------------------


     total cpu time spent up to now is    32213.3 secs

     total energy              =  -47098.23229260 Ry
     estimated scf accuracy    <       0.00000470 Ry

     iteration # 15     ecut=    70.00 Ry     beta= 0.70
     Davidson diagonalization with overlap

---- Real-time Memory Report at c_bands before calling an iterative solver
          3643 MiB given to the printing process from OS
             0 MiB allocation reported by mallinfo(arena+hblkhd)
       1595938 MiB available memory on the node where the printing process lives
------------------
     ethr =  1.73E-10,  avg # of iterations = 17.0


     -----------------------------------------------
     Non-local corr. energy    =      82.12850204 Ry
     -----------------------------------------------


     total cpu time spent up to now is    34503.8 secs

     total energy              =  -47098.23229333 Ry
     estimated scf accuracy    <       0.00000033 Ry

     iteration # 16     ecut=    70.00 Ry     beta= 0.70
     Davidson diagonalization with overlap

---- Real-time Memory Report at c_bands before calling an iterative solver
          3643 MiB given to the printing process from OS
             0 MiB allocation reported by mallinfo(arena+hblkhd)
       1595927 MiB available memory on the node where the printing process lives
------------------
     ethr =  1.22E-11,  avg # of iterations = 14.8


     -----------------------------------------------
     Non-local corr. energy    =      82.12852847 Ry
     -----------------------------------------------


     total cpu time spent up to now is    38120.6 secs

     total energy              =  -47098.23229345 Ry
     estimated scf accuracy    <       0.00000034 Ry

     iteration # 17     ecut=    70.00 Ry     beta= 0.70
     Davidson diagonalization with overlap

---- Real-time Memory Report at c_bands before calling an iterative solver
          3643 MiB given to the printing process from OS
             0 MiB allocation reported by mallinfo(arena+hblkhd)
       1595908 MiB available memory on the node where the printing process lives
------------------
     ethr =  1.22E-11,  avg # of iterations = 15.3


     -----------------------------------------------
     Non-local corr. energy    =      82.12854156 Ry
     -----------------------------------------------


     total cpu time spent up to now is    40353.7 secs

     total energy              =  -47098.23229349 Ry
     estimated scf accuracy    <       0.00000020 Ry

     iteration # 18     ecut=    70.00 Ry     beta= 0.70
     Davidson diagonalization with overlap

---- Real-time Memory Report at c_bands before calling an iterative solver
          3643 MiB given to the printing process from OS
             0 MiB allocation reported by mallinfo(arena+hblkhd)
       1595905 MiB available memory on the node where the printing process lives
------------------
     ethr =  7.56E-12,  avg # of iterations = 17.0


     -----------------------------------------------
     Non-local corr. energy    =      82.12854673 Ry
     -----------------------------------------------


     total cpu time spent up to now is    42295.2 secs

     total energy              =  -47098.23229352 Ry
     estimated scf accuracy    <       0.00000004 Ry

     iteration # 19     ecut=    70.00 Ry     beta= 0.70
     Davidson diagonalization with overlap

---- Real-time Memory Report at c_bands before calling an iterative solver
          3643 MiB given to the printing process from OS
             0 MiB allocation reported by mallinfo(arena+hblkhd)
       1595882 MiB available memory on the node where the printing process lives
------------------
     ethr =  1.51E-12,  avg # of iterations = 17.0


     -----------------------------------------------
     Non-local corr. energy    =      82.12854790 Ry
     -----------------------------------------------


     total cpu time spent up to now is    44447.0 secs

     total energy              =  -47098.23229352 Ry
     estimated scf accuracy    <          4.6E-09 Ry

     iteration # 20     ecut=    70.00 Ry     beta= 0.70
     Davidson diagonalization with overlap

---- Real-time Memory Report at c_bands before calling an iterative solver
          3643 MiB given to the printing process from OS
             0 MiB allocation reported by mallinfo(arena+hblkhd)
       1595855 MiB available memory on the node where the printing process lives
------------------
     ethr =  1.70E-13,  avg # of iterations = 17.5


     -----------------------------------------------
     Non-local corr. energy    =      82.12854883 Ry
     -----------------------------------------------


     total cpu time spent up to now is    47079.5 secs

     total energy              =  -47098.23229353 Ry
     estimated scf accuracy    <          1.4E-09 Ry

     iteration # 21     ecut=    70.00 Ry     beta= 0.70
     Davidson diagonalization with overlap

---- Real-time Memory Report at c_bands before calling an iterative solver
          3643 MiB given to the printing process from OS
             0 MiB allocation reported by mallinfo(arena+hblkhd)
       1595794 MiB available memory on the node where the printing process lives
------------------
     ethr =  1.00E-13,  avg # of iterations = 16.8


     -----------------------------------------------
     Non-local corr. energy    =      82.12854935 Ry
     -----------------------------------------------


     total cpu time spent up to now is    49018.7 secs

     End of self-consistent calculation

          k = 0.0000 0.0000 0.0000 (241213 PWs)   bands (ev):

    -6.8403  -6.6652  -6.6527  -6.6515  -6.6278  -6.6047  -6.5930  -6.5929
    -6.5627  -6.5280  -6.5265  -6.5200  -6.5088  -6.5087  -6.4819  -6.4819
    -6.4814  -6.4685  -6.4473  -6.4472  -6.4461  -6.4375  -6.4374  -6.4336
    -6.4335  -6.4269  -6.4222  -6.4210  -6.4209  -6.3982  -6.3882  -6.3850
    -6.3834  -6.3832  -6.3820  -6.3661  -6.3660  -6.3625  -6.3602  -6.3599
    -6.3567  -6.3540  -6.3529  -6.3470  -6.3468  -6.3414  -6.3413  -6.3401
    -6.3400  -6.3382  -6.3337  -6.3330  -6.3271  -6.3269  -6.3233  -6.3217
    -6.3207  -6.3203  -6.3201  -6.3195  -6.3192  -6.3184  -6.3180  -6.3146
    -6.3111  -6.3094  -6.3088  -6.3081  -6.3080  -6.3071  -6.3068  -6.3060
    -6.3056  -6.3052  -6.3025  -6.3025  -6.3016  -6.2993  -6.2984  -6.2945
    -6.2942  -6.2937  -6.2931  -6.2921  -6.2913  -6.2910  -6.2907  -6.2897
    -6.2896  -6.2866  -6.2863  -6.2849  -6.2845  -6.2840  -6.2813  -6.2804
    -6.2803  -6.2778  -6.2767  -6.2765  -6.2748  -6.2740  -6.2714  -6.2709
    -6.2708  -6.2703  -6.2696  -6.2691  -6.2668  -6.2666  -6.2646  -6.2642
    -6.2629  -6.2626  -6.2618  -6.2607  -6.2588  -6.2584  -6.2583  -6.2575
    -6.2571  -6.2569  -6.2563  -6.2534  -6.2533  -6.2517  -6.2515  -6.2491
    -6.2490  -6.2482  -6.2452  -6.2446  -6.2442  -6.2417  -6.2410  -6.2396
    -6.2395  -6.2367  -6.2366  -6.2359  -6.2341  -6.2331  -6.2324  -6.2319
    -6.2315  -6.2307  -6.2271  -6.2263  -6.2252  -5.7055  -5.7025  -5.6162
    -5.5536  -5.5531  -5.4913  -5.4576  -5.4558  -5.4503  -5.3730  -5.3610
    -5.3600  -5.3482  -5.3438  -5.3325  -5.3318  -5.2798  -5.2795  -5.2700
    -5.2697  -5.2637  -5.2457  -5.2456  -5.2411  -5.2403  -5.2365  -5.2312
    -5.2274  -5.2270  -5.2237  -5.2237  -5.2176  -5.2151  -5.2139  -5.2138
    -5.2084  -5.2076  -5.2070  -5.2058  -5.2058  -5.2036  -5.2023  -5.2009
    -5.2005  -5.1996  -5.1995  -5.1937  -5.1930  -5.1922  -5.1920  -5.1915
    -5.1914  -5.1873  -5.1863  -5.1861  -5.1846  -5.1833  -5.1832  -5.1812
    -5.1806  -5.1786  -5.1752  -5.1751  -5.1749  -5.1734  -5.1731  -5.1724
    -5.1710  -5.1709  -5.1705  -5.1687  -5.1682  -5.1681  -5.1650  -5.1647
    -5.1646  -5.1639  -5.1638  -5.1621  -5.1611  -5.1610  -5.1601  -5.1595
    -5.1588  -5.1587  -5.1572  -5.1572  -5.1564  -5.1559  -5.1558  -5.1553
    -5.1553  -5.1552  -5.1535  -5.1535  -5.1530  -5.1504  -5.1501  -5.1501
    -5.1486  -5.1478  -5.1477  -5.1470  -5.1469  -5.1451  -5.1448  -5.1448
    -5.1447  -5.1446  -5.1444  -5.1440  -5.1418  -5.1418  -5.1412  -5.1410
    -5.1410  -5.1381  -5.1380  -5.1378  -5.1378  -5.1367  -5.1366  -5.1366
    -5.1362  -5.1359  -5.1358  -5.1353  -5.1353  -5.1336  -5.1323  -5.1323
    -5.1318  -5.1318  -5.1317  -5.1308  -5.1303  -5.1303  -5.1291  -5.1291
    -5.1283  -5.1283  -5.1280  -5.1276  -5.1254  -5.1253  -5.1249  -5.1249
    -5.1241  -5.1239  -5.1232  -5.1232  -5.1221  -5.1217  -5.1201  -5.1201
    -5.1198  -5.1183  -5.1182  -5.1182  -5.1178  -5.1178  -5.1162  -5.1160
    -5.1160  -5.1159  -5.1155  -5.1155  -5.1141  -5.1139  -5.1138  -5.1138
    -5.1137  -5.1123  -5.1119  -5.1118  -5.1108  -5.1108  -5.1102  -5.1080
    -5.1077  -5.1077  -5.1072  -5.1072  -5.1068  -5.1067  -5.1065  -5.1061
    -5.1058  -5.1057  -5.1034  -5.1027  -5.1026  -5.1024  -5.1024  -5.1014
    -5.1013  -5.1011  -5.1011  -5.1005  -5.0995  -5.0995  -5.0986  -5.0985
    -5.0984  -5.0983  -5.0975  -5.0971  -5.0970  -5.0965  -5.0947  -5.0946
    -5.0945  -5.0941  -5.0938  -5.0937  -5.0936  -5.0917  -5.0917  -5.0910
    -5.0898  -5.0896  -5.0893  -5.0890  -5.0889  -5.0888  -5.0874  -5.0873
    -5.0867  -5.0855  -5.0854  -5.0851  -5.0849  -5.0843  -5.0839  -5.0835
    -5.0834  -5.0824  -5.0824  -5.0820  -5.0819  -5.0816  -5.0798  -5.0793
    -5.0793  -5.0787  -5.0786  -5.0782  -5.0772  -5.0772  -5.0758  -5.0757
    -5.0746  -5.0740  -5.0740  -5.0735  -5.0727  -5.0727  -5.0719  -5.0714
    -5.0713  -5.0701  -5.0692  -5.0690  -5.0689  -5.0688  -5.0679  -5.0678
    -5.0657  -5.0655  -5.0655  -5.0652  -5.0652  -5.0649  -5.0621  -5.0620
    -5.0601  -5.0597  -5.0594  -5.0590  -5.0584  -5.0582  -5.0573  -5.0544
    -5.0542  -5.0538  -5.0537  -5.0521  -5.0520  -5.0507  -5.0507  -5.0499
    -5.0498  -5.0497  -5.0482  -5.0476  -5.0472  -5.0463  -5.0463  -5.0446
    -5.0444  -5.0443  -5.0436  -5.0433  -5.0430  -5.0422  -5.0409  -5.0409
    -5.0406  -5.0397  -5.0396  -5.0369  -5.0369  -5.0361  -5.0360  -5.0350
    -5.0346  -5.0345  -5.0340  -5.0305  -5.0305  -5.0303  -5.0301  -5.0301
    -5.0288  -5.0283  -5.0279  -5.0258  -5.0258  -5.0252  -5.0251  -5.0249
    -5.0242  -5.0239  -5.0239  -5.0233  -5.0228  -5.0228  -5.0219  -5.0212
    -5.0212  -5.0208  -5.0202  -5.0201  -5.0188  -5.0187  -5.0186  -5.0186
    -5.0177  -5.0177  -5.0168  -5.0164  -5.0157  -5.0157  -5.0150  -5.0135
    -5.0134  -5.0133  -5.0121  -5.0121  -5.0121  -5.0120  -5.0109  -5.0102
    -5.0097  -5.0096  -5.0088  -5.0087  -5.0083  -5.0082  -5.0073  -5.0073
    -5.0066  -5.0065  -5.0053  -5.0047  -5.0047  -5.0039  -5.0039  -5.0029
    -5.0029  -5.0023  -5.0018  -5.0015  -5.0009  -5.0005  -5.0001  -5.0000
[...]
Ga            0.0050119867       13.1098945570       10.5787605107
Ga            0.0034674414       13.1109351397       15.8595902551
Ga            9.7333976081        1.8748597101        5.2854921489
Ga            9.7339345127        1.8749786927       10.5809697491
Ga            9.7338063702        1.8752554752       15.8531667831
Ga            8.1235137916        4.6901155533        5.2854188694
Ga            8.1163909720        4.6860031915       10.5776426668
Ga            8.1149032436        4.6851442511       15.8560698188
Ga            6.4903726215        7.4919437573        5.2854921489
Ga            6.4907441158        7.4923492389       10.5809697491
Ga            6.4909197452        7.4920998731       15.8531667831
Ga            4.8601271596       10.3010194090        5.2831333934
Ga            4.8617792455       10.2994072653       10.5788615684
Ga            4.8636075172       10.3004647748       15.8595036613
Ga            3.2396347101       13.1077946651        5.2831333934
Ga            3.2390645957       13.1100314853       10.5788615684
Ga            3.2408945615       13.1110860603       15.8595036613
Ga           12.9112030329        1.8830030493        5.2947152557
Ga           12.9635475154        1.8792101333       10.5877012488
Ga           12.9705185765        1.8740321921       15.8511722962
Ga           11.3465120244        4.6897963255        5.2854673484
Ga           11.3520478352        4.6859788482       10.5777822290
Ga           11.3533377100        4.6851941367       15.8562446332
Ga            9.7347364486        7.4814735134        5.2854673484
Ga            9.7341983217        7.4881764048       10.5777822290
Ga            9.7341636790        7.4896858249       15.8562446332
Ga            8.0863276726       10.2399323137        5.2947152557
Ga            8.1092151522       10.2871604234       10.5877012488
Ga            8.1082164542       10.2957865100       15.8511722962
Ga            6.4829011864       13.1091119343        5.3045487178
Ga            6.4716206736       13.1025991272       10.5912106713
Ga            6.4885238026       13.1123581533       15.8463799641
N             1.6222429382        0.9366009261        9.9023844619
N             1.6214436494        0.9361394565       15.1903799819
N            -0.0304947026        3.7983748680        4.6279246109
N            -0.0023506902        3.7634274247        9.9526693144
N            -0.0032493875        3.7710897253       15.1758646328
N            -1.6257705604        6.5759581242        4.6236653462
N            -1.6225712097        6.5620302242        9.9265670050
N            -1.6217896331        6.5622378680       15.2067904290
N            -3.2293082594        9.3533668908        4.6236653462
N            -3.2397704992        9.3631015597        9.9265670050
N            -3.2391998862        9.3636746030       15.2067904290
N            -4.8371279914       12.1237079377        4.6279246109
N            -4.8533213589       12.1655550891        9.9526693144
N            -4.8471349606       12.1609456441       15.1758646328
N             4.9263843164        0.9381932144        4.6280116872
N             4.8827934643        0.9301945721        9.9528149054
N             4.8886130454        0.9278044333       15.1762432996
N             3.2756925894        3.7972751533        4.6280116872
N             3.2469701358        3.7635236891        9.9528149054
N             3.2478100055        3.7697586636       15.1762432996
N             1.6223191572        6.5535766573        4.6343780200
N             1.6224294000        6.5667397721        9.9207191851
N             1.6225100822        6.5617088292       15.2127808456
N             0.0019685437        9.3673395785        4.6277932738
N             0.0019703520        9.3673406225        9.9198609971
N             0.0020681552        9.3673970892       15.2060413522
N            -1.6246463196       12.1774858335        4.6343780200
N            -1.6131916064       12.1709997492        9.9207191851
N            -1.6175081896       12.1735850934       15.2127808456
N             8.1298310388        0.9300996928        4.6236069844
N             8.1164376302        0.9342735483        9.9265209477
N             8.1158794102        0.9336716001       15.2067513544
N             6.4991389048        3.7522781253        4.6331565305
N             6.4935261313        3.7490375891        9.9263295987
N             6.4926369186        3.7485242019       15.2079781966
N             4.8704067553        6.5755881555        4.6236069844
N             4.8673247159        6.5619021956        9.9265209477
N             4.8665243035        6.5617197370       15.2067513544
N             3.2416832833        9.3672255998        4.6276956707
N             3.2427537693        9.3671843482        9.9200964968
N             3.2427824090        9.3672833239       15.2061664020
N             1.6217272051       12.1730718335        4.6276956707
N             1.6222267231       12.1740195273        9.9200964968
N             1.6223267585       12.1739948422       15.2061664020
N            11.3361806362        0.9291862586        4.6232666949
N            11.3511539321        0.9344147141        9.9267682198
N            11.3514960771        0.9338213902       15.2068826141
N             9.7346383985        3.7452003064        4.6278367492
N             9.7340873518        3.7464094448        9.9229648983
N             9.7340067461        3.7479823169       15.2041057950
N             8.1107590806        6.5578417904        4.6278367492
N             8.1115307018        6.5567600007        9.9229648983
N             8.1128525461        6.5559037582       15.2041057950
N             6.4727904967        9.3528250773        4.6232666949
N             6.4848051200        9.3631781042        9.9267682198
N             6.4844623590        9.3637710724       15.2068826141
N             4.8692174505       12.1774470451        4.6346996322
N             4.8580813205       12.1710175975        9.9209912785
N             4.8627416314       12.1737082292       15.2131604804
N            14.5399456280        0.9379004102        4.6279028566
N            14.5845610313        0.9302403005        9.9523605251
N            14.5779861528        0.9277261939       15.1758264663
N            12.9692800120        3.7512290523        4.6328618389
N            12.9740708113        3.7490789065        9.9259879935
N            12.9749445225        3.7487679272       15.2078198286
N            11.3577302739        6.5573871603        4.6274839405
N            11.3563233471        6.5565748707        9.9227265664
N            11.3549466835        6.5557800536       15.2038892839
N             9.7333009346        9.3561092270        4.6328618389
N             9.7338342533        9.3613332537        9.9259879935
N             9.7340017929        9.3622453995       15.2078198286
N             8.0822196693       12.1230098723        4.6279028566
N             8.0978935214       12.1654779998        9.9523605251
N             8.0924288019       12.1610410413       15.1758264663
N            -0.0638096842        1.9107495686        1.8679311557
N            -0.0557598587        1.9043740069        7.3794198510
N            -0.0050484149        1.8760493276       12.5554984389
N            -1.6280841945        4.6894736688        1.9812336657
N            -1.6308641951        4.6932516563        7.2840948165
N            -1.6335115108        4.6906936497       12.5671658332
N            -3.2463322287        7.4919364030        1.9800690943
N            -3.2472373334        7.4914138405        7.2763259057
N            -3.2462263098        7.4919975553       12.5665711113
N            -4.8642121325       10.2946116772        1.9812336657
N            -4.8623302996       10.2903151323        7.2840948165
N            -4.8658692561       10.2893014930       12.5671658332
N            -6.4885205380       13.0386751918        1.8679311557
N            -6.4900170237       13.0488343261        7.3794198510
N            -6.4891911936       13.1069140642       12.5554984389
N             3.3066557696        1.9091012776        1.8701574603
N             3.2988947504        1.9046204511        7.3810998537
N             3.2494518363        1.8760745713       12.5560063097
N             1.6229351886        4.6764044058        1.9845575873
N             1.6223632957        4.6840222682        7.2926839462
N             1.6225736900        4.6977772904       12.5661256120
N             0.0019404873        7.4933568275        1.9871033929
N            -0.0016531823        7.4952093109        7.2755517961
N             0.0000231851        7.4960830000       12.5665067242
N            -1.6209657469       10.3043128812        1.9871033929
N            -1.6211582840       10.3002744303        7.2755517961
N            -1.6195634634       10.3012893625       12.5665067242
N            -3.2500207547       13.1166116828        1.9845575873
N            -3.2437094388       13.1123074778        7.2926839462
N            -3.2316920429       13.1056121735       12.5661256120
N             6.4976155699        1.8758079013        1.9811743950
N             6.5018621521        1.8756400732        7.2841852892
N             6.5014539706        1.8795265140       12.5674518995
N             4.8733027601        4.6892002154        1.9811743950
N             4.8752807078        4.6929617775        7.2841852892
N             4.8784423735        4.6906650615       12.5674518995
N             3.2428036306        7.4934292734        1.9868533076
N             3.2465277849        7.4953685577        7.2751294756
N             3.2450625627        7.4962732495       12.5663001724
N             1.6225453586       10.3029841887        1.9817763904
N             1.6224974084       10.3029565046        7.2747052935
N             1.6225501824       10.3029869737       12.5628780452
N            -0.0004714354       13.1109464706        1.9868533076
N             0.0030701113       13.1132020407        7.2751294756
N             0.0031209863       13.1114807751       12.5663001724
N             9.7332772179        1.8755120220        1.9802283738
N             9.7328950469        1.8765843929        7.2765232165
N             9.7334984298        1.8754666145       12.5668305772
N             8.1148661841        4.6851228548        1.9828589463
N             8.1157432723        4.6856292419        7.2767284782
N             8.1152241093        4.6853295030       12.5638047504
N             6.4908773451        7.4915133403        1.9802283738
N             6.4916149600        7.4906461851        7.2765232165
N             6.4909486270        7.4917276192       12.5668305772
N             4.8656175011       10.3045013069        1.9868016578
N             4.8655188921       10.2998246059        7.2752642629
N             4.8642675613       10.3011041375       12.5664262736
N             3.2453952928       13.1108084913        1.9868016578
N             3.2412958464       13.1130614440        7.2752642629
N             3.2417782880       13.1113379939       12.5664262736
N            12.9695617263        1.8755278395        1.9815242929
N            12.9638594701        1.8755404046        7.2842492590
N            12.9659252367        1.8795490832       12.5676414866
N            11.3528500445        4.6851889924        1.9828845939
N            11.3518137016        4.6858364970        7.2767315572
N            11.3522593865        4.6854888596       12.5638519653
N             9.7339153912        7.4892660663        1.9828845939
N             9.7339579751        7.4880448147        7.2767315572
N             9.7338797547        7.4886046079       12.5638519653
N             8.1090332976       10.2942100297        1.9815242929
N             8.1061930513       10.2892654485        7.2842492590
N             8.1106975521       10.2890501155       12.5676414866
N             6.4956706205       13.1164843705        1.9849428270
N             6.4874740925       13.1117521029        7.2923479043
N             6.4763519752       13.1053307455       12.5661096101
Ga            1.6196251934        0.9350895705        4.5459369783



     Writing config-only to output data dir ./GaN.save/
     NEW-OLD atomic charge density approx. for the potential

     Check: negative core charge=   -0.000003


     -----------------------------------------------
     Non-local corr. energy    =      82.12851166 Ry
     -----------------------------------------------


     total cpu time spent up to now is   158881.1 secs

     Self-consistent Calculation

     iteration #  1     ecut=    70.00 Ry     beta= 0.70
     Davidson diagonalization with overlap

---- Real-time Memory Report at c_bands before calling an iterative solver
          3671 MiB given to the printing process from OS
             0 MiB allocation reported by mallinfo(arena+hblkhd)
       1603744 MiB available memory on the node where the printing process lives
------------------
     ethr =  1.00E-06,  avg # of iterations =  4.0


     -----------------------------------------------
     Non-local corr. energy    =      82.12809127 Ry
     -----------------------------------------------


     total cpu time spent up to now is   159744.4 secs

     total energy              =  -47098.23051099 Ry
     estimated scf accuracy    <       0.00783129 Ry

     iteration #  2     ecut=    70.00 Ry     beta= 0.70
     Davidson diagonalization with overlap

---- Real-time Memory Report at c_bands before calling an iterative solver
          3671 MiB given to the printing process from OS
             0 MiB allocation reported by mallinfo(arena+hblkhd)
       1613791 MiB available memory on the node where the printing process lives
------------------
     ethr =  2.89E-07,  avg # of iterations = 15.0


     -----------------------------------------------
     Non-local corr. energy    =      82.12804409 Ry
     -----------------------------------------------


     total cpu time spent up to now is   162007.2 secs

     total energy              =  -47098.23020689 Ry
     estimated scf accuracy    <       0.00772781 Ry

     iteration #  3     ecut=    70.00 Ry     beta= 0.70
     Davidson diagonalization with overlap

---- Real-time Memory Report at c_bands before calling an iterative solver
          3671 MiB given to the printing process from OS
             0 MiB allocation reported by mallinfo(arena+hblkhd)
       1593814 MiB available memory on the node where the printing process lives
------------------
     ethr =  2.85E-07,  avg # of iterations = 15.0


     -----------------------------------------------
     Non-local corr. energy    =      82.12820313 Ry
     -----------------------------------------------


     total cpu time spent up to now is   164270.3 secs

     total energy              =  -47098.23141475 Ry
     estimated scf accuracy    <       0.01632333 Ry

     iteration #  4     ecut=    70.00 Ry     beta= 0.70
     Davidson diagonalization with overlap

---- Real-time Memory Report at c_bands before calling an iterative solver
          3671 MiB given to the printing process from OS
             0 MiB allocation reported by mallinfo(arena+hblkhd)
       1593797 MiB available memory on the node where the printing process lives
------------------
     ethr =  2.85E-07,  avg # of iterations = 15.5


     -----------------------------------------------
     Non-local corr. energy    =      82.12823151 Ry
     -----------------------------------------------


     total cpu time spent up to now is   166245.2 secs

     total energy              =  -47098.23291911 Ry
     estimated scf accuracy    <       0.00078670 Ry

     iteration #  5     ecut=    70.00 Ry     beta= 0.70
     Davidson diagonalization with overlap

---- Real-time Memory Report at c_bands before calling an iterative solver
          3671 MiB given to the printing process from OS
             0 MiB allocation reported by mallinfo(arena+hblkhd)
       1593759 MiB available memory on the node where the printing process lives
------------------
     ethr =  2.91E-08,  avg # of iterations = 15.5


     -----------------------------------------------
     Non-local corr. energy    =      82.12824212 Ry
     -----------------------------------------------


     total cpu time spent up to now is   167772.6 secs

     total energy              =  -47098.23295821 Ry
     estimated scf accuracy    <       0.00059022 Ry

     iteration #  6     ecut=    70.00 Ry     beta= 0.70
     Davidson diagonalization with overlap

---- Real-time Memory Report at c_bands before calling an iterative solver
          3671 MiB given to the printing process from OS
             0 MiB allocation reported by mallinfo(arena+hblkhd)
       1593695 MiB available memory on the node where the printing process lives
------------------
     ethr =  2.18E-08,  avg # of iterations =  1.0


     -----------------------------------------------
     Non-local corr. energy    =      82.12828708 Ry
     -----------------------------------------------


     total cpu time spent up to now is   168037.8 secs

     total energy              =  -47098.23301805 Ry
     estimated scf accuracy    <       0.00049003 Ry

     iteration #  7     ecut=    70.00 Ry     beta= 0.70
     Davidson diagonalization with overlap

---- Real-time Memory Report at c_bands before calling an iterative solver
          3671 MiB given to the printing process from OS
             0 MiB allocation reported by mallinfo(arena+hblkhd)
       1593593 MiB available memory on the node where the printing process lives
------------------
     ethr =  1.81E-08,  avg # of iterations =  3.0


     -----------------------------------------------
     Non-local corr. energy    =      82.12838787 Ry
     -----------------------------------------------


     total cpu time spent up to now is   168444.1 secs

     total energy              =  -47098.23308679 Ry
     estimated scf accuracy    <       0.00028443 Ry

     iteration #  8     ecut=    70.00 Ry     beta= 0.70
     Davidson diagonalization with overlap

---- Real-time Memory Report at c_bands before calling an iterative solver
          3671 MiB given to the printing process from OS
             0 MiB allocation reported by mallinfo(arena+hblkhd)
       1593462 MiB available memory on the node where the printing process lives
------------------
     ethr =  1.05E-08,  avg # of iterations =  8.0


     -----------------------------------------------
     Non-local corr. energy    =      82.12842141 Ry
     -----------------------------------------------


     total cpu time spent up to now is   169233.3 secs

     total energy              =  -47098.23310452 Ry
     estimated scf accuracy    <       0.00005475 Ry

     iteration #  9     ecut=    70.00 Ry     beta= 0.70
     Davidson diagonalization with overlap

---- Real-time Memory Report at c_bands before calling an iterative solver
          3671 MiB given to the printing process from OS
             0 MiB allocation reported by mallinfo(arena+hblkhd)
       1593349 MiB available memory on the node where the printing process lives
------------------
     ethr =  2.02E-09,  avg # of iterations = 16.7


     -----------------------------------------------
     Non-local corr. energy    =      82.12843059 Ry
     -----------------------------------------------


     total cpu time spent up to now is   171247.9 secs

     total energy              =  -47098.23310788 Ry
     estimated scf accuracy    <       0.00001372 Ry

     iteration # 10     ecut=    70.00 Ry     beta= 0.70
     Davidson diagonalization with overlap

---- Real-time Memory Report at c_bands before calling an iterative solver
          3671 MiB given to the printing process from OS
             0 MiB allocation reported by mallinfo(arena+hblkhd)
       1593199 MiB available memory on the node where the printing process lives
------------------
