
     Program PWSCF v.7.1 starts on  1Mar2024 at 14:17:21 

     This program is part of the open-source Quantum ESPRESSO suite
     for quantum simulation of materials; please cite
         "P. Giannozzi et al., J. Phys.:Condens. Matter 21 395502 (2009);
         "P. Giannozzi et al., J. Phys.:Condens. Matter 29 465901 (2017);
         "P. Giannozzi et al., J. Chem. Phys. 152 154105 (2020);
          URL http://www.quantum-espresso.org", 
     in publications or presentations arising from this work. More details at
     http://www.quantum-espresso.org/quote

     Parallel version (MPI & OpenMP), running on     128 processor cores
     Number of MPI processes:               128
     Threads/MPI process:                     1

     MPI processes distributed on     1 nodes
     993557 MiB available memory on the printing compute node when the environment starts
 
     Reading input from espresso.pwi
Warning: card &CELL ignored
Warning: card    CELL_DYNAMICS    = 'BFGS' ignored
Warning: card / ignored

     Current dimensions of program PWSCF are:
     Max number of different atomic species (ntypx) = 10
     Max number of k-points (npk) =  40000
     Max angular momentum in pseudopotentials (lmaxx) =  4
     file Pb.pbe-dn-kjpaw_psl.1.0.0.UPF: wavefunction(s)  6S 6P 5D renormalized
     file I.pbe-dn-kjpaw_psl.1.0.0.UPF: wavefunction(s)  5S 5P renormalized

     **************************************************************************
     Initializing libbeef V0.1.2 with the BEEF-vdW functional.
     Citation: Wellendorff et al., PRB 85, 235149 (2012).
     **************************************************************************


     IMPORTANT: XC functional enforced from input :
     Exchange-correlation= BEEF-VDW
                           (   1   4  43  14   2   0   0)
     Any further DFT definition will be discarded
     Please, verify this is what you really want

 
     R & G space division:  proc/nbgrp/npool/nimage =     128
     Subspace diagonalization in iterative solution of the eigenvalue problem:
     a serial algorithm will be used

 
     Parallelization info
     --------------------
     sticks:   dense  smooth     PW     G-vecs:    dense   smooth      PW
     Min         238     190     47                26444    18918    2361
     Max         239     191     48                26451    18927    2368
     Sum       30577   24439   6121              3385235  2422379  302703
 
     Using Slab Decomposition
 


     bravais-lattice index     =            4
     lattice parameter (alat)  =      35.6073  a.u.
     unit-cell volume          =   30614.2220 (a.u.)^3
     number of atoms/cell      =           96
     number of atomic types    =            2
     number of electrons       =      1531.00
     number of Kohn-Sham states=          919
     kinetic-energy cutoff     =      70.0000  Ry
     charge density cutoff     =     350.0000  Ry
     scf convergence threshold =      1.0E-07
     mixing beta               =       0.7000
     number of iterations used =            8  plain     mixing
     energy convergence thresh.=      1.0E-04
     force convergence thresh. =      1.0E-03
     Exchange-correlation= BEEF-VDW
                           (   1   4  43  14   2   0   0)
     nstep                     =           50


     celldm(1)=  35.607290  celldm(2)=   0.000000  celldm(3)=   0.783025
     celldm(4)=   0.000000  celldm(5)=   0.000000  celldm(6)=   0.000000

     crystal axes: (cart. coord. in units of alat)
               a(1) = (   1.000000   0.000000   0.000000 )  
               a(2) = (  -0.500000   0.866025   0.000000 )  
               a(3) = (   0.000000   0.000000   0.783025 )  

     reciprocal axes: (cart. coord. in units 2 pi/alat)
               b(1) = (  1.000000  0.577350 -0.000000 )  
               b(2) = (  0.000000  1.154701  0.000000 )  
               b(3) = (  0.000000 -0.000000  1.277098 )  


     PseudoPot. # 1 for Pb read from file:
     /trace/group/acmegroup/atimmins/packages/espresso/pseudo/psl_1.0.0/pslibrary.1.0.0/pbe/PSEUDOPOTENTIALS/Pb.pbe-dn-kjpaw_psl.1.0.0.UPF
     MD5 check sum: 39ab5b8a6bbd56b7735ad9f188aac93a
     Pseudo is Projector augmented-wave + core cor, Zval = 14.0
     Generated using 'atomic' code by A. Dal Corso  v.7.1
     Shape of augmentation charge: PSQ
     Using radial grid of 1281 points,  6 beta functions with: 
                l(1) =   0
                l(2) =   0
                l(3) =   1
                l(4) =   1
                l(5) =   2
                l(6) =   2
     Q(r) pseudized with 0 coefficients 


     PseudoPot. # 2 for I  read from file:
     /trace/group/acmegroup/atimmins/packages/espresso/pseudo/psl_1.0.0/pslibrary.1.0.0/pbe/PSEUDOPOTENTIALS/I.pbe-dn-kjpaw_psl.1.0.0.UPF
     MD5 check sum: bfa8781bc1224d19af3f3980e3fab11e
     Pseudo is Projector augmented-wave + core cor, Zval = 17.0
     Generated using 'atomic' code by A. Dal Corso  v.7.1
     Shape of augmentation charge: PSQ
     Using radial grid of 1247 points,  6 beta functions with: 
                l(1) =   0
                l(2) =   0
                l(3) =   1
                l(4) =   1
                l(5) =   2
                l(6) =   2
     Q(r) pseudized with 0 coefficients 


     atomic species   valence    mass     pseudopotential
        Pb            14.00   207.20000     Pb( 1.00)
        I             17.00   126.90447     I ( 1.00)

     No symmetry found


                                    s                        frac. trans.

      isym =  1     identity                                     

 cryst.   s( 1) = (     1          0          0      )
                  (     0          1          0      )
                  (     0          0          1      )

 cart.    s( 1) = (  1.0000000  0.0000000  0.0000000 )
                  (  0.0000000  1.0000000  0.0000000 )
                  (  0.0000000  0.0000000  1.0000000 )


     point group C_1 (1)    
     there are  1 classes
     the character table:

       E    
A      1.00

     the symmetry operations in each class and the name of the first element:

     E        1
          identity                                               

   Cartesian axes

     site n.     atom                  positions (alat units)
         1           Pb  tau(   1) = (   0.1250086   0.2164870   0.7830203  )
         2           Pb  tau(   2) = (   0.1250034   0.2164916   0.3915076  )
         3           Pb  tau(   3) = (   0.0000077   0.4329922   0.7830161  )
         4           Pb  tau(   4) = (   0.0000025   0.4329968   0.3915034  )
         5           Pb  tau(   5) = (  -0.1249932   0.6494975   0.7830119  )
         6           Pb  tau(   6) = (  -0.1249984   0.6495021   0.3914992  )
         7           Pb  tau(   7) = (  -0.2499941   0.8660028   0.7830077  )
         8           Pb  tau(   8) = (  -0.2499993   0.8660074   0.3914950  )
         9           Pb  tau(   9) = (   0.3750086   0.2164859   0.7830237  )
        10           Pb  tau(  10) = (   0.3750034   0.2164905   0.3915110  )
        11           Pb  tau(  11) = (   0.2500077   0.4329912   0.7830194  )
        12           Pb  tau(  12) = (   0.2500025   0.4329958   0.3915068  )
        13           Pb  tau(  13) = (   0.1250068   0.6494965   0.7830152  )
        14           Pb  tau(  14) = (   0.1250016   0.6495011   0.3915026  )
        15           Pb  tau(  15) = (   0.0000059   0.8660017   0.7830110  )
        16           Pb  tau(  16) = (   0.0000007   0.8660063   0.3914983  )
        17           Pb  tau(  17) = (   0.6250086   0.2164849   0.7830270  )
        18           Pb  tau(  18) = (   0.6250034   0.2164895   0.3915143  )
        19           Pb  tau(  19) = (   0.5000077   0.4329901   0.7830228  )
        20           Pb  tau(  20) = (   0.5000025   0.4329947   0.3915101  )
        21           Pb  tau(  21) = (   0.3750068   0.6494954   0.7830186  )
        22           Pb  tau(  22) = (   0.3750016   0.6495000   0.3915059  )
        23           Pb  tau(  23) = (   0.2500059   0.8660007   0.7830144  )
        24           Pb  tau(  24) = (   0.2500007   0.8660053   0.3915017  )
        25           Pb  tau(  25) = (   0.8750086   0.2164838   0.7830303  )
        26           Pb  tau(  26) = (   0.8750034   0.2164884   0.3915177  )
        27           Pb  tau(  27) = (   0.7500077   0.4329891   0.7830261  )
        28           Pb  tau(  28) = (   0.7500025   0.4329937   0.3915135  )
        29           Pb  tau(  29) = (   0.6250068   0.6494944   0.7830219  )
        30           Pb  tau(  30) = (   0.6250016   0.6494990   0.3915092  )
        31           Pb  tau(  31) = (   0.5000059   0.8659996   0.7830177  )
        32           Pb  tau(  32) = (   0.5000007   0.8660042   0.3915050  )
        33           I   tau(  33) = (   0.1250108   0.0721500   0.6824290  )
        34           I   tau(  34) = (   0.0000047   0.2886599   0.2909121  )
        35           I   tau(  35) = (   0.0000099   0.2886553   0.6824248  )
        36           I   tau(  36) = (  -0.1249962   0.5051652   0.2909079  )
        37           I   tau(  37) = (  -0.1249910   0.5051606   0.6824206  )
        38           I   tau(  38) = (  -0.2499972   0.7216704   0.2909037  )
        39           I   tau(  39) = (  -0.2499919   0.7216658   0.6824164  )
        40           I   tau(  40) = (   0.3750056   0.0721536   0.2909197  )
        41           I   tau(  41) = (   0.3750108   0.0721490   0.6824324  )
        42           I   tau(  42) = (   0.2500047   0.2886589   0.2909155  )
        43           I   tau(  43) = (   0.2500099   0.2886543   0.6824282  )
        44           I   tau(  44) = (   0.1250038   0.5051641   0.2909113  )
        45           I   tau(  45) = (   0.1250090   0.5051595   0.6824240  )
        46           I   tau(  46) = (   0.0000028   0.7216694   0.2909071  )
        47           I   tau(  47) = (   0.0000081   0.7216648   0.6824197  )
        48           I   tau(  48) = (   0.6250056   0.0721525   0.2909230  )
        49           I   tau(  49) = (   0.6250108   0.0721479   0.6824357  )
        50           I   tau(  50) = (   0.5000047   0.2886578   0.2909188  )
        51           I   tau(  51) = (   0.5000099   0.2886532   0.6824315  )
        52           I   tau(  52) = (   0.3750038   0.5051631   0.2909146  )
        53           I   tau(  53) = (   0.3750090   0.5051585   0.6824273  )
        54           I   tau(  54) = (   0.2500028   0.7216683   0.2909104  )
        55           I   tau(  55) = (   0.2500081   0.7216637   0.6824231  )
        56           I   tau(  56) = (   0.8750056   0.0721515   0.2909264  )
        57           I   tau(  57) = (   0.8750108   0.0721469   0.6824391  )
        58           I   tau(  58) = (   0.7500047   0.2886567   0.2909222  )
        59           I   tau(  59) = (   0.7500099   0.2886521   0.6824348  )
        60           I   tau(  60) = (   0.6250038   0.5051620   0.2909180  )
        61           I   tau(  61) = (   0.6250090   0.5051574   0.6824306  )
        62           I   tau(  62) = (   0.5000028   0.7216673   0.2909137  )
        63           I   tau(  63) = (   0.5000081   0.7216627   0.6824264  )
        64           I   tau(  64) = (  -0.0000018   0.1443297   0.1005933  )
        65           I   tau(  65) = (   0.0000034   0.1443251   0.4921060  )
        66           I   tau(  66) = (  -0.1250027   0.3608350   0.1005891  )
        67           I   tau(  67) = (  -0.1249975   0.3608304   0.4921018  )
        68           I   tau(  68) = (  -0.2500036   0.5773403   0.1005849  )
        69           I   tau(  69) = (  -0.2499984   0.5773357   0.4920975  )
        70           I   tau(  70) = (  -0.3750045   0.7938455   0.1005807  )
        71           I   tau(  71) = (  -0.3749993   0.7938409   0.4920933  )
        72           I   tau(  72) = (   0.2499982   0.1443287   0.1005966  )
        73           I   tau(  73) = (   0.2500034   0.1443241   0.4921093  )
        74           I   tau(  74) = (   0.1249973   0.3608340   0.1005924  )
        75           I   tau(  75) = (   0.1250025   0.3608294   0.4921051  )
        76           I   tau(  76) = (  -0.0000036   0.5773392   0.1005882  )
        77           I   tau(  77) = (   0.0000016   0.5773346   0.4921009  )
        78           I   tau(  78) = (  -0.1250045   0.7938445   0.1005840  )
        79           I   tau(  79) = (  -0.1249993   0.7938399   0.4920967  )
        80           I   tau(  80) = (   0.4999982   0.1443276   0.1006000  )
        81           I   tau(  81) = (   0.5000034   0.1443230   0.4921126  )
        82           I   tau(  82) = (   0.3749973   0.3608329   0.1005958  )
        83           I   tau(  83) = (   0.3750025   0.3608283   0.4921084  )
        84           I   tau(  84) = (   0.2499964   0.5773382   0.1005915  )
        85           I   tau(  85) = (   0.2500016   0.5773336   0.4921042  )
        86           I   tau(  86) = (   0.1249955   0.7938434   0.1005873  )
        87           I   tau(  87) = (   0.1250007   0.7938388   0.4921000  )
        88           I   tau(  88) = (   0.7499982   0.1443266   0.1006033  )
        89           I   tau(  89) = (   0.7500034   0.1443220   0.4921160  )
        90           I   tau(  90) = (   0.6249973   0.3608319   0.1005991  )
        91           I   tau(  91) = (   0.6250025   0.3608273   0.4921118  )
        92           I   tau(  92) = (   0.4999964   0.5773371   0.1005949  )
        93           I   tau(  93) = (   0.5000016   0.5773325   0.4921076  )
        94           I   tau(  94) = (   0.3749955   0.7938424   0.1005907  )
        95           I   tau(  95) = (   0.3750007   0.7938378   0.4921034  )
        96           Pb  tau(  96) = (   0.1250056   0.0721546   0.2909163  )

   Crystallographic axes

     site n.     atom                  positions (cryst. coord.)
         1           Pb  tau(   1) = (  0.2499975  0.2499776  0.9999935  )
         2           Pb  tau(   2) = (  0.2499949  0.2499829  0.4999935  )
         3           Pb  tau(   3) = (  0.2499959  0.4999764  0.9999882  )
         4           Pb  tau(   4) = (  0.2499933  0.4999817  0.4999882  )
         5           Pb  tau(   5) = (  0.2499944  0.7499751  0.9999828  )
         6           Pb  tau(   6) = (  0.2499918  0.7499804  0.4999828  )
         7           Pb  tau(   7) = (  0.2499928  0.9999739  0.9999774  )
         8           Pb  tau(   8) = (  0.2499903  0.9999792  0.4999774  )
         9           Pb  tau(   9) = (  0.4999968  0.2499764  0.9999978  )
        10           Pb  tau(  10) = (  0.4999943  0.2499817  0.4999978  )
        11           Pb  tau(  11) = (  0.4999953  0.4999752  0.9999924  )
        12           Pb  tau(  12) = (  0.4999927  0.4999805  0.4999924  )
        13           Pb  tau(  13) = (  0.4999938  0.7499739  0.9999871  )
        14           Pb  tau(  14) = (  0.4999912  0.7499792  0.4999871  )
        15           Pb  tau(  15) = (  0.4999922  0.9999727  0.9999817  )
        16           Pb  tau(  16) = (  0.4999896  0.9999780  0.4999817  )
        17           Pb  tau(  17) = (  0.7499962  0.2499752  1.0000021  )
        18           Pb  tau(  18) = (  0.7499936  0.2499805  0.5000021  )
        19           Pb  tau(  19) = (  0.7499947  0.4999739  0.9999967  )
        20           Pb  tau(  20) = (  0.7499921  0.4999793  0.4999967  )
        21           Pb  tau(  21) = (  0.7499932  0.7499727  0.9999913  )
        22           Pb  tau(  22) = (  0.7499906  0.7499780  0.4999913  )
        23           Pb  tau(  23) = (  0.7499916  0.9999714  0.9999860  )
        24           Pb  tau(  24) = (  0.7499890  0.9999767  0.4999860  )
        25           Pb  tau(  25) = (  0.9999956  0.2499740  1.0000064  )
        26           Pb  tau(  26) = (  0.9999930  0.2499793  0.5000064  )
        27           Pb  tau(  27) = (  0.9999941  0.4999727  1.0000010  )
        28           Pb  tau(  28) = (  0.9999915  0.4999780  0.5000010  )
        29           Pb  tau(  29) = (  0.9999926  0.7499715  0.9999956  )
        30           Pb  tau(  30) = (  0.9999900  0.7499768  0.4999956  )
        31           Pb  tau(  31) = (  0.9999910  0.9999702  0.9999902  )
        32           Pb  tau(  32) = (  0.9999884  0.9999755  0.4999902  )
        33           I   tau(  33) = (  0.1666667  0.0833117  0.8715286  )
        34           I   tau(  34) = (  0.1666625  0.3333157  0.3715233  )
        35           I   tau(  35) = (  0.1666651  0.3333104  0.8715233  )
        36           I   tau(  36) = (  0.1666610  0.5833145  0.3715179  )
        37           I   tau(  37) = (  0.1666636  0.5833092  0.8715179  )
        38           I   tau(  38) = (  0.1666595  0.8333132  0.3715125  )
        39           I   tau(  39) = (  0.1666621  0.8333079  0.8715125  )
        40           I   tau(  40) = (  0.4166635  0.0833158  0.3715329  )
        41           I   tau(  41) = (  0.4166661  0.0833105  0.8715329  )
        42           I   tau(  42) = (  0.4166619  0.3333145  0.3715275  )
        43           I   tau(  43) = (  0.4166645  0.3333092  0.8715275  )
        44           I   tau(  44) = (  0.4166604  0.5833133  0.3715222  )
        45           I   tau(  45) = (  0.4166630  0.5833080  0.8715221  )
        46           I   tau(  46) = (  0.4166589  0.8333120  0.3715168  )
        47           I   tau(  47) = (  0.4166614  0.8333067  0.8715168  )
        48           I   tau(  48) = (  0.6666629  0.0833146  0.3715372  )
        49           I   tau(  49) = (  0.6666655  0.0833093  0.8715372  )
        50           I   tau(  50) = (  0.6666613  0.3333133  0.3715318  )
        51           I   tau(  51) = (  0.6666639  0.3333080  0.8715318  )
        52           I   tau(  52) = (  0.6666598  0.5833121  0.3715264  )
        53           I   tau(  53) = (  0.6666624  0.5833068  0.8715264  )
        54           I   tau(  54) = (  0.6666582  0.8333108  0.3715210  )
        55           I   tau(  55) = (  0.6666608  0.8333055  0.8715210  )
        56           I   tau(  56) = (  0.9166623  0.0833134  0.3715414  )
        57           I   tau(  57) = (  0.9166648  0.0833080  0.8715414  )
        58           I   tau(  58) = (  0.9166607  0.3333121  0.3715361  )
        59           I   tau(  59) = (  0.9166633  0.3333068  0.8715361  )
        60           I   tau(  60) = (  0.9166592  0.5833108  0.3715307  )
        61           I   tau(  61) = (  0.9166618  0.5833055  0.8715307  )
        62           I   tau(  62) = (  0.9166576  0.8333096  0.3715253  )
        63           I   tau(  63) = (  0.9166602  0.8333043  0.8715253  )
        64           I   tau(  64) = (  0.0833270  0.1666576  0.1284675  )
        65           I   tau(  65) = (  0.0833296  0.1666523  0.6284675  )
        66           I   tau(  66) = (  0.0833255  0.4166564  0.1284621  )
        67           I   tau(  67) = (  0.0833281  0.4166511  0.6284621  )
        68           I   tau(  68) = (  0.0833239  0.6666551  0.1284567  )
        69           I   tau(  69) = (  0.0833265  0.6666498  0.6284567  )
        70           I   tau(  70) = (  0.0833224  0.9166539  0.1284513  )
        71           I   tau(  71) = (  0.0833250  0.9166486  0.6284513  )
        72           I   tau(  72) = (  0.3333264  0.1666564  0.1284717  )
        73           I   tau(  73) = (  0.3333290  0.1666511  0.6284717  )
        74           I   tau(  74) = (  0.3333249  0.4166552  0.1284664  )
        75           I   tau(  75) = (  0.3333275  0.4166499  0.6284663  )
        76           I   tau(  76) = (  0.3333233  0.6666539  0.1284610  )
        77           I   tau(  77) = (  0.3333259  0.6666486  0.6284610  )
        78           I   tau(  78) = (  0.3333218  0.9166527  0.1284556  )
        79           I   tau(  79) = (  0.3333244  0.9166473  0.6284556  )
        80           I   tau(  80) = (  0.5833258  0.1666552  0.1284760  )
        81           I   tau(  81) = (  0.5833284  0.1666499  0.6284760  )
        82           I   tau(  82) = (  0.5833243  0.4166539  0.1284706  )
        83           I   tau(  83) = (  0.5833269  0.4166486  0.6284706  )
        84           I   tau(  84) = (  0.5833227  0.6666527  0.1284652  )
        85           I   tau(  85) = (  0.5833253  0.6666474  0.6284652  )
        86           I   tau(  86) = (  0.5833212  0.9166514  0.1284599  )
        87           I   tau(  87) = (  0.5833238  0.9166461  0.6284599  )
        88           I   tau(  88) = (  0.8333252  0.1666540  0.1284803  )
        89           I   tau(  89) = (  0.8333278  0.1666487  0.6284803  )
        90           I   tau(  90) = (  0.8333237  0.4166527  0.1284749  )
        91           I   tau(  91) = (  0.8333262  0.4166474  0.6284749  )
        92           I   tau(  92) = (  0.8333221  0.6666515  0.1284695  )
        93           I   tau(  93) = (  0.8333247  0.6666462  0.6284695  )
        94           I   tau(  94) = (  0.8333206  0.9166502  0.1284641  )
        95           I   tau(  95) = (  0.8333232  0.9166449  0.6284641  )
        96           Pb  tau(  96) = (  0.1666641  0.0833170  0.3715286  )

     number of k points=     1  Gaussian smearing, width (Ry)=  0.0100
                       cart. coord. in units 2pi/alat
        k(    1) = (   0.0000000   0.0000000   0.0000000), wk =   2.0000000

                       cryst. coord.
        k(    1) = (   0.0000000   0.0000000   0.0000000), wk =   2.0000000

     Dense  grid:  3385235 G-vectors     FFT dimensions: ( 216, 216, 180)

     Smooth grid:  2422379 G-vectors     FFT dimensions: ( 192, 192, 150)

     Dynamical RAM for                 wfc:      33.16 MB

     Dynamical RAM for     wfc (w. buffer):      33.16 MB

     Dynamical RAM for           str. fact:       0.81 MB

     Dynamical RAM for           local pot:       0.00 MB

     Dynamical RAM for          nlocal pot:      62.36 MB

     Dynamical RAM for                qrad:       3.00 MB

     Dynamical RAM for          rho,v,vnew:       3.35 MB

     Dynamical RAM for               rhoin:       1.12 MB

     Dynamical RAM for            rho*nmix:       6.46 MB

     Dynamical RAM for           G-vectors:       1.66 MB

     Dynamical RAM for          h,s,v(r/c):     618.57 MB

     Dynamical RAM for          <psi|beta>:      24.23 MB

     Dynamical RAM for                 psi:     132.66 MB

     Dynamical RAM for                hpsi:     132.66 MB

     Dynamical RAM for                spsi:     132.66 MB

     Dynamical RAM for      wfcinit/wfcrot:      85.67 MB

     Dynamical RAM for           addusdens:     100.50 MB

     Dynamical RAM for          addusforce:     150.99 MB

     Dynamical RAM for         addusstress:      81.13 MB

     Estimated static dynamical RAM per process >     110.22 MB

     Estimated max dynamical RAM per process >       1.13 GB

     Estimated total dynamical RAM >     144.68 GB

     Atomic positions and unit cell read from directory:
     ./PbI2.save/
     Atomic positions from file used, from input discarded
 

     Check: negative core charge=   -0.000001

     The initial density is read from file :
     ./PbI2.save/charge-density


     starting charge    1532.0000, renormalised to    1531.0000


     %%%%%%%%%%%%%%%%%%%%%%%%%%%%%%%%%%%%%%%%%%%%%%%%%%%%%%%%%%%%%%%%%%%%%%%%
     %                                                                      %
     % You are using vdW-DF, which was implemented by the Thonhauser group. %
     % Please cite the following two papers that made this development      %
     % possible and the two reviews that describe the various versions:     %
     %                                                                      %
     %   T. Thonhauser et al., PRL 115, 136402 (2015).                      %
     %   T. Thonhauser et al., PRB 76, 125112 (2007).                       %
     %   K. Berland et al., Rep. Prog. Phys. 78, 066501 (2015).             %
     %   D.C. Langreth et al., J. Phys.: Condens. Matter 21, 084203 (2009). %
     %                                                                      %
     % If you are calculating stress with vdW-DF, please also cite:         %
     %                                                                      %
     %   R. Sabatini et al., J. Phys.: Condens. Matter 24, 424209 (2012).   %
     %                                                                      %
     %%%%%%%%%%%%%%%%%%%%%%%%%%%%%%%%%%%%%%%%%%%%%%%%%%%%%%%%%%%%%%%%%%%%%%%%

     %%%%%%%%%%%%%%%%%%%%%%%%%%%%%%%%%%%%%%%%%%%%%%%%%%%%%%%%%%%%%%%%%%%%%%%%
     %                                                                      %
     %  vdW-DF NEWS:                                                        %
     %                                                                      %
     %  * vdW-DF3 is now available. DOI: 10.1021/acs.jctc.0c00471           %
     %    use with input_dft = 'vdW-DF3-opt1' or 'vdW-DF3-opt2'             %
     %                                                                      %
     %  * Unscreened and range-separated vdW-DF hybrid functionals          %
     %    DOI: 10.1063/1.4986522 and 10.1088/1361-648X/ac2ad2               %
     %    use with input_dft = 'vdW-DF-cx0' (etc) and 'vdW-DF-ahcx'         %
     %                                                                      %
     %%%%%%%%%%%%%%%%%%%%%%%%%%%%%%%%%%%%%%%%%%%%%%%%%%%%%%%%%%%%%%%%%%%%%%%%


     Carrying out vdW-DF run using the following parameters:
     Nqs    =  20  Npoints =  1024  r_max =  100.000
     q_mesh =  0.00001000  0.04494208  0.09755937  0.15916263
               0.23128650  0.31572767  0.41458969  0.53033537
               0.66584808  0.82450364  1.01025438  1.22772762
               1.48234092  1.78043706  2.12944203  2.53805004
               3.01644009  3.57652955  4.23227104  5.00000000


     -----------------------------------------------
     Non-local corr. energy    =      45.69759866 Ry
     -----------------------------------------------

     Wavefunctions not found or not readable, recomputing them from scratch
     Starting wfcs are  864 randomized atomic wfcs +   55 random wfcs
     Checking if some PAW data can be deallocated... 
       PAW data deallocated on   63 nodes for type:  1
       PAW data deallocated on   65 nodes for type:  2

     total cpu time spent up to now is       17.7 secs

     Self-consistent Calculation

     iteration #  1     ecut=    70.00 Ry     beta= 0.70
     Davidson diagonalization with overlap

---- Real-time Memory Report at c_bands before calling an iterative solver
           543 MiB given to the printing process from OS
             0 MiB allocation reported by mallinfo(arena+hblkhd)
        971288 MiB available memory on the node where the printing process lives
------------------
     c_bands:  3 eigenvalues not converged
     ethr =  1.00E-05,  avg # of iterations = 20.0


     -----------------------------------------------
     Non-local corr. energy    =      45.75912453 Ry
     -----------------------------------------------


     total cpu time spent up to now is      368.1 secs

     total energy              =  -65089.43310857 Ry
     estimated scf accuracy    <       0.08077307 Ry

     iteration #  2     ecut=    70.00 Ry     beta= 0.70
     Davidson diagonalization with overlap

---- Real-time Memory Report at c_bands before calling an iterative solver
          1290 MiB given to the printing process from OS
             0 MiB allocation reported by mallinfo(arena+hblkhd)
        959368 MiB available memory on the node where the printing process lives
------------------
     ethr =  5.28E-06,  avg # of iterations = 12.0


     -----------------------------------------------
     Non-local corr. energy    =      45.74903831 Ry
     -----------------------------------------------


     total cpu time spent up to now is      558.5 secs

     total energy              =  -65089.37790233 Ry
     estimated scf accuracy    <       0.54310398 Ry

     iteration #  3     ecut=    70.00 Ry     beta= 0.70
     Davidson diagonalization with overlap

---- Real-time Memory Report at c_bands before calling an iterative solver
          1290 MiB given to the printing process from OS
             0 MiB allocation reported by mallinfo(arena+hblkhd)
        959266 MiB available memory on the node where the printing process lives
------------------
     ethr =  5.28E-06,  avg # of iterations = 14.0


     -----------------------------------------------
     Non-local corr. energy    =      45.73724850 Ry
     -----------------------------------------------


     total cpu time spent up to now is      765.5 secs

     total energy              =  -65089.47370180 Ry
     estimated scf accuracy    <       0.02005351 Ry

     iteration #  4     ecut=    70.00 Ry     beta= 0.70
     Davidson diagonalization with overlap

---- Real-time Memory Report at c_bands before calling an iterative solver
          1290 MiB given to the printing process from OS
             0 MiB allocation reported by mallinfo(arena+hblkhd)
        959144 MiB available memory on the node where the printing process lives
------------------
     ethr =  1.31E-06,  avg # of iterations = 17.0


     -----------------------------------------------
     Non-local corr. energy    =      45.73301377 Ry
     -----------------------------------------------


     total cpu time spent up to now is      965.2 secs

     total energy              =  -65089.47587725 Ry
     estimated scf accuracy    <       0.00923870 Ry

     iteration #  5     ecut=    70.00 Ry     beta= 0.70
     Davidson diagonalization with overlap

---- Real-time Memory Report at c_bands before calling an iterative solver
          1290 MiB given to the printing process from OS
             0 MiB allocation reported by mallinfo(arena+hblkhd)
        959006 MiB available memory on the node where the printing process lives
------------------
     ethr =  6.03E-07,  avg # of iterations = 14.0


     -----------------------------------------------
     Non-local corr. energy    =      45.72964763 Ry
     -----------------------------------------------


     total cpu time spent up to now is     1121.7 secs

     total energy              =  -65089.47723120 Ry
     estimated scf accuracy    <       0.00158430 Ry

     iteration #  6     ecut=    70.00 Ry     beta= 0.70
     Davidson diagonalization with overlap

---- Real-time Memory Report at c_bands before calling an iterative solver
          1290 MiB given to the printing process from OS
             0 MiB allocation reported by mallinfo(arena+hblkhd)
        958884 MiB available memory on the node where the printing process lives
------------------
     ethr =  1.03E-07,  avg # of iterations = 12.0


     -----------------------------------------------
     Non-local corr. energy    =      45.72404530 Ry
     -----------------------------------------------


     total cpu time spent up to now is     1277.6 secs

     total energy              =  -65089.47749515 Ry
     estimated scf accuracy    <       0.00050253 Ry

     iteration #  7     ecut=    70.00 Ry     beta= 0.70
     Davidson diagonalization with overlap

---- Real-time Memory Report at c_bands before calling an iterative solver
          1290 MiB given to the printing process from OS
             0 MiB allocation reported by mallinfo(arena+hblkhd)
        958726 MiB available memory on the node where the printing process lives
------------------
     ethr =  3.28E-08,  avg # of iterations = 11.0


     -----------------------------------------------
     Non-local corr. energy    =      45.71901750 Ry
     -----------------------------------------------


     total cpu time spent up to now is     1463.4 secs

     total energy              =  -65089.47759669 Ry
     estimated scf accuracy    <       0.00013882 Ry

     iteration #  8     ecut=    70.00 Ry     beta= 0.70
     Davidson diagonalization with overlap

---- Real-time Memory Report at c_bands before calling an iterative solver
          1290 MiB given to the printing process from OS
             0 MiB allocation reported by mallinfo(arena+hblkhd)
        958611 MiB available memory on the node where the printing process lives
------------------
     ethr =  9.07E-09,  avg # of iterations = 13.0


     -----------------------------------------------
     Non-local corr. energy    =      45.71855225 Ry
     -----------------------------------------------


     total cpu time spent up to now is     1633.4 secs

     total energy              =  -65089.47761703 Ry
     estimated scf accuracy    <       0.00005133 Ry

     iteration #  9     ecut=    70.00 Ry     beta= 0.70
     Davidson diagonalization with overlap

---- Real-time Memory Report at c_bands before calling an iterative solver
          1290 MiB given to the printing process from OS
             0 MiB allocation reported by mallinfo(arena+hblkhd)
        958492 MiB available memory on the node where the printing process lives
------------------
     ethr =  3.35E-09,  avg # of iterations = 12.0


     -----------------------------------------------
     Non-local corr. energy    =      45.71905411 Ry
     -----------------------------------------------


     total cpu time spent up to now is     1785.2 secs

     total energy              =  -65089.47762898 Ry
     estimated scf accuracy    <       0.00000967 Ry

     iteration # 10     ecut=    70.00 Ry     beta= 0.70
     Davidson diagonalization with overlap

---- Real-time Memory Report at c_bands before calling an iterative solver
          1290 MiB given to the printing process from OS
             0 MiB allocation reported by mallinfo(arena+hblkhd)
        958394 MiB available memory on the node where the printing process lives
------------------
     ethr =  6.32E-10,  avg # of iterations = 14.0


     -----------------------------------------------
     Non-local corr. energy    =      45.71937336 Ry
     -----------------------------------------------


     total cpu time spent up to now is     2003.1 secs

     total energy              =  -65089.47763171 Ry
     estimated scf accuracy    <       0.00000170 Ry

     iteration # 11     ecut=    70.00 Ry     beta= 0.70
     Davidson diagonalization with overlap

---- Real-time Memory Report at c_bands before calling an iterative solver
          1290 MiB given to the printing process from OS
             0 MiB allocation reported by mallinfo(arena+hblkhd)
        958387 MiB available memory on the node where the printing process lives
------------------
     ethr =  1.11E-10,  avg # of iterations = 14.0


     -----------------------------------------------
     Non-local corr. energy    =      45.71967346 Ry
     -----------------------------------------------


     total cpu time spent up to now is     2191.3 secs

     total energy              =  -65089.47763220 Ry
     estimated scf accuracy    <       0.00000034 Ry

     iteration # 12     ecut=    70.00 Ry     beta= 0.70
     Davidson diagonalization with overlap

---- Real-time Memory Report at c_bands before calling an iterative solver
          1290 MiB given to the printing process from OS
             0 MiB allocation reported by mallinfo(arena+hblkhd)
        958380 MiB available memory on the node where the printing process lives
------------------
     ethr =  2.21E-11,  avg # of iterations = 10.0


     -----------------------------------------------
     Non-local corr. energy    =      45.71961687 Ry
     -----------------------------------------------


     total cpu time spent up to now is     2391.2 secs

     total energy              =  -65089.47763224 Ry
     estimated scf accuracy    <       0.00000016 Ry

     iteration # 13     ecut=    70.00 Ry     beta= 0.70
     Davidson diagonalization with overlap

---- Real-time Memory Report at c_bands before calling an iterative solver
          1290 MiB given to the printing process from OS
             0 MiB allocation reported by mallinfo(arena+hblkhd)
        958344 MiB available memory on the node where the printing process lives
------------------
     ethr =  1.01E-11,  avg # of iterations = 16.0


     -----------------------------------------------
     Non-local corr. energy    =      45.71952444 Ry
     -----------------------------------------------


     total cpu time spent up to now is     2590.5 secs

     End of self-consistent calculation

          k = 0.0000 0.0000 0.0000 (302703 PWs)   bands (ev):

   -41.3997 -41.3996 -41.3995 -41.3734 -41.3733 -41.3732 -41.3719 -41.3718
   -41.3716 -41.2948 -41.2947 -41.2946 -41.2943 -41.2942 -41.2941 -40.9632
   -40.9632 -40.9630 -40.9624 -40.9623 -40.9622 -40.9510 -40.9509 -40.9509
   -40.9434 -40.9433 -40.9431 -40.9383 -40.9383 -40.9382 -40.9375 -40.9375
   -40.9374 -40.9289 -40.9289 -40.9287 -40.9263 -40.9262 -40.9261 -40.9056
   -40.9056 -40.9056 -40.9055 -40.9054 -40.9054 -40.9010 -40.9010 -40.9010
   -40.9005 -40.9005 -40.9005 -40.8983 -40.8982 -40.8982 -40.8982 -40.8981
   -40.8981 -40.8946 -40.8946 -40.8946 -40.8946 -40.8945 -40.8945 -40.8722
   -40.8722 -40.8722 -40.8722 -40.8721 -40.8721 -40.8717 -40.8717 -40.8717
   -40.8717 -40.8716 -40.8716 -40.8411 -40.8411 -40.8327 -40.8327 -40.8296
   -40.8180 -40.8179 -40.8179 -40.8179 -40.8179 -40.8178 -40.8174 -40.8174
   -40.8174 -40.8174 -40.8173 -40.8173 -40.8084 -40.8084 -40.8083 -40.8083
   -40.8083 -40.8083 -40.8056 -40.8056 -40.8056 -40.8056 -40.8056 -40.8055
   -40.8040 -40.8040 -40.8039 -40.8039 -40.8039 -40.8039 -40.7765 -40.7765
   -40.7764 -40.7746 -40.7746 -40.7744 -40.7734 -40.7734 -40.7732 -40.7689
   -40.7689 -40.7688 -40.7682 -40.7682 -40.7681 -40.7639 -40.7638 -40.7638
   -40.7633 -40.7632 -40.7632 -40.7579 -40.7579 -40.7578 -40.7574 -40.7573
   -40.7573 -40.7564 -40.7563 -40.7563 -40.7533 -40.7533 -40.7532 -40.7529
   -40.7529 -40.7529 -40.7511 -40.7510 -40.7510 -40.7503 -40.7503 -40.7502
   -40.7501 -40.7500 -40.7500 -40.7335 -40.7334 -40.7332 -40.7307 -40.7307
   -40.7304 -40.7293 -40.7293 -40.7292 -40.7290 -40.7290 -40.7290 -40.7282
   -40.7281 -40.7281 -40.7277 -40.7276 -40.7273 -40.7272 -40.7272 -40.7272
   -40.7268 -40.7268 -40.7268 -40.7209 -40.7209 -40.7167 -40.7166 -40.7166
   -40.7165 -40.7164 -40.7156 -40.7156 -40.7154 -40.7150 -40.7075 -40.7075
   -40.7075 -40.7074 -40.7074 -40.7073 -40.7054 -40.7054 -40.7054 -40.7053
   -40.7053 -40.7052 -40.6999 -40.6999 -40.6999 -40.6998 -40.6998 -40.6997
   -40.6896 -40.6896 -40.6896 -40.6895 -40.6895 -40.6894 -40.6892 -40.6891
   -40.6891 -40.6891 -40.6890 -40.6890 -40.6174 -40.6173 -40.6173 -40.6170
   -40.6169 -40.6169 -40.6150 -40.6150 -40.6150 -40.6146 -40.6145 -40.6145
   -40.6133 -40.6132 -40.6132 -40.6125 -40.6125 -40.6125 -40.6069 -40.6068
   -40.6068 -40.6063 -40.6062 -40.6062 -40.6030 -40.6030 -40.6029 -40.6024
   -40.6024 -40.6024 -40.5888 -40.5888 -40.5887 -40.5879 -40.5878 -40.5878
   -40.5868 -40.5868 -40.5868 -40.5835 -40.5835 -40.5834 -40.5834 -40.5833
   -40.5833 -40.5807 -40.5807 -40.5807 -40.5806 -40.5806 -40.5806 -40.5799
   -40.5799 -40.5798 -40.5798 -40.5798 -40.5798 -40.5788 -40.5788 -40.5788
   -40.5787 -40.5787 -40.5787 -40.5774 -40.5774 -40.5773 -40.5773 -40.5773
   -40.5773 -40.5769 -40.5768 -40.5768 -40.5768 -40.5768 -40.5768 -40.4987
   -40.4987 -40.4987 -40.4972 -40.4972 -40.4971 -40.4950 -40.4950 -40.4950
   -40.4913 -40.4912 -40.4912 -40.4905 -40.4905 -40.4905 -40.4675 -40.4674
   -40.4674 -40.4656 -40.4656 -14.0079 -14.0079 -13.9454 -13.9454 -13.9123
   -13.1555 -13.1455 -13.1441 -13.1441 -13.1438 -13.1438 -13.1310 -13.1310
   -13.1272 -13.1257 -13.1257 -13.1131 -13.1108 -13.1075 -13.1074 -13.0966
   -13.0965 -13.0912 -13.0887 -13.0877 -13.0875 -13.0767 -13.0759 -13.0758
   -13.0757 -13.0685 -13.0685 -13.0657 -13.0656 -13.0650 -13.0643 -13.0640
   -13.0639 -13.0616 -13.0608 -13.0605 -13.0604 -13.0598 -13.0598 -13.0569
   -13.0568 -13.0562 -13.0470 -13.0469 -13.0468 -12.9387 -12.9387 -12.9332
   -12.9326 -12.9230 -12.9229 -12.9225 -12.9212 -12.9212 -12.9163 -12.9142
   -12.9142 -12.9115 -12.9115 -12.9096 -12.9062 -12.9053 -12.9053 -12.9027
   -12.9003 -12.9002 -12.8962 -12.8962 -12.8940 -12.8920 -12.8919 -12.8887
   -12.8867 -12.8863 -12.8862 -12.8860 -12.8857 -12.8856 -12.8847 -12.8846
   -12.8842 -12.8838 -12.8828 -12.8827 -12.8808 -12.8808 -12.8797 -12.8787
   -12.8786 -12.8775 -12.8688 -12.8688 -12.8571 -12.8556 -12.8556 -12.8049
   -12.8047 -12.8045 -12.7950 -12.7949 -12.7946 -12.7866 -12.7865 -12.7864
   -12.7863 -12.7863 -12.7862 -12.7784 -12.7782 -12.7781 -12.7699 -12.7675
   -12.7674 -12.7625 -12.7616 -12.7616 -12.7607 -12.7607 -12.7578 -12.7518
   -12.7517 -12.7500 -12.7493 -12.7489 -12.7489 -12.7486 -12.7485 -12.7484
   -12.7471 -12.7468 -12.7467 -12.7439 -12.7439 -12.7424 -12.7420 -12.7417
   -12.7415 -12.7372 -12.7371 -12.7362 -12.7299 -12.7299 -12.7187 -12.7161
   -12.7160 -12.7069 -12.7069 -12.7021 -12.6999 -12.6924 -12.6924 -12.6910
   -12.6895 -12.6895 -12.6868 -12.6843 -12.6843 -12.6815 -12.6815 -12.6792
    -8.3609  -8.1450  -8.1449  -8.0730  -7.9911  -7.9092  -7.9092  -7.9020
    -7.9019  -7.8992  -7.8448  -7.8301  -7.8300  -7.7797  -7.7017  -7.7017
    -7.6898  -7.6876  -7.6876  -7.6838  -7.6622  -7.6622  -7.6621  -7.6414
    -7.6357  -7.6357  -7.6091  -7.6090  -7.5929  -7.5880  -7.5880  -7.5674
    -7.5674  -7.5632  -7.5473  -7.5453  -7.5168  -7.4951  -7.4951  -7.4915
    -7.4874  -7.4874  -7.4800  -7.4705  -7.4705  -7.4649  -7.4649  -7.4647
    -7.4376  -7.4376  -7.4038  -7.3908  -7.3908  -7.3550  -7.3348  -7.3348
    -7.3266  -7.3190  -7.3190  -7.2975  -7.2638  -7.2638  -7.2349  -4.4550
    -3.8158  -3.7470  -3.7470  -3.7417  -3.6963  -3.6963  -3.6575  -3.6574
    -3.6173  -3.6173  -3.6078  -3.6008  -3.4844  -3.4666  -3.4665  -3.4558
    -3.4532  -3.4265  -3.4265  -3.4184  -3.4184  -3.3769  -3.3546  -3.3474
    -3.3474  -3.2390  -3.2389  -3.1782  -3.1782  -3.1706  -3.1587  -2.9864
     0.7643   0.7643   0.8259   1.0951   1.0952   1.1127   1.1694   1.1694
     1.1801   1.2064   1.2064   1.2117   1.2423   1.2424   1.3282   1.3629
     1.3670   1.3975   1.3975   1.4136   1.4137   1.4559   1.4559   1.4833
     1.4834   1.5073   1.5073   1.5453   1.5453   1.5484   1.5484   1.5486
     1.5951   1.6168   1.6168   1.6313   1.6894   1.6894   1.6949   1.6949
     1.7078   1.7228   1.7346   1.7346   1.7499   1.7499   1.7858   1.8058
     1.8058   1.8408   1.8431   1.8832   1.8833   1.8929   1.9734   2.0298
     2.0316   2.0316   2.0359   2.0359   2.0791   2.0791   2.0805   2.1171
     2.1171   2.1405   2.1424   2.1425   2.1435   2.1501   2.1906   2.1906
     2.1989   2.1989   2.2054   2.2323   2.2419   2.2426   2.2426   2.2656
     2.2656   2.2955   2.3183   2.3535   2.3603   2.3604   2.3649   2.3649
     2.3872   2.3872   2.3949   2.3950   2.3993   2.4142   2.4142   2.4216
     2.4493   2.4837   2.5227   2.5228   2.5374   2.5374   2.5481   2.5787
     2.5788   2.6080   2.6080   2.6171   2.6310   2.6562   2.6562   2.6679
     2.6870   2.6891   2.6891   2.7479   2.7480   2.7538   2.7552   2.7901
     2.7902   2.8028   2.8028   2.8506   2.8646   2.8647   2.8798   2.8798
     2.8812   2.8879   2.8887   2.8887   2.9004   2.9004   2.9205   2.9505
     2.9506   2.9611   2.9611   2.9934   3.0059   3.0068   3.0100   3.0101
     3.0188   3.0188   3.0409   3.0410   3.0622   3.0704   3.0704   3.0790
     3.0895   3.0895   3.0998   3.1042   3.1042   3.1141   3.1149   3.1149
     3.1418   3.1499   3.1620   3.1620   3.1839   3.1840   3.2040   3.2204
     3.2204   3.2505   3.2632   3.2632   3.2661   3.2845   3.2845   3.2992
     3.3385   3.3488   3.3488   3.4472   3.4473   3.4657   3.4657   3.4659
     3.5079   3.5128   3.5262   3.5262   3.5386   4.4039   5.2840   5.2843
     5.8741   5.9763   6.2855   6.3580   6.3580   6.5131   6.5131   6.5401
     6.5402   6.5441   6.5890   6.6423   6.6423   6.6717   6.7555   6.7606
     6.7606   6.7928   6.7928   6.8109   6.8109   6.9058   6.9273   6.9477
     6.9478   6.9952   6.9952   7.0152   7.0152   7.0430   7.0521   7.0522
     7.1325   7.1326   7.1377   7.1408   7.1685   7.1739   7.2001   7.2001
     7.2627   7.2677   7.2677   7.2682   7.2927   7.2927   7.3103   7.3103
     7.3150   7.3409   7.3409   7.3493   7.3494   7.3542   7.3637   7.3847
     7.3847   7.3927   7.3928   7.4108   7.4343   7.4343   7.4534   7.4910
     7.4910   7.4946   7.5003   7.5305   7.5305   7.5339   7.5339   7.5341
     7.5423   7.5607   7.5608   7.5813   7.5814   7.6079   7.6118   7.6118
     7.6386   7.6438   7.6439   7.6616   7.6616   7.6695   7.6794   7.7373
     7.7374   7.8105   7.8276   7.8276   7.8495   8.0940   8.1047   8.1047
     9.2103   9.2103   9.2317   9.7361   9.7892   9.7892   9.8362   9.8648
     9.8648   9.8790   9.9136   9.9137   9.9137  10.0218  10.0894  10.0894
    10.1118  10.1196  10.1196  10.1338  10.1351  10.1351  10.1486  10.1689
    10.1690  10.3170  10.3765  10.3999  10.3999  10.4333  10.4333  10.4926
    10.5129  10.5129  10.5384  10.5622  10.5860  10.5860  10.8307  10.8308
    10.8438  10.8581  10.8610  10.8611  10.8935  10.9533  10.9569  10.9570
    11.0252  11.0253  11.0889  11.0889  11.1049  11.1994  11.1995

     occupation numbers 
     1.0000   1.0000   1.0000   1.0000   1.0000   1.0000   1.0000   1.0000
     1.0000   1.0000   1.0000   1.0000   1.0000   1.0000   1.0000   1.0000
     1.0000   1.0000   1.0000   1.0000   1.0000   1.0000   1.0000   1.0000
     1.0000   1.0000   1.0000   1.0000   1.0000   1.0000   1.0000   1.0000
     1.0000   1.0000   1.0000   1.0000   1.0000   1.0000   1.0000   1.0000
     1.0000   1.0000   1.0000   1.0000   1.0000   1.0000   1.0000   1.0000
     1.0000   1.0000   1.0000   1.0000   1.0000   1.0000   1.0000   1.0000
     1.0000   1.0000   1.0000   1.0000   1.0000   1.0000   1.0000   1.0000
     1.0000   1.0000   1.0000   1.0000   1.0000   1.0000   1.0000   1.0000
     1.0000   1.0000   1.0000   1.0000   1.0000   1.0000   1.0000   1.0000
     1.0000   1.0000   1.0000   1.0000   1.0000   1.0000   1.0000   1.0000
     1.0000   1.0000   1.0000   1.0000   1.0000   1.0000   1.0000   1.0000
     1.0000   1.0000   1.0000   1.0000   1.0000   1.0000   1.0000   1.0000
     1.0000   1.0000   1.0000   1.0000   1.0000   1.0000   1.0000   1.0000
     1.0000   1.0000   1.0000   1.0000   1.0000   1.0000   1.0000   1.0000
     1.0000   1.0000   1.0000   1.0000   1.0000   1.0000   1.0000   1.0000
     1.0000   1.0000   1.0000   1.0000   1.0000   1.0000   1.0000   1.0000
     1.0000   1.0000   1.0000   1.0000   1.0000   1.0000   1.0000   1.0000
     1.0000   1.0000   1.0000   1.0000   1.0000   1.0000   1.0000   1.0000
     1.0000   1.0000   1.0000   1.0000   1.0000   1.0000   1.0000   1.0000
     1.0000   1.0000   1.0000   1.0000   1.0000   1.0000   1.0000   1.0000
     1.0000   1.0000   1.0000   1.0000   1.0000   1.0000   1.0000   1.0000
     1.0000   1.0000   1.0000   1.0000   1.0000   1.0000   1.0000   1.0000
     1.0000   1.0000   1.0000   1.0000   1.0000   1.0000   1.0000   1.0000
     1.0000   1.0000   1.0000   1.0000   1.0000   1.0000   1.0000   1.0000
     1.0000   1.0000   1.0000   1.0000   1.0000   1.0000   1.0000   1.0000
     1.0000   1.0000   1.0000   1.0000   1.0000   1.0000   1.0000   1.0000
     1.0000   1.0000   1.0000   1.0000   1.0000   1.0000   1.0000   1.0000
     1.0000   1.0000   1.0000   1.0000   1.0000   1.0000   1.0000   1.0000
     1.0000   1.0000   1.0000   1.0000   1.0000   1.0000   1.0000   1.0000
     1.0000   1.0000   1.0000   1.0000   1.0000   1.0000   1.0000   1.0000
     1.0000   1.0000   1.0000   1.0000   1.0000   1.0000   1.0000   1.0000
     1.0000   1.0000   1.0000   1.0000   1.0000   1.0000   1.0000   1.0000
     1.0000   1.0000   1.0000   1.0000   1.0000   1.0000   1.0000   1.0000
     1.0000   1.0000   1.0000   1.0000   1.0000   1.0000   1.0000   1.0000
     1.0000   1.0000   1.0000   1.0000   1.0000   1.0000   1.0000   1.0000
     1.0000   1.0000   1.0000   1.0000   1.0000   1.0000   1.0000   1.0000
     1.0000   1.0000   1.0000   1.0000   1.0000   1.0000   1.0000   1.0000
     1.0000   1.0000   1.0000   1.0000   1.0000   1.0000   1.0000   1.0000
     1.0000   1.0000   1.0000   1.0000   1.0000   1.0000   1.0000   1.0000
     1.0000   1.0000   1.0000   1.0000   1.0000   1.0000   1.0000   1.0000
     1.0000   1.0000   1.0000   1.0000   1.0000   1.0000   1.0000   1.0000
     1.0000   1.0000   1.0000   1.0000   1.0000   1.0000   1.0000   1.0000
     1.0000   1.0000   1.0000   1.0000   1.0000   1.0000   1.0000   1.0000
     1.0000   1.0000   1.0000   1.0000   1.0000   1.0000   1.0000   1.0000
     1.0000   1.0000   1.0000   1.0000   1.0000   1.0000   1.0000   1.0000
     1.0000   1.0000   1.0000   1.0000   1.0000   1.0000   1.0000   1.0000
     1.0000   1.0000   1.0000   1.0000   1.0000   1.0000   1.0000   1.0000
     1.0000   1.0000   1.0000   1.0000   1.0000   1.0000   1.0000   1.0000
     1.0000   1.0000   1.0000   1.0000   1.0000   1.0000   1.0000   1.0000
     1.0000   1.0000   1.0000   1.0000   1.0000   1.0000   1.0000   1.0000
     1.0000   1.0000   1.0000   1.0000   1.0000   1.0000   1.0000   1.0000
     1.0000   1.0000   1.0000   1.0000   1.0000   1.0000   1.0000   1.0000
     1.0000   1.0000   1.0000   1.0000   1.0000   1.0000   1.0000   1.0000
     1.0000   1.0000   1.0000   1.0000   1.0000   1.0000   1.0000   1.0000
     1.0000   1.0000   1.0000   1.0000   1.0000   1.0000   1.0000   1.0000
     1.0000   1.0000   1.0000   1.0000   1.0000   1.0000   1.0000   1.0000
     1.0000   1.0000   1.0000   1.0000   1.0000   1.0000   1.0000   1.0000
     1.0000   1.0000   1.0000   1.0000   1.0000   1.0000   1.0000   1.0000
     1.0000   1.0000   1.0000   1.0000   1.0000   1.0000   1.0000   1.0000
     1.0000   1.0000   1.0000   1.0000   1.0000   1.0000   1.0000   1.0000
     1.0000   1.0000   1.0000   1.0000   1.0000   1.0000   1.0000   1.0000
     1.0000   1.0000   1.0000   1.0000   1.0000   1.0000   1.0000   1.0000
     1.0000   1.0000   1.0000   1.0000   1.0000   1.0000   1.0000   1.0000
     1.0000   1.0000   1.0000   1.0000   1.0000   1.0000   1.0000   1.0000
     1.0000   1.0000   1.0000   1.0000   1.0000   1.0000   1.0000   1.0000
     1.0000   1.0000   1.0000   1.0000   1.0000   1.0000   1.0000   1.0000
     1.0000   1.0000   1.0000   1.0000   1.0000   1.0000   1.0000   1.0000
     1.0000   1.0000   1.0000   1.0000   1.0000   1.0000   1.0000   1.0000
     1.0000   1.0000   1.0000   1.0000   1.0000   1.0000   1.0000   1.0000
     1.0000   1.0000   1.0000   1.0000   1.0000   1.0000   1.0000   1.0000
     1.0000   1.0000   1.0000   1.0000   1.0000   1.0000   1.0000   1.0000
     1.0000   1.0000   1.0000   1.0000   1.0000   1.0000   1.0000   1.0000
     1.0000   1.0000   1.0000   1.0000   1.0000   1.0000   1.0000   1.0000
     1.0000   1.0000   1.0000   1.0000   1.0000   1.0000   1.0000   1.0000
     1.0000   1.0000   1.0000   1.0000   1.0000   1.0000   1.0000   1.0000
     1.0000   1.0000   1.0000   1.0000   1.0000   1.0000   1.0000   1.0000
     1.0000   1.0000   1.0000   1.0000   1.0000   1.0000   1.0000   1.0000
     1.0000   1.0000   1.0000   1.0000   1.0000   1.0000   1.0000   1.0000
     1.0000   1.0000   1.0000   1.0000   1.0000   1.0000   1.0000   1.0000
     1.0000   1.0000   1.0000   1.0000   1.0000   1.0000   1.0000   1.0000
     1.0000   1.0000   1.0000   1.0000   1.0000   1.0000   1.0000   1.0000
     1.0000   1.0000   1.0000   1.0000   1.0000   1.0000   1.0000   1.0000
     1.0000   1.0000   1.0000   1.0000   1.0000   1.0000   1.0000   1.0000
     1.0000   1.0000   1.0000   1.0000   1.0000   1.0000   1.0000   1.0000
     1.0000   1.0000   1.0000   1.0000   1.0000   1.0000   1.0000   1.0000
     1.0000   1.0000   1.0000   1.0000   1.0000   1.0000   1.0000   1.0000
     1.0000   1.0000   1.0000   1.0000   1.0000   1.0000   1.0000   1.0000
     1.0000   1.0000   1.0000   1.0000   1.0000   1.0000   1.0000   1.0000
     1.0000   1.0000   1.0000   1.0000   1.0000   1.0000   1.0000   1.0000
     1.0000   1.0000   1.0000   1.0000   1.0000   1.0000   1.0000   1.0000
     1.0000   1.0000   1.0000   1.0000   1.0000   1.0000   1.0000   1.0000
     1.0000   1.0000   1.0000   1.0000   1.0000   1.0000   1.0000   1.0000
     1.0000   1.0000   1.0000   1.0000   1.0000   1.0000   1.0000   1.0000
     1.0000   1.0000   1.0000   1.0000   1.0000   1.0000   1.0000   1.0000
     1.0000   1.0000   1.0000   1.0000   1.0000   0.5000   0.0000   0.0000
     0.0000   0.0000   0.0000   0.0000   0.0000   0.0000   0.0000   0.0000
     0.0000   0.0000   0.0000   0.0000   0.0000   0.0000   0.0000   0.0000
     0.0000   0.0000   0.0000   0.0000   0.0000   0.0000   0.0000   0.0000
     0.0000   0.0000   0.0000   0.0000   0.0000   0.0000   0.0000   0.0000
     0.0000   0.0000   0.0000   0.0000   0.0000   0.0000   0.0000   0.0000
     0.0000   0.0000   0.0000   0.0000   0.0000   0.0000   0.0000   0.0000
     0.0000   0.0000   0.0000   0.0000   0.0000   0.0000   0.0000   0.0000
     0.0000   0.0000   0.0000   0.0000   0.0000   0.0000   0.0000   0.0000
     0.0000   0.0000   0.0000   0.0000   0.0000   0.0000   0.0000   0.0000
     0.0000   0.0000   0.0000   0.0000   0.0000   0.0000   0.0000   0.0000
     0.0000   0.0000   0.0000   0.0000   0.0000   0.0000   0.0000   0.0000
     0.0000   0.0000   0.0000   0.0000   0.0000   0.0000   0.0000   0.0000
     0.0000   0.0000   0.0000   0.0000   0.0000   0.0000   0.0000   0.0000
     0.0000   0.0000   0.0000   0.0000   0.0000   0.0000   0.0000   0.0000
     0.0000   0.0000   0.0000   0.0000   0.0000   0.0000   0.0000   0.0000
     0.0000   0.0000   0.0000   0.0000   0.0000   0.0000   0.0000   0.0000
     0.0000   0.0000   0.0000   0.0000   0.0000   0.0000   0.0000   0.0000
     0.0000   0.0000   0.0000   0.0000   0.0000   0.0000   0.0000   0.0000
     0.0000   0.0000   0.0000   0.0000   0.0000   0.0000   0.0000

     the Fermi energy is     4.4039 ev

!    total energy              =  -65089.47763217 Ry
     total all-electron energy =  -2276515.519284 Ry
     estimated scf accuracy    <       0.00000004 Ry
     smearing contrib. (-TS)   =      -0.00564190 Ry
     internal energy E=F+TS    =  -65089.47199027 Ry

     The total energy is F=E-TS. E is the sum of the following terms:
     one-electron contribution =  -11820.67002260 Ry
     hartree contribution      =    6614.10566033 Ry
     xc contribution           =   -4514.86213184 Ry
     ewald contribution        =   -9853.75684236 Ry
     one-center paw contrib.   =  -45514.28865380 Ry
      -> PAW hartree energy AE =      95.90962251 Ry
      -> PAW hartree energy PS =     -96.14660741 Ry
      -> PAW xc energy AE      =    -798.42814072 Ry
      -> PAW xc energy PS      =      33.30888964 Ry
      -> total E_H with PAW    =    6613.86867543 Ry
      -> total E_XC with PAW   =   -5279.98138293 Ry

     convergence has been achieved in  13 iterations


     -----------------------------------------------
     Non-local corr. energy    =      45.71952444 Ry
     -----------------------------------------------


     Forces acting on atoms (cartesian axes, Ry/au):

     atom    1 type  1   force =     0.00000110    0.00392681   -0.00353645
     atom    2 type  1   force =     0.00000282    0.02017044    0.00422430
     atom    3 type  1   force =    -0.00047918    0.00159443   -0.00003079
     atom    4 type  1   force =    -0.00424212    0.00399515   -0.00168907
     atom    5 type  1   force =     0.00113758   -0.00120856   -0.00002960
     atom    6 type  1   force =     0.00133602   -0.00566636   -0.00168825
     atom    7 type  1   force =     0.00340582   -0.00196942   -0.00354142
     atom    8 type  1   force =     0.01747317   -0.01009204    0.00422306
     atom    9 type  1   force =     0.00463145    0.00267135   -0.00261458
     atom   10 type  1   force =     0.00524805    0.00302703    0.00070676
     atom   11 type  1   force =     0.00047763    0.00159172   -0.00003065
     atom   12 type  1   force =     0.00424240    0.00399243   -0.00168932
     atom   13 type  1   force =    -0.00000278    0.00000191    0.00028826
     atom   14 type  1   force =    -0.00000289    0.00000256   -0.00043055
     atom   15 type  1   force =     0.00161635   -0.00038212   -0.00003158
     atom   16 type  1   force =     0.00557776    0.00167676   -0.00168847
     atom   17 type  1   force =    -0.00000040    0.00014648   -0.00012356
     atom   18 type  1   force =    -0.00000232    0.00075676    0.00090786
     atom   19 type  1   force =     0.00012710   -0.00007383   -0.00011964
     atom   20 type  1   force =     0.00065606   -0.00037695    0.00090864
     atom   21 type  1   force =    -0.00113862   -0.00121017   -0.00002993
     atom   22 type  1   force =    -0.00133565   -0.00566784   -0.00168963
     atom   23 type  1   force =    -0.00162095   -0.00038246   -0.00003211
     atom   24 type  1   force =    -0.00558120    0.00167685   -0.00169030
     atom   25 type  1   force =    -0.00463213    0.00267384   -0.00261613
     atom   26 type  1   force =    -0.00524859    0.00302967    0.00070449
     atom   27 type  1   force =    -0.00012706   -0.00007290   -0.00012145
     atom   28 type  1   force =    -0.00065595   -0.00037442    0.00090831
     atom   29 type  1   force =     0.00000216   -0.00534909   -0.00261479
     atom   30 type  1   force =     0.00000212   -0.00605521    0.00070734
     atom   31 type  1   force =    -0.00340131   -0.00196808   -0.00354027
     atom   32 type  1   force =    -0.01746836   -0.01009264    0.00422601
     atom   33 type  2   force =    -0.00000797   -0.00000121    0.00057715
     atom   34 type  2   force =     0.00298959   -0.00251690    0.00022967
     atom   35 type  2   force =     0.00073040   -0.00127553    0.00034760
     atom   36 type  2   force =     0.00113309    0.00065099    0.00111542
     atom   37 type  2   force =     0.00006473    0.00003481    0.00046698
     atom   38 type  2   force =    -0.00068001    0.00384458    0.00022580
     atom   39 type  2   force =    -0.00073881    0.00127019    0.00034704
     atom   40 type  2   force =    -0.00366962   -0.00133665    0.00022401
     atom   41 type  2   force =    -0.00146996    0.00000013    0.00034533
     atom   42 type  2   force =    -0.00299695   -0.00251198    0.00022851
     atom   43 type  2   force =    -0.00073787   -0.00127086    0.00034762
     atom   44 type  2   force =    -0.00000290   -0.00054176    0.00026347
     atom   45 type  2   force =    -0.00000142   -0.00057861   -0.00038727
     atom   46 type  2   force =    -0.00046847    0.00026978    0.00026102
     atom   47 type  2   force =    -0.00050269    0.00028808   -0.00038328
     atom   48 type  2   force =     0.00000702   -0.00130906    0.00111224
     atom   49 type  2   force =     0.00000673   -0.00007259    0.00046563
     atom   50 type  2   force =    -0.00120184   -0.00069653    0.00032327
     atom   51 type  2   force =    -0.00186629   -0.00107762    0.00126064
     atom   52 type  2   force =    -0.00113298    0.00065978    0.00111305
     atom   53 type  2   force =    -0.00006334    0.00004100    0.00046470
     atom   54 type  2   force =     0.00047287    0.00027500    0.00026452
     atom   55 type  2   force =     0.00050663    0.00029302   -0.00038612
     atom   56 type  2   force =     0.00367239   -0.00133335    0.00022888
     atom   57 type  2   force =     0.00147102    0.00000298    0.00034731
     atom   58 type  2   force =     0.00120831   -0.00069669    0.00032621
     atom   59 type  2   force =     0.00187375   -0.00108060    0.00126692
     atom   60 type  2   force =     0.00000237    0.00138990    0.00032890
     atom   61 type  2   force =     0.00000108    0.00216064    0.00126110
     atom   62 type  2   force =     0.00067641    0.00384881    0.00022939
     atom   63 type  2   force =     0.00073294    0.00127360    0.00035006
     atom   64 type  2   force =     0.00856426   -0.00494935    0.00812990
     atom   65 type  2   force =     0.00229279   -0.00132597    0.00031021
     atom   66 type  2   force =     0.00025754   -0.00087032    0.00034797
     atom   67 type  2   force =     0.00101754   -0.00070405   -0.00037688
     atom   68 type  2   force =    -0.00062270    0.00065475    0.00034809
     atom   69 type  2   force =    -0.00009977    0.00123540   -0.00037716
     atom   70 type  2   force =    -0.00000615    0.00988087    0.00814045
     atom   71 type  2   force =    -0.00001190    0.00265168    0.00031212
     atom   72 type  2   force =    -0.00856646   -0.00494316    0.00813487
     atom   73 type  2   force =    -0.00230116   -0.00131637    0.00031690
     atom   74 type  2   force =    -0.00000442   -0.00105211    0.00048887
     atom   75 type  2   force =    -0.00000298   -0.01298404   -0.00059468
     atom   76 type  2   force =    -0.00018016   -0.00010949   -0.00023479
     atom   77 type  2   force =    -0.00060972   -0.00035453   -0.00049613
     atom   78 type  2   force =    -0.00091165    0.00052105    0.00048804
     atom   79 type  2   force =    -0.01125406    0.00649383   -0.00059427
     atom   80 type  2   force =    -0.00087652    0.00020826    0.00034832
     atom   81 type  2   force =    -0.00111530   -0.00052654   -0.00037446
     atom   82 type  2   force =    -0.00026009   -0.00086441    0.00034817
     atom   83 type  2   force =    -0.00101835   -0.00069777   -0.00037327
     atom   84 type  2   force =     0.00018200   -0.00010336   -0.00023786
     atom   85 type  2   force =     0.00061001   -0.00034660   -0.00049656
     atom   86 type  2   force =     0.00000698    0.00020952   -0.00023738
     atom   87 type  2   force =     0.00000722    0.00070347   -0.00049846
     atom   88 type  2   force =     0.00088534    0.00020824    0.00034700
     atom   89 type  2   force =     0.00112155   -0.00053054   -0.00037942
     atom   90 type  2   force =     0.00000347    0.00000123    0.00027820
     atom   91 type  2   force =     0.00000278    0.00000180   -0.00053974
     atom   92 type  2   force =     0.00061933    0.00066069    0.00034515
     atom   93 type  2   force =     0.00009936    0.00123785   -0.00037848
     atom   94 type  2   force =     0.00091128    0.00052650    0.00048308
     atom   95 type  2   force =     0.01125118    0.00649466   -0.00060168
     atom   96 type  1   force =     0.00000250   -0.00000663   -0.02376845
     The non-local contrib.  to forces
     atom    1 type  1   force =     0.00000284    0.05742175   -0.06591073
     atom    2 type  1   force =    -0.00000424    0.06143948    0.07662543
     atom    3 type  1   force =     0.00508682    0.02004851    0.00204453
     atom    4 type  1   force =     0.01372621    0.00646568    0.01697784
     atom    5 type  1   force =     0.01989814   -0.00564499    0.00200930
     atom    6 type  1   force =     0.01247940    0.00852956    0.01691805
     atom    7 type  1   force =     0.04971151   -0.02870365   -0.06581388
     atom    8 type  1   force =     0.05327868   -0.03075321    0.07671881
     atom    9 type  1   force =     0.08497996    0.04902750   -0.04406358
     atom   10 type  1   force =     0.02012075    0.01160067   -0.01719588
     atom   11 type  1   force =    -0.00507375    0.02005202    0.00204623
     atom   12 type  1   force =    -0.01371386    0.00648489    0.01698048
     atom   13 type  1   force =     0.00001104   -0.00002763   -0.00481157
     atom   14 type  1   force =     0.00000557   -0.00002183   -0.00062779
     atom   15 type  1   force =     0.01483127   -0.01444734    0.00201211
     atom   16 type  1   force =    -0.00117776   -0.01511105    0.01692737
     atom   17 type  1   force =    -0.00000624   -0.01763094    0.02492753
     atom   18 type  1   force =     0.00000143   -0.01184291   -0.00324184
     atom   19 type  1   force =    -0.01521868    0.00880696    0.02494486
     atom   20 type  1   force =    -0.01024656    0.00589873   -0.00327346
     atom   21 type  1   force =    -0.01989483   -0.00565018    0.00201963
     atom   22 type  1   force =    -0.01249104    0.00855257    0.01694534
     atom   23 type  1   force =    -0.01482383   -0.01445139    0.00202234
     atom   24 type  1   force =     0.00121697   -0.01513213    0.01695216
     atom   25 type  1   force =    -0.08498956    0.04904607   -0.04408146
     atom   26 type  1   force =    -0.02011879    0.01160988   -0.01719074
     atom   27 type  1   force =     0.01522710    0.00881867    0.02494623
     atom   28 type  1   force =     0.01024436    0.00589599   -0.00325293
     atom   29 type  1   force =     0.00001170   -0.09805844   -0.04400822
     atom   30 type  1   force =     0.00000723   -0.02324243   -0.01719512
     atom   31 type  1   force =    -0.04972667   -0.02871429   -0.06585004
     atom   32 type  1   force =    -0.05325067   -0.03073156    0.07664902
     atom   33 type  2   force =     0.00000149    0.00000501    0.23884336
     atom   34 type  2   force =    -0.00136555   -0.02803909    0.22312429
     atom   35 type  2   force =     0.02797082   -0.01431372    0.25358311
     atom   36 type  2   force =    -0.00726230   -0.00414114    0.23660892
     atom   37 type  2   force =     0.00391629    0.00225862    0.25750622
     atom   38 type  2   force =    -0.02496765    0.01281782    0.22311886
     atom   39 type  2   force =     0.00155814    0.03136114    0.25358445
     atom   40 type  2   force =    -0.02358646    0.01521933    0.22312583
     atom   41 type  2   force =    -0.02639305   -0.01703187    0.25357814
     atom   42 type  2   force =     0.00137685   -0.02804539    0.22311073
     atom   43 type  2   force =    -0.02797190   -0.01431888    0.25358359
     atom   44 type  2   force =    -0.00000129   -0.00472216    0.24636255
     atom   45 type  2   force =    -0.00000187   -0.00322986    0.25758999
     atom   46 type  2   force =    -0.00409693    0.00235868    0.24635481
     atom   47 type  2   force =    -0.00280802    0.00160804    0.25759087
     atom   48 type  2   force =    -0.00001774    0.00836154    0.23660308
     atom   49 type  2   force =    -0.00000406   -0.00450392    0.25750304
     atom   50 type  2   force =    -0.01368248   -0.00787309    0.24814058
     atom   51 type  2   force =    -0.03898423   -0.02247884    0.27149645
     atom   52 type  2   force =     0.00725830   -0.00415750    0.23659872
     atom   53 type  2   force =    -0.00391744    0.00225409    0.25750198
     atom   54 type  2   force =     0.00409023    0.00235283    0.24635940
     atom   55 type  2   force =     0.00279704    0.00160468    0.25758766
     atom   56 type  2   force =     0.02360362    0.01521225    0.22313584
     atom   57 type  2   force =     0.02639685   -0.01703959    0.25358469
     atom   58 type  2   force =     0.01366604   -0.00786110    0.24814445
     atom   59 type  2   force =     0.03898725   -0.02248463    0.27150357
     atom   60 type  2   force =     0.00000280    0.01579308    0.24814992
     atom   61 type  2   force =    -0.00000342    0.04499106    0.27149239
     atom   62 type  2   force =     0.02498164    0.01282851    0.22311362
     atom   63 type  2   force =    -0.00155965    0.03137189    0.25359085
     atom   64 type  2   force =     0.15805215   -0.09125686   -0.07175065
     atom   65 type  2   force =     0.03757215   -0.02172151   -0.25317904
     atom   66 type  2   force =    -0.01353788   -0.00778037   -0.26093924
     atom   67 type  2   force =     0.00202548   -0.00634641   -0.24072240
     atom   68 type  2   force =    -0.01349287   -0.00785593   -0.26095327
     atom   69 type  2   force =    -0.00446994    0.00491089   -0.24072700
     atom   70 type  2   force =    -0.00002153    0.18242145   -0.07183735
     atom   71 type  2   force =     0.00000076    0.04344561   -0.25315347
     atom   72 type  2   force =    -0.15804201   -0.09122585   -0.07177740
     atom   73 type  2   force =    -0.03759719   -0.02173585   -0.25316279
     atom   74 type  2   force =    -0.00000583   -0.01106915   -0.25373795
     atom   75 type  2   force =    -0.00000618    0.01283687   -0.23546792
     atom   76 type  2   force =    -0.00756943   -0.00437348   -0.26412176
     atom   77 type  2   force =     0.00031452    0.00018438   -0.24451690
     atom   78 type  2   force =    -0.00957479    0.00554717   -0.25374395
     atom   79 type  2   force =     0.01096496   -0.00630090   -0.23549471
     atom   80 type  2   force =     0.00005999    0.01561720   -0.26094761
     atom   81 type  2   force =    -0.00646973    0.00142723   -0.24072308
     atom   82 type  2   force =     0.01353021   -0.00776252   -0.26093712
     atom   83 type  2   force =    -0.00202640   -0.00631710   -0.24071384
     atom   84 type  2   force =     0.00758096   -0.00436230   -0.26412440
     atom   85 type  2   force =    -0.00030804    0.00020045   -0.24451790
     atom   86 type  2   force =     0.00001566    0.00877431   -0.26412152
     atom   87 type  2   force =     0.00001758   -0.00034311   -0.24451818
     atom   88 type  2   force =    -0.00004044    0.01560492   -0.26094909
     atom   89 type  2   force =     0.00649516    0.00142011   -0.24073047
     atom   90 type  2   force =     0.00000145   -0.00000757   -0.24757251
     atom   91 type  2   force =     0.00000167   -0.00001803   -0.22407980
     atom   92 type  2   force =     0.01347169   -0.00783586   -0.26095276
     atom   93 type  2   force =     0.00445523    0.00492187   -0.24072392
     atom   94 type  2   force =     0.00957097    0.00555200   -0.25375266
     atom   95 type  2   force =    -0.01103301   -0.00632952   -0.23549330
     atom   96 type  1   force =    -0.00003562    0.00010400   -0.11054228
     The ionic contribution  to forces
     atom    1 type  1   force =    -0.00028146   -0.26743010   -0.83859820
     atom    2 type  1   force =     0.00026763   -2.32798663   -2.16930258
     atom    3 type  1   force =    -0.28252120   -0.36587161   -0.57373958
     atom    4 type  1   force =    -0.45716010   -0.17047612   -0.07047400
     atom    5 type  1   force =    -0.45571967   -0.06358739   -0.57259045
     atom    6 type  1   force =    -0.37490238   -0.31055245   -0.06975159
     atom    7 type  1   force =    -0.23304550    0.13583581   -0.84343490
     atom    8 type  1   force =    -2.02050269    1.16639226   -2.16946505
     atom    9 type  1   force =    -1.45155598   -0.83443197    0.17925110
     atom   10 type  1   force =    -0.21441375   -0.12110903    0.69903790
     atom   11 type  1   force =     0.28299159   -0.36537178   -0.57378489
     atom   12 type  1   force =     0.45772045   -0.17051746   -0.07063517
     atom   13 type  1   force =     0.00055775   -0.00039385   -0.53440226
     atom   14 type  1   force =     0.00089963   -0.00059371    0.47918403
     atom   15 type  1   force =    -0.17337352    0.42802384   -0.57177629
     atom   16 type  1   force =     0.08158748    0.48140692   -0.06880926
     atom   17 type  1   force =     0.00044044    0.76962462   -0.94874324
     atom   18 type  1   force =     0.00015874    0.38764582    0.48944661
     atom   19 type  1   force =     0.66308234   -0.38504566   -0.95104655
     atom   20 type  1   force =     0.33379824   -0.19346750    0.48936858
     atom   21 type  1   force =     0.45600032   -0.06329850   -0.57188668
     atom   22 type  1   force =     0.37573886   -0.31059337   -0.06976956
     atom   23 type  1   force =     0.17442654    0.42795828   -0.57111719
     atom   24 type  1   force =    -0.08098411    0.48162591   -0.06850162
     atom   25 type  1   force =     1.45182218   -0.83622374    0.18109001
     atom   26 type  1   force =     0.21418659   -0.12284652    0.70009515
     atom   27 type  1   force =    -0.66405827   -0.38609365   -0.95081968
     atom   28 type  1   force =    -0.33462362   -0.19412577    0.48806901
     atom   29 type  1   force =    -0.00142593    1.67224216    0.17583075
     atom   30 type  1   force =    -0.00157722    0.24685614    0.69861947
     atom   31 type  1   force =     0.23224224    0.13564131   -0.84118816
     atom   32 type  1   force =     2.01840140    1.16486618   -2.16811297
     atom   33 type  2   force =    -0.00088151    0.00107479  -14.51246882
     atom   34 type  2   force =     0.47784183    0.74434841  -12.10510933
     atom   35 type  2   force =    -0.86225581    0.55830525  -14.95895471
     atom   36 type  2   force =     0.26212084    0.14671403  -13.25637762
     atom   37 type  2   force =    -0.23756301   -0.14092316  -15.42297911
     atom   38 type  2   force =     0.88156826    0.04239246  -12.10422484
     atom   39 type  2   force =     0.05110082   -1.02406472  -14.96077473
     atom   40 type  2   force =     0.40471719   -0.78364646  -12.10472823
     atom   41 type  2   force =     0.91284076    0.46883238  -14.96062027
     atom   42 type  2   force =    -0.47851550    0.74575588  -12.10463734
     atom   43 type  2   force =     0.86212948    0.55899824  -14.95985094
     atom   44 type  2   force =     0.00083104   -0.19638080  -13.47833135
     atom   45 type  2   force =     0.00075862   -0.05376544  -15.69017411
     atom   46 type  2   force =    -0.16690806    0.09590007  -13.47741976
     atom   47 type  2   force =    -0.04327727    0.02540059  -15.69078397
     atom   48 type  2   force =     0.00203458   -0.29943583  -13.25662895
     atom   49 type  2   force =     0.00121158    0.27532377  -15.42406157
     atom   50 type  2   force =     0.43465837    0.25145001  -13.61763838
     atom   51 type  2   force =     1.55138739    0.89780241  -15.51308023
     atom   52 type  2   force =    -0.26218252    0.14910347  -13.25693618
     atom   53 type  2   force =     0.23782288   -0.13969651  -15.42318107
     atom   54 type  2   force =     0.16921957    0.09632352  -13.47723109
     atom   55 type  2   force =     0.04512818    0.02562509  -15.69098366
     atom   56 type  2   force =    -0.40524562   -0.78435485  -12.10429489
     atom   57 type  2   force =    -0.91345112    0.46804505  -14.95925896
     atom   58 type  2   force =    -0.43410488    0.25035212  -13.61777164
     atom   59 type  2   force =    -1.55162343    0.89695199  -15.51220176
     atom   60 type  2   force =    -0.00070509   -0.50335796  -13.61729120
     atom   61 type  2   force =    -0.00086360   -1.79314133  -15.51282904
     atom   62 type  2   force =    -0.88400420    0.04221194  -12.10334120
     atom   63 type  2   force =    -0.05271540   -1.02441824  -14.96030654
     atom   64 type  2   force =    -5.51591456    3.18752295    8.70146895
     atom   65 type  2   force =    -0.86778024    0.50317769   13.39033967
     atom   66 type  2   force =     0.46746396    0.03742355   14.49599803
     atom   67 type  2   force =     0.04425917    0.18241322   14.39963780
     atom   68 type  2   force =     0.26687652    0.38194329   14.49660212
     atom   69 type  2   force =     0.17970545   -0.05532245   14.40011541
     atom   70 type  2   force =    -0.00182777   -6.36576089    8.70447175
     atom   71 type  2   force =    -0.00243564   -1.00250300   13.38991087
     atom   72 type  2   force =     5.51400574    3.18849961    8.70238029
     atom   73 type  2   force =     0.86706177    0.50560140   13.39141041
     atom   74 type  2   force =     0.00026617    0.75645001   14.31496766
     atom   75 type  2   force =     0.00070259   -1.15078167   14.00453340
     atom   76 type  2   force =     0.02043050    0.00861020   14.46525266
     atom   77 type  2   force =    -0.02273062   -0.01552130   14.58401869
     atom   78 type  2   force =     0.65695658   -0.37932109   14.31405282
     atom   79 type  2   force =    -0.99147062    0.57218897   14.00606389
     atom   80 type  2   force =    -0.19923925   -0.42153505   14.49630630
     atom   81 type  2   force =     0.13671849   -0.12767149   14.40014709
     atom   82 type  2   force =    -0.46731015    0.03910329   14.49633015
     atom   83 type  2   force =    -0.04420687    0.18316747   14.40025425
     atom   84 type  2   force =    -0.01869915    0.00907057   14.46554460
     atom   85 type  2   force =     0.02428533   -0.01504764   14.58398351
     atom   86 type  2   force =     0.00126432   -0.02293370   14.46421988
     atom   87 type  2   force =     0.00121267    0.02697617   14.58452481
     atom   88 type  2   force =     0.20050825   -0.42232104   14.49596236
     atom   89 type  2   force =    -0.13630660   -0.12895416   14.39849539
     atom   90 type  2   force =    -0.00009111   -0.00069774   13.95874730
     atom   91 type  2   force =    -0.00049579   -0.00038488   14.47410504
     atom   92 type  2   force =    -0.26832879    0.38251363   14.49662746
     atom   93 type  2   force =    -0.18124838   -0.05475572   14.39915090
     atom   94 type  2   force =    -0.65633334   -0.37929923   14.31355984
     atom   95 type  2   force =     0.99379966    0.57270233   14.00430156
     atom   96 type  1   force =    -0.00034966   -0.00038191    9.32894388
     The local contribution  to forces
     atom    1 type  1   force =     0.00028901    0.21538100    0.89955007
     atom    2 type  1   force =    -0.00025271    2.29199863    2.09988020
     atom    3 type  1   force =     0.27707419    0.34795371    0.57182154
     atom    4 type  1   force =     0.43909726    0.16863299    0.05205054
     atom    5 type  1   force =     0.43748388    0.06785837    0.57070789
     atom    6 type  1   force =     0.36425670    0.29595916    0.05138678
     atom    7 type  1   force =     0.18799301   -0.10981039    0.90428601
     atom    8 type  1   force =     1.98926992   -1.14835847    2.09994850
     atom    9 type  1   force =     1.37327728    0.78927539   -0.13896090
     atom   10 type  1   force =     0.20034775    0.11300639   -0.68125444
     atom   11 type  1   force =    -0.27755109    0.34744232    0.57186469
     atom   12 type  1   force =    -0.43966278    0.16864770    0.05221026
     atom   13 type  1   force =    -0.00057379    0.00042523    0.53962370
     atom   14 type  1   force =    -0.00090951    0.00061772   -0.47899042
     atom   15 type  1   force =     0.16056361   -0.41432115    0.56988756
     atom   16 type  1   force =    -0.07424001   -0.46484005    0.05043536
     atom   17 type  1   force =    -0.00044143   -0.75225396    0.92420580
     atom   18 type  1   force =    -0.00017043   -0.37522965   -0.48507935
     atom   19 type  1   force =    -0.64809669    0.37636419    0.92649670
     atom   20 type  1   force =    -0.32306362    0.18727966   -0.48496897
     atom   21 type  1   force =    -0.43776787    0.06756384    0.56999203
     atom   22 type  1   force =    -0.36507986    0.29596716    0.05137744
     atom   23 type  1   force =    -0.16163683   -0.41425447    0.56921680
     atom   24 type  1   force =     0.07358845   -0.46504144    0.05010155
     atom   25 type  1   force =    -1.37353728    0.79105012   -0.14078568
     atom   26 type  1   force =    -0.20012391    0.11473658   -0.68231835
     atom   27 type  1   force =     0.64905560    0.37740584    0.92626615
     atom   28 type  1   force =     0.32388334    0.18794665   -0.48369086
     atom   29 type  1   force =     0.00141606   -1.58192481   -0.13559692
     atom   30 type  1   force =     0.00157175   -0.23060332   -0.68083439
     atom   31 type  1   force =    -0.18716316   -0.10961074    0.90207548
     atom   32 type  1   force =    -1.98718457   -1.14685862    2.09866733
     atom   33 type  2   force =     0.00088027   -0.00107380   14.27962653
     atom   34 type  2   force =    -0.47324841   -0.71947144   11.88705966
     atom   35 type  2   force =     0.83577593   -0.54567221   14.71125773
     atom   36 type  2   force =    -0.25372866   -0.14192692   13.02622941
     atom   37 type  2   force =     0.23389359    0.13879829   15.17137952
     atom   38 type  2   force =    -0.85772261   -0.05083492   11.88617404
     atom   39 type  2   force =    -0.05337352    0.99483960   14.71307321
     atom   40 type  2   force =    -0.38547750    0.76722170   11.88666989
[...]
     atom   15 type  1   force =    -0.00000525    0.00001348   -0.00000491
     atom   16 type  1   force =     0.00000295    0.00001399   -0.00000034
     atom   17 type  1   force =     0.00000000    0.00001225    0.00000721
     atom   18 type  1   force =     0.00000001    0.00001044   -0.00001421
     atom   19 type  1   force =     0.00001065   -0.00000622    0.00000732
     atom   20 type  1   force =     0.00000904   -0.00000533   -0.00001428
     atom   21 type  1   force =     0.00001421   -0.00000219   -0.00000493
     atom   22 type  1   force =     0.00001050   -0.00000966   -0.00000035
     atom   23 type  1   force =     0.00000519    0.00001347   -0.00000498
     atom   24 type  1   force =    -0.00000308    0.00001410   -0.00000027
     atom   25 type  1   force =    -0.00000429    0.00000254    0.00000357
     atom   26 type  1   force =    -0.00000803    0.00000471   -0.00000594
     atom   27 type  1   force =    -0.00001056   -0.00000622    0.00000729
     atom   28 type  1   force =    -0.00000893   -0.00000531   -0.00001424
     atom   29 type  1   force =     0.00000009   -0.00000499    0.00000361
     atom   30 type  1   force =     0.00000013   -0.00000910   -0.00000593
     atom   31 type  1   force =     0.00000396    0.00000242   -0.00000252
     atom   32 type  1   force =     0.00000798    0.00000455   -0.00000095
     atom   33 type  2   force =     0.00000010    0.00000010    0.00000452
     atom   34 type  2   force =    -0.00001031   -0.00000746   -0.00000162
     atom   35 type  2   force =    -0.00000051   -0.00000743    0.00000136
     atom   36 type  2   force =    -0.00001918   -0.00001119   -0.00000036
     atom   37 type  2   force =    -0.00001146   -0.00000667   -0.00000508
     atom   38 type  2   force =    -0.00001154   -0.00000492   -0.00000161
     atom   39 type  2   force =    -0.00000665    0.00000329    0.00000138
     atom   40 type  2   force =    -0.00000150    0.00001250   -0.00000171
     atom   41 type  2   force =    -0.00000594    0.00000422    0.00000141
     atom   42 type  2   force =     0.00001026   -0.00000754   -0.00000171
     atom   43 type  2   force =     0.00000063   -0.00000750    0.00000119
     atom   44 type  2   force =    -0.00000002   -0.00001353    0.00000530
     atom   45 type  2   force =    -0.00000006   -0.00000632   -0.00001354
     atom   46 type  2   force =    -0.00001164    0.00000673    0.00000544
     atom   47 type  2   force =    -0.00000544    0.00000319   -0.00001359
     atom   48 type  2   force =    -0.00000001    0.00002227   -0.00000044
     atom   49 type  2   force =    -0.00000005    0.00001331   -0.00000500
     atom   50 type  2   force =     0.00001289    0.00000737   -0.00000842
     atom   51 type  2   force =     0.00000781    0.00000439    0.00000312
     atom   52 type  2   force =     0.00001915   -0.00001120   -0.00000040
     atom   53 type  2   force =     0.00001147   -0.00000672   -0.00000503
     atom   54 type  2   force =     0.00001152    0.00000670    0.00000529
     atom   55 type  2   force =     0.00000538    0.00000329   -0.00001356
     atom   56 type  2   force =     0.00000148    0.00001271   -0.00000177
     atom   57 type  2   force =     0.00000599    0.00000423    0.00000137
     atom   58 type  2   force =    -0.00001268    0.00000740   -0.00000813
     atom   59 type  2   force =    -0.00000788    0.00000450    0.00000303
     atom   60 type  2   force =     0.00000013   -0.00001487   -0.00000825
     atom   61 type  2   force =     0.00000002   -0.00000908    0.00000310
     atom   62 type  2   force =     0.00001174   -0.00000506   -0.00000178
     atom   63 type  2   force =     0.00000668    0.00000316    0.00000120
     atom   64 type  2   force =    -0.00000018    0.00000020    0.00000038
     atom   65 type  2   force =     0.00000155   -0.00000076    0.00000084
     atom   66 type  2   force =    -0.00001858   -0.00000513    0.00000793
     atom   67 type  2   force =    -0.00000796   -0.00000371   -0.00000444
     atom   68 type  2   force =    -0.00001361   -0.00001358    0.00000799
     atom   69 type  2   force =    -0.00000713   -0.00000485   -0.00000436
     atom   70 type  2   force =     0.00000015   -0.00000015    0.00000026
     atom   71 type  2   force =     0.00000019    0.00000163    0.00000053
     atom   72 type  2   force =     0.00000029    0.00000016    0.00000017
     atom   73 type  2   force =    -0.00000140   -0.00000091    0.00000057
     atom   74 type  2   force =    -0.00000008   -0.00001749   -0.00000323
     atom   75 type  2   force =    -0.00000013   -0.00001735    0.00000563
     atom   76 type  2   force =    -0.00002064   -0.00001194    0.00000360
     atom   77 type  2   force =    -0.00001030   -0.00000597    0.00000508
     atom   78 type  2   force =    -0.00001514    0.00000886   -0.00000311
     atom   79 type  2   force =    -0.00001497    0.00000856    0.00000574
     atom   80 type  2   force =     0.00000491    0.00001858    0.00000790
     atom   81 type  2   force =     0.00000066    0.00000879   -0.00000429
     atom   82 type  2   force =     0.00001856   -0.00000522    0.00000793
     atom   83 type  2   force =     0.00000795   -0.00000383   -0.00000440
     atom   84 type  2   force =     0.00002055   -0.00001198    0.00000360
     atom   85 type  2   force =     0.00001036   -0.00000612    0.00000502
     atom   86 type  2   force =    -0.00000008    0.00002391    0.00000358
     atom   87 type  2   force =    -0.00000007    0.00001192    0.00000522
     atom   88 type  2   force =    -0.00000492    0.00001864    0.00000804
     atom   89 type  2   force =    -0.00000070    0.00000874   -0.00000426
     atom   90 type  2   force =     0.00000002   -0.00000010    0.00001410
     atom   91 type  2   force =     0.00000011   -0.00000009   -0.00000895
     atom   92 type  2   force =     0.00001378   -0.00001357    0.00000800
     atom   93 type  2   force =     0.00000716   -0.00000489   -0.00000422
     atom   94 type  2   force =     0.00001511    0.00000891   -0.00000315
     atom   95 type  2   force =     0.00001476    0.00000867    0.00000560
     atom   96 type  1   force =    -0.00000003    0.00000014    0.00001610

     Total force =     0.003735     Total SCF correction =     0.000139


     Computing stress (Cartesian axis) and pressure



     -----------------------------------------------
     Non-local corr. energy    =      45.71849084 Ry
     -----------------------------------------------

          total   stress  (Ry/bohr**3)                   (kbar)     P=       -5.73
  -0.00003925  -0.00000000  -0.00000000           -5.77       -0.00       -0.00
  -0.00000000  -0.00003925   0.00000000           -0.00       -5.77        0.00
  -0.00000000   0.00000000  -0.00003827           -0.00        0.00       -5.63

     kinetic stress (kbar)  15066.42     -0.00     -0.00
                               -0.00  15066.42      0.00
                               -0.00      0.00  15078.53

     local   stress (kbar)  -7336.84     -0.02     -0.01
                               -0.02  -7336.86     -0.01
                               -0.01     -0.01   1273.79

     nonloc. stress (kbar)  -1184.60     -0.00     -0.00
                               -0.00  -1184.60      0.00
                               -0.00      0.00  -1189.17

     hartree stress (kbar)  11900.97      0.01      0.00
                                0.01  11900.98      0.00
                                0.00      0.00   8026.30

     exc-cor stress (kbar)   6914.29      0.00     -0.00
                                0.00   6914.29      0.00
                               -0.00      0.00   6913.21

     corecor stress (kbar) -11262.20     -0.00      0.00
                               -0.00 -11262.20     -0.00
                                0.00     -0.00 -11262.14

     ewald   stress (kbar) -14186.59      0.01      0.00
                                0.01 -14186.57      0.01
                                0.00      0.01 -18930.19

     hubbard stress (kbar)      0.00      0.00      0.00
                                0.00      0.00      0.00
                                0.00      0.00      0.00

     DFT-D   stress (kbar)      0.00      0.00      0.00
                                0.00      0.00      0.00
                                0.00      0.00      0.00

     XDM     stress (kbar)      0.00      0.00      0.00
                                0.00      0.00      0.00
                                0.00      0.00      0.00

     dft-nl  stress (kbar)     82.76     -0.00      0.00
                               -0.00     82.76     -0.00
                                0.00     -0.00     84.04

     TS-vdW  stress (kbar)      0.00      0.00      0.00
                                0.00      0.00      0.00
                                0.00      0.00      0.00

     MDB     stress (kbar)      0.00      0.00      0.00
                                0.00      0.00      0.00
                                0.00      0.00      0.00

     3D-RISM stress (kbar)      0.00      0.00      0.00
                                0.00      0.00      0.00
                                0.00      0.00      0.00

     Energy error            =      3.7E-05 Ry
     Gradient error          =      7.7E-04 Ry/Bohr

     bfgs converged in  25 scf cycles and  24 bfgs steps
     (criteria: energy <  1.0E-04 Ry, force <  1.0E-03 Ry/Bohr)

     End of BFGS Geometry Optimization

     Final energy             =  -65089.5074596676 Ry

     File ./PbI2.bfgs deleted, as requested
Begin final coordinates

ATOMIC_POSITIONS (angstrom)
Pb            2.3554203625        4.1802491600       14.6728750210
Pb            2.3553459401        4.0452156886        7.4697644879
Pb            0.0112391810        8.2003897659       14.7719260915
Pb           -0.0078366750        8.1619540972        7.3499146669
Pb           -2.3135672040       12.2270731515       14.7720285680
Pb           -2.3563532299       12.2298531407        7.3498922179
Pb           -4.6229410204       16.2670990847       14.6726257734
Pb           -4.7399435552       16.3347382028        7.4698406750
Pb            7.1858157895        4.1483321295       14.7496726349
Pb            7.0778587924        4.0860416863        7.4089766483
Pb            4.6995344059        8.2004137910       14.7719424966
Pb            4.7185583438        8.1619516969        7.3499283069
Pb            2.3553807714       12.2383111026       14.7293199953
Pb            2.3553823176       12.2383055958        7.3298066296
Pb            0.0305994911       16.2873454277       14.7721485689
Pb            0.0067765049       16.3230070725        7.3500337277
Pb           11.7766910222        4.0465204799       14.8254318265
Pb           11.7766817178        4.0853553739        7.4036860326
Pb            9.3930482530        8.1750306000       14.8251955463
Pb            9.4266449858        8.1556497467        7.4035303165
Pb            7.0243490588       12.2270888502       14.7721062797
Pb            7.0671361143       12.2298606592        7.3499663454
Pb            4.6802168844       16.2873583041       14.7722062737
Pb            4.7039849908       16.3230517073        7.3500939798
Pb           16.3676062656        4.1482973677       14.7497902296
Pb           16.4754538320        4.0860376279        7.4091376099
Pb           14.1603193823        8.1750212512       14.8252192273
Pb           14.1266959664        8.1556390950        7.4034795406
Pb           11.7766797959       12.0997944597       14.7494168717
Pb           11.7766536147       12.2245840714        7.4088895717
Pb            9.3337787294       16.2670927315       14.6727501848
Pb            9.4507070256       16.3347771023        7.4699004062
I             2.3553718791        1.3595368077       12.9336212260
I             0.0325326981        5.3847464425        5.5201711798
I             0.0016463722        5.4225399868       12.9052821318
I            -2.3591180819        9.5163725002        5.4846029948
I            -2.3563940089        9.5180022296       12.8920849641
I            -4.7413685446       13.6536199971        5.5201120434
I            -4.7239489168       13.6075153660       12.9050963007
I             7.0026691953        1.3585324764        5.5201892428
I             7.0511468039        1.3664255940       12.9052259183
I             4.6781195764        5.3847608050        5.5201242542
I             4.7091330613        5.4225797828       12.9052449469
I             2.3553637315        9.5048760825        5.4699505426
I             2.3553738474        9.5073408996       12.8588964955
I            -0.0118353236       13.6050801811        5.4699230090
I            -0.0097557154       13.6039123446       12.8590439655
I            11.7766896766        1.3641023900        5.4848648775
I            11.7766833089        1.3608880962       12.8922621388
I             9.4152390809        5.4355397768        5.5198987195
I             9.3914427945        5.4216334213       12.8915247763
I             7.0698630273        9.5164082276        5.4846748488
I             7.0671343871        9.5180346775       12.8921041194
I             4.7226153315       13.6051115815        5.4699912488
I             4.7205316388       13.6039272353       12.8591034692
I            16.5506136495        1.3585896000        5.5202659736
I            16.5022643883        1.3664076170       12.9053180005
I            14.1381245293        5.4354965995        5.5199171083
I            14.1620483991        5.4215762119       12.8915798387
I            11.7766436946        9.5257186813        5.5198345466
I            11.7766961488        9.5528604671       12.8913746719
I             9.4520887166       13.6536405000        5.5201420089
I             9.4347056180       13.6075550100       12.9051501509
I             0.0473597866        2.6917241488        2.0703363670
I             0.0011170206        2.7188179124        9.3273146705
I            -2.3602990396        6.8021117628        1.9147576112
I            -2.3434842753        6.8082613595        9.2710545501
I            -4.7104510318       10.8724700254        1.9146856384
I            -4.6966738856       10.8840681818        9.2708494994
I            -7.0657730702       15.0121543102        2.0700831645
I            -7.0658980391       14.9591837053        9.3272035326
I             4.6636215357        2.6917064788        2.0702503526
I             4.7096436336        2.7188154910        9.3271713286
I             2.3553741535        6.8029407790        1.8978623488
I             2.3553589391        6.6974159097        9.2329378802
I             0.0132914185       10.8860460265        1.8972814128
I            -0.0041884807       10.8760760707        9.2278898598
I            -2.3518452701       14.9559964977        1.8978947306
I            -2.4429828740       15.0086115585        9.2329662409
I             9.4265653341        2.7222872414        1.9148749172
I             9.4234164580        2.7045346136        9.2710589352
I             7.0710764779        6.8021001069        1.9147234861
I             7.0542175453        6.8081948267        9.2709967999
I             4.6974458279       10.8860513589        1.8973206219
I             4.7149095678       10.8760652889        9.2279075662
I             2.3553753085       14.9427299186        1.8974531235
I             2.3553517238       14.9628763614        9.2279835877
I            14.1267587584        2.7222846389        1.9149239490
I            14.1298492175        2.7045443669        9.2712052295
I            11.7766575103        6.7990271514        1.9047455173
I            11.7766675429        6.7990353451        9.3026058589
I             9.4212262378       10.8724587080        1.9147026188
I             9.4074513369       10.8840658424        9.2709373546
I             7.0626156522       14.9560079938        1.8980079241
I             7.1538039213       15.0086705900        9.2330280457
Pb            2.3555207913        1.3591188268        3.7262881861
End final coordinates



     Writing all to output data dir ./PbI2.save/
 
     init_run     :     14.94s CPU     15.84s WALL (       1 calls)
     electrons    :  55855.48s CPU  56892.17s WALL (      25 calls)
     update_pot   :     61.19s CPU     61.74s WALL (      24 calls)
     forces       :    190.90s CPU    198.27s WALL (      25 calls)
     stress       :   2765.95s CPU   2799.40s WALL (      25 calls)

     Called by init_run:
     wfcinit      :     10.13s CPU     10.50s WALL (       1 calls)
     wfcinit:atom :      0.03s CPU      0.06s WALL (       1 calls)
     wfcinit:wfcr :      9.42s CPU      9.62s WALL (       1 calls)
     potinit      :      1.34s CPU      1.56s WALL (       1 calls)
     hinit0       :      1.07s CPU      1.17s WALL (       1 calls)

     Called by electrons:
     c_bands      :  54468.45s CPU  55422.80s WALL (     288 calls)
     sum_band     :    948.57s CPU    993.68s WALL (     288 calls)
     v_of_rho     :    235.49s CPU    238.46s WALL (     292 calls)
     v_h          :      3.09s CPU      3.14s WALL (     292 calls)
     v_xc         :    274.63s CPU    278.13s WALL (     342 calls)
     newd         :     90.57s CPU    120.39s WALL (     292 calls)
     PAW_pot      :     90.62s CPU     91.74s WALL (     316 calls)
     mix_rho      :      8.54s CPU      8.72s WALL (     288 calls)
     vdW_kernel   :      0.24s CPU      0.25s WALL (       1 calls)

     Called by c_bands:
     init_us_2    :     24.55s CPU     25.54s WALL (     601 calls)
     init_us_2:cp :     24.54s CPU     25.54s WALL (     601 calls)
     cegterg      :  54332.67s CPU  55128.09s WALL (     288 calls)

     Called by sum_band:
     sum_band:wei :      0.17s CPU      0.18s WALL (     288 calls)
     sum_band:loo :    837.02s CPU    844.85s WALL (     288 calls)
     sum_band:buf :      0.00s CPU      0.00s WALL (     288 calls)
     sum_band:ini :     20.36s CPU     20.68s WALL (     288 calls)
     sum_band:cal :    385.23s CPU    389.08s WALL (     312 calls)
     sum_band:bec :      5.64s CPU      5.74s WALL (     312 calls)
     addusdens    :     93.02s CPU    129.44s WALL (     288 calls)
     addusd:skk   :      8.33s CPU      8.50s WALL (     576 calls)
     addusd:dgemm :     49.34s CPU     84.77s WALL (     576 calls)
     addusd:qvan2 :     33.35s CPU     33.75s WALL (     576 calls)

     Called by *egterg:
     cdiaghg      :  43770.94s CPU  44108.46s WALL (    4155 calls)
     cegterg:over :   2133.71s CPU   2197.37s WALL (    3912 calls)
     cegterg:upda :   1295.80s CPU   1320.10s WALL (    3912 calls)
     cegterg:last :    538.72s CPU    543.08s WALL (     296 calls)
     h_psi        :   4956.19s CPU   5020.49s WALL (    4201 calls)
     s_psi        :   1015.42s CPU   1023.93s WALL (    4201 calls)
     g_psi        :      4.69s CPU      4.75s WALL (    3912 calls)

     Called by h_psi:
     h_psi:calbec :   1125.54s CPU   1135.12s WALL (    4201 calls)
     vloc_psi     :   2791.18s CPU   2816.94s WALL (    4201 calls)
     add_vuspsi   :   1013.36s CPU   1021.97s WALL (    4201 calls)

     General routines
     calbec       :   1664.88s CPU   1679.75s WALL (    4638 calls)
     fft          :    214.62s CPU    217.24s WALL (   22616 calls)
     ffts         :      5.58s CPU      5.68s WALL (     580 calls)
     fftw         :   3079.51s CPU   3106.74s WALL ( 1832922 calls)
     interpolate  :      5.38s CPU      5.46s WALL (     292 calls)
 
     Parallel routines

     PAW routines
     PAW_pot      :     90.62s CPU     91.74s WALL (     316 calls)
 
     PWSCF        :     16h22m CPU     16h41m WALL

 
   This run was terminated on:   6:58:28   2Mar2024            

=------------------------------------------------------------------------------=
   JOB DONE.
=------------------------------------------------------------------------------=
