
     Program PWSCF v.7.1 starts on  3Mar2024 at  8:20:10 

     This program is part of the open-source Quantum ESPRESSO suite
     for quantum simulation of materials; please cite
         "P. Giannozzi et al., J. Phys.:Condens. Matter 21 395502 (2009);
         "P. Giannozzi et al., J. Phys.:Condens. Matter 29 465901 (2017);
         "P. Giannozzi et al., J. Chem. Phys. 152 154105 (2020);
          URL http://www.quantum-espresso.org", 
     in publications or presentations arising from this work. More details at
     http://www.quantum-espresso.org/quote

     Parallel version (MPI & OpenMP), running on     128 processor cores
     Number of MPI processes:               128
     Threads/MPI process:                     1

     MPI processes distributed on     1 nodes
     1549142 MiB available memory on the printing compute node when the environment starts
 
     Reading input from espresso.pwi
Warning: card &CELL ignored
Warning: card    CELL_DYNAMICS    = 'BFGS' ignored
Warning: card / ignored

     Current dimensions of program PWSCF are:
     Max number of different atomic species (ntypx) = 10
     Max number of k-points (npk) =  40000
     Max angular momentum in pseudopotentials (lmaxx) =  4
     file Pb.pbe-dn-kjpaw_psl.1.0.0.UPF: wavefunction(s)  6S 6P 5D renormalized
     file I.pbe-dn-kjpaw_psl.1.0.0.UPF: wavefunction(s)  5S 5P renormalized

     **************************************************************************
     Initializing libbeef V0.1.2 with the BEEF-vdW functional.
     Citation: Wellendorff et al., PRB 85, 235149 (2012).
     **************************************************************************


     IMPORTANT: XC functional enforced from input :
     Exchange-correlation= BEEF-VDW
                           (   1   4  43  14   2   0   0)
     Any further DFT definition will be discarded
     Please, verify this is what you really want

 
     R & G space division:  proc/nbgrp/npool/nimage =     128
     Subspace diagonalization in iterative solution of the eigenvalue problem:
     a serial algorithm will be used

 
     Parallelization info
     --------------------
     sticks:   dense  smooth     PW     G-vecs:    dense   smooth      PW
     Min         238     190     47                26444    18918    2361
     Max         239     191     48                26451    18927    2368
     Sum       30577   24439   6121              3385235  2422379  302703
 
     Using Slab Decomposition
 


     bravais-lattice index     =            4
     lattice parameter (alat)  =      35.6073  a.u.
     unit-cell volume          =   30614.2220 (a.u.)^3
     number of atoms/cell      =           96
     number of atomic types    =            2
     number of electrons       =      1531.00
     number of Kohn-Sham states=          919
     kinetic-energy cutoff     =      70.0000  Ry
     charge density cutoff     =     350.0000  Ry
     scf convergence threshold =      1.0E-07
     mixing beta               =       0.7000
     number of iterations used =            8  plain     mixing
     Exchange-correlation= BEEF-VDW
                           (   1   4  43  14   2   0   0)

     celldm(1)=  35.607290  celldm(2)=   0.000000  celldm(3)=   0.783025
     celldm(4)=   0.000000  celldm(5)=   0.000000  celldm(6)=   0.000000

     crystal axes: (cart. coord. in units of alat)
               a(1) = (   1.000000   0.000000   0.000000 )  
               a(2) = (  -0.500000   0.866025   0.000000 )  
               a(3) = (   0.000000   0.000000   0.783025 )  

     reciprocal axes: (cart. coord. in units 2 pi/alat)
               b(1) = (  1.000000  0.577350 -0.000000 )  
               b(2) = (  0.000000  1.154701  0.000000 )  
               b(3) = (  0.000000 -0.000000  1.277098 )  


     PseudoPot. # 1 for Pb read from file:
     /trace/group/acmegroup/atimmins/packages/espresso/pseudo/psl_1.0.0/pslibrary.1.0.0/pbe/PSEUDOPOTENTIALS/Pb.pbe-dn-kjpaw_psl.1.0.0.UPF
     MD5 check sum: 39ab5b8a6bbd56b7735ad9f188aac93a
     Pseudo is Projector augmented-wave + core cor, Zval = 14.0
     Generated using 'atomic' code by A. Dal Corso  v.7.1
     Shape of augmentation charge: PSQ
     Using radial grid of 1281 points,  6 beta functions with: 
                l(1) =   0
                l(2) =   0
                l(3) =   1
                l(4) =   1
                l(5) =   2
                l(6) =   2
     Q(r) pseudized with 0 coefficients 


     PseudoPot. # 2 for I  read from file:
     /trace/group/acmegroup/atimmins/packages/espresso/pseudo/psl_1.0.0/pslibrary.1.0.0/pbe/PSEUDOPOTENTIALS/I.pbe-dn-kjpaw_psl.1.0.0.UPF
     MD5 check sum: bfa8781bc1224d19af3f3980e3fab11e
     Pseudo is Projector augmented-wave + core cor, Zval = 17.0
     Generated using 'atomic' code by A. Dal Corso  v.7.1
     Shape of augmentation charge: PSQ
     Using radial grid of 1247 points,  6 beta functions with: 
                l(1) =   0
                l(2) =   0
                l(3) =   1
                l(4) =   1
                l(5) =   2
                l(6) =   2
     Q(r) pseudized with 0 coefficients 


     atomic species   valence    mass     pseudopotential
        Pb            14.00   207.20000     Pb( 1.00)
        I             17.00   126.90447     I ( 1.00)

     No symmetry found


                                    s                        frac. trans.

      isym =  1     identity                                     

 cryst.   s( 1) = (     1          0          0      )
                  (     0          1          0      )
                  (     0          0          1      )

 cart.    s( 1) = (  1.0000000  0.0000000  0.0000000 )
                  (  0.0000000  1.0000000  0.0000000 )
                  (  0.0000000  0.0000000  1.0000000 )


     point group C_1 (1)    
     there are  1 classes
     the character table:

       E    
A      1.00

     the symmetry operations in each class and the name of the first element:

     E        1
          identity                                               

   Cartesian axes

     site n.     atom                  positions (alat units)
         1           Pb  tau(   1) = (   0.1250086   0.2164870   0.7830203  )
         2           Pb  tau(   2) = (   0.1250034   0.2164916   0.3915076  )
         3           Pb  tau(   3) = (   0.0000077   0.4329922   0.7830161  )
         4           Pb  tau(   4) = (   0.0000025   0.4329968   0.3915034  )
         5           Pb  tau(   5) = (  -0.1249932   0.6494975   0.7830119  )
         6           Pb  tau(   6) = (  -0.1249984   0.6495021   0.3914992  )
         7           Pb  tau(   7) = (  -0.2499941   0.8660028   0.7830077  )
         8           Pb  tau(   8) = (  -0.2499993   0.8660074   0.3914950  )
         9           Pb  tau(   9) = (   0.3750086   0.2164859   0.7830237  )
        10           Pb  tau(  10) = (   0.3750034   0.2164905   0.3915110  )
        11           Pb  tau(  11) = (   0.2500077   0.4329912   0.7830194  )
        12           Pb  tau(  12) = (   0.2500025   0.4329958   0.3915068  )
        13           Pb  tau(  13) = (   0.1250068   0.6494965   0.7830152  )
        14           Pb  tau(  14) = (   0.1250016   0.6495011   0.3915026  )
        15           Pb  tau(  15) = (   0.0000059   0.8660017   0.7830110  )
        16           Pb  tau(  16) = (   0.0000007   0.8660063   0.3914983  )
        17           Pb  tau(  17) = (   0.6250086   0.2164849   0.7830270  )
        18           Pb  tau(  18) = (   0.6250034   0.2164895   0.3915143  )
        19           Pb  tau(  19) = (   0.5000077   0.4329901   0.7830228  )
        20           Pb  tau(  20) = (   0.5000025   0.4329947   0.3915101  )
        21           Pb  tau(  21) = (   0.3750068   0.6494954   0.7830186  )
        22           Pb  tau(  22) = (   0.3750016   0.6495000   0.3915059  )
        23           Pb  tau(  23) = (   0.2500059   0.8660007   0.7830144  )
        24           Pb  tau(  24) = (   0.2500007   0.8660053   0.3915017  )
        25           Pb  tau(  25) = (   0.8750086   0.2164838   0.7830303  )
        26           Pb  tau(  26) = (   0.8750034   0.2164884   0.3915177  )
        27           Pb  tau(  27) = (   0.7500077   0.4329891   0.7830261  )
        28           Pb  tau(  28) = (   0.7500025   0.4329937   0.3915135  )
        29           Pb  tau(  29) = (   0.6250068   0.6494944   0.7830219  )
        30           Pb  tau(  30) = (   0.6250016   0.6494990   0.3915092  )
        31           Pb  tau(  31) = (   0.5000059   0.8659996   0.7830177  )
        32           Pb  tau(  32) = (   0.5000007   0.8660042   0.3915050  )
        33           I   tau(  33) = (   0.1250108   0.0721500   0.6824290  )
        34           I   tau(  34) = (   0.0000047   0.2886599   0.2909121  )
        35           I   tau(  35) = (   0.0000099   0.2886553   0.6824248  )
        36           I   tau(  36) = (  -0.1249962   0.5051652   0.2909079  )
        37           I   tau(  37) = (  -0.1249910   0.5051606   0.6824206  )
        38           I   tau(  38) = (  -0.2499972   0.7216704   0.2909037  )
        39           I   tau(  39) = (  -0.2499919   0.7216658   0.6824164  )
        40           I   tau(  40) = (   0.3750056   0.0721536   0.2909197  )
        41           I   tau(  41) = (   0.3750108   0.0721490   0.6824324  )
        42           I   tau(  42) = (   0.2500047   0.2886589   0.2909155  )
        43           I   tau(  43) = (   0.2500099   0.2886543   0.6824282  )
        44           I   tau(  44) = (   0.1250038   0.5051641   0.2909113  )
        45           I   tau(  45) = (   0.1250090   0.5051595   0.6824240  )
        46           I   tau(  46) = (   0.0000028   0.7216694   0.2909071  )
        47           I   tau(  47) = (   0.0000081   0.7216648   0.6824197  )
        48           I   tau(  48) = (   0.6250056   0.0721525   0.2909230  )
        49           I   tau(  49) = (   0.6250108   0.0721479   0.6824357  )
        50           I   tau(  50) = (   0.5000047   0.2886578   0.2909188  )
        51           I   tau(  51) = (   0.5000099   0.2886532   0.6824315  )
        52           I   tau(  52) = (   0.3750038   0.5051631   0.2909146  )
        53           I   tau(  53) = (   0.3750090   0.5051585   0.6824273  )
        54           I   tau(  54) = (   0.2500028   0.7216683   0.2909104  )
        55           I   tau(  55) = (   0.2500081   0.7216637   0.6824231  )
        56           I   tau(  56) = (   0.8750056   0.0721515   0.2909264  )
        57           I   tau(  57) = (   0.8750108   0.0721469   0.6824391  )
        58           I   tau(  58) = (   0.7500047   0.2886567   0.2909222  )
        59           I   tau(  59) = (   0.7500099   0.2886521   0.6824348  )
        60           I   tau(  60) = (   0.6250038   0.5051620   0.2909180  )
        61           I   tau(  61) = (   0.6250090   0.5051574   0.6824306  )
        62           I   tau(  62) = (   0.5000028   0.7216673   0.2909137  )
        63           I   tau(  63) = (   0.5000081   0.7216627   0.6824264  )
        64           I   tau(  64) = (  -0.0000018   0.1443297   0.1005933  )
        65           I   tau(  65) = (   0.0000034   0.1443251   0.4921060  )
        66           I   tau(  66) = (  -0.1250027   0.3608350   0.1005891  )
        67           I   tau(  67) = (  -0.1249975   0.3608304   0.4921018  )
        68           I   tau(  68) = (  -0.2500036   0.5773403   0.1005849  )
        69           I   tau(  69) = (  -0.2499984   0.5773357   0.4920975  )
        70           I   tau(  70) = (  -0.3750045   0.7938455   0.1005807  )
        71           I   tau(  71) = (  -0.3749993   0.7938409   0.4920933  )
        72           I   tau(  72) = (   0.2499982   0.1443287   0.1005966  )
        73           I   tau(  73) = (   0.2500034   0.1443241   0.4921093  )
        74           I   tau(  74) = (   0.1249973   0.3608340   0.1005924  )
        75           I   tau(  75) = (   0.1250025   0.3608294   0.4921051  )
        76           I   tau(  76) = (  -0.0000036   0.5773392   0.1005882  )
        77           I   tau(  77) = (   0.0000016   0.5773346   0.4921009  )
        78           I   tau(  78) = (  -0.1250045   0.7938445   0.1005840  )
        79           I   tau(  79) = (  -0.1249993   0.7938399   0.4920967  )
        80           I   tau(  80) = (   0.4999982   0.1443276   0.1006000  )
        81           I   tau(  81) = (   0.5000034   0.1443230   0.4921126  )
        82           I   tau(  82) = (   0.3749973   0.3608329   0.1005958  )
        83           I   tau(  83) = (   0.3750025   0.3608283   0.4921084  )
        84           I   tau(  84) = (   0.2499964   0.5773382   0.1005915  )
        85           I   tau(  85) = (   0.2500016   0.5773336   0.4921042  )
        86           I   tau(  86) = (   0.1249955   0.7938434   0.1005873  )
        87           I   tau(  87) = (   0.1250007   0.7938388   0.4921000  )
        88           I   tau(  88) = (   0.7499982   0.1443266   0.1006033  )
        89           I   tau(  89) = (   0.7500034   0.1443220   0.4921160  )
        90           I   tau(  90) = (   0.6249973   0.3608319   0.1005991  )
        91           I   tau(  91) = (   0.6250025   0.3608273   0.4921118  )
        92           I   tau(  92) = (   0.4999964   0.5773371   0.1005949  )
        93           I   tau(  93) = (   0.5000016   0.5773325   0.4921076  )
        94           I   tau(  94) = (   0.3749955   0.7938424   0.1005907  )
        95           I   tau(  95) = (   0.3750007   0.7938378   0.4921034  )
        96           Pb  tau(  96) = (   0.1250056   0.0721546   0.2909163  )

   Crystallographic axes

     site n.     atom                  positions (cryst. coord.)
         1           Pb  tau(   1) = (  0.2499975  0.2499776  0.9999935  )
         2           Pb  tau(   2) = (  0.2499949  0.2499829  0.4999935  )
         3           Pb  tau(   3) = (  0.2499959  0.4999764  0.9999882  )
         4           Pb  tau(   4) = (  0.2499933  0.4999817  0.4999882  )
         5           Pb  tau(   5) = (  0.2499944  0.7499751  0.9999828  )
         6           Pb  tau(   6) = (  0.2499918  0.7499804  0.4999828  )
         7           Pb  tau(   7) = (  0.2499928  0.9999739  0.9999774  )
         8           Pb  tau(   8) = (  0.2499903  0.9999792  0.4999774  )
         9           Pb  tau(   9) = (  0.4999968  0.2499764  0.9999978  )
        10           Pb  tau(  10) = (  0.4999943  0.2499817  0.4999978  )
        11           Pb  tau(  11) = (  0.4999953  0.4999752  0.9999924  )
        12           Pb  tau(  12) = (  0.4999927  0.4999805  0.4999924  )
        13           Pb  tau(  13) = (  0.4999938  0.7499739  0.9999871  )
        14           Pb  tau(  14) = (  0.4999912  0.7499792  0.4999871  )
        15           Pb  tau(  15) = (  0.4999922  0.9999727  0.9999817  )
        16           Pb  tau(  16) = (  0.4999896  0.9999780  0.4999817  )
        17           Pb  tau(  17) = (  0.7499962  0.2499752  1.0000021  )
        18           Pb  tau(  18) = (  0.7499936  0.2499805  0.5000021  )
        19           Pb  tau(  19) = (  0.7499947  0.4999739  0.9999967  )
        20           Pb  tau(  20) = (  0.7499921  0.4999793  0.4999967  )
        21           Pb  tau(  21) = (  0.7499932  0.7499727  0.9999913  )
        22           Pb  tau(  22) = (  0.7499906  0.7499780  0.4999913  )
        23           Pb  tau(  23) = (  0.7499916  0.9999714  0.9999860  )
        24           Pb  tau(  24) = (  0.7499890  0.9999767  0.4999860  )
        25           Pb  tau(  25) = (  0.9999956  0.2499740  1.0000064  )
        26           Pb  tau(  26) = (  0.9999930  0.2499793  0.5000064  )
        27           Pb  tau(  27) = (  0.9999941  0.4999727  1.0000010  )
        28           Pb  tau(  28) = (  0.9999915  0.4999780  0.5000010  )
        29           Pb  tau(  29) = (  0.9999926  0.7499715  0.9999956  )
        30           Pb  tau(  30) = (  0.9999900  0.7499768  0.4999956  )
        31           Pb  tau(  31) = (  0.9999910  0.9999702  0.9999902  )
        32           Pb  tau(  32) = (  0.9999884  0.9999755  0.4999902  )
        33           I   tau(  33) = (  0.1666667  0.0833117  0.8715286  )
        34           I   tau(  34) = (  0.1666625  0.3333157  0.3715233  )
        35           I   tau(  35) = (  0.1666651  0.3333104  0.8715233  )
        36           I   tau(  36) = (  0.1666610  0.5833145  0.3715179  )
        37           I   tau(  37) = (  0.1666636  0.5833092  0.8715179  )
        38           I   tau(  38) = (  0.1666595  0.8333132  0.3715125  )
        39           I   tau(  39) = (  0.1666621  0.8333079  0.8715125  )
        40           I   tau(  40) = (  0.4166635  0.0833158  0.3715329  )
        41           I   tau(  41) = (  0.4166661  0.0833105  0.8715329  )
        42           I   tau(  42) = (  0.4166619  0.3333145  0.3715275  )
        43           I   tau(  43) = (  0.4166645  0.3333092  0.8715275  )
        44           I   tau(  44) = (  0.4166604  0.5833133  0.3715222  )
        45           I   tau(  45) = (  0.4166630  0.5833080  0.8715221  )
        46           I   tau(  46) = (  0.4166589  0.8333120  0.3715168  )
        47           I   tau(  47) = (  0.4166614  0.8333067  0.8715168  )
        48           I   tau(  48) = (  0.6666629  0.0833146  0.3715372  )
        49           I   tau(  49) = (  0.6666655  0.0833093  0.8715372  )
        50           I   tau(  50) = (  0.6666613  0.3333133  0.3715318  )
        51           I   tau(  51) = (  0.6666639  0.3333080  0.8715318  )
        52           I   tau(  52) = (  0.6666598  0.5833121  0.3715264  )
        53           I   tau(  53) = (  0.6666624  0.5833068  0.8715264  )
        54           I   tau(  54) = (  0.6666582  0.8333108  0.3715210  )
        55           I   tau(  55) = (  0.6666608  0.8333055  0.8715210  )
        56           I   tau(  56) = (  0.9166623  0.0833134  0.3715414  )
        57           I   tau(  57) = (  0.9166648  0.0833080  0.8715414  )
        58           I   tau(  58) = (  0.9166607  0.3333121  0.3715361  )
        59           I   tau(  59) = (  0.9166633  0.3333068  0.8715361  )
        60           I   tau(  60) = (  0.9166592  0.5833108  0.3715307  )
        61           I   tau(  61) = (  0.9166618  0.5833055  0.8715307  )
        62           I   tau(  62) = (  0.9166576  0.8333096  0.3715253  )
        63           I   tau(  63) = (  0.9166602  0.8333043  0.8715253  )
        64           I   tau(  64) = (  0.0833270  0.1666576  0.1284675  )
        65           I   tau(  65) = (  0.0833296  0.1666523  0.6284675  )
        66           I   tau(  66) = (  0.0833255  0.4166564  0.1284621  )
        67           I   tau(  67) = (  0.0833281  0.4166511  0.6284621  )
        68           I   tau(  68) = (  0.0833239  0.6666551  0.1284567  )
        69           I   tau(  69) = (  0.0833265  0.6666498  0.6284567  )
        70           I   tau(  70) = (  0.0833224  0.9166539  0.1284513  )
        71           I   tau(  71) = (  0.0833250  0.9166486  0.6284513  )
        72           I   tau(  72) = (  0.3333264  0.1666564  0.1284717  )
        73           I   tau(  73) = (  0.3333290  0.1666511  0.6284717  )
        74           I   tau(  74) = (  0.3333249  0.4166552  0.1284664  )
        75           I   tau(  75) = (  0.3333275  0.4166499  0.6284663  )
        76           I   tau(  76) = (  0.3333233  0.6666539  0.1284610  )
        77           I   tau(  77) = (  0.3333259  0.6666486  0.6284610  )
        78           I   tau(  78) = (  0.3333218  0.9166527  0.1284556  )
        79           I   tau(  79) = (  0.3333244  0.9166473  0.6284556  )
        80           I   tau(  80) = (  0.5833258  0.1666552  0.1284760  )
        81           I   tau(  81) = (  0.5833284  0.1666499  0.6284760  )
        82           I   tau(  82) = (  0.5833243  0.4166539  0.1284706  )
        83           I   tau(  83) = (  0.5833269  0.4166486  0.6284706  )
        84           I   tau(  84) = (  0.5833227  0.6666527  0.1284652  )
        85           I   tau(  85) = (  0.5833253  0.6666474  0.6284652  )
        86           I   tau(  86) = (  0.5833212  0.9166514  0.1284599  )
        87           I   tau(  87) = (  0.5833238  0.9166461  0.6284599  )
        88           I   tau(  88) = (  0.8333252  0.1666540  0.1284803  )
        89           I   tau(  89) = (  0.8333278  0.1666487  0.6284803  )
        90           I   tau(  90) = (  0.8333237  0.4166527  0.1284749  )
        91           I   tau(  91) = (  0.8333262  0.4166474  0.6284749  )
        92           I   tau(  92) = (  0.8333221  0.6666515  0.1284695  )
        93           I   tau(  93) = (  0.8333247  0.6666462  0.6284695  )
        94           I   tau(  94) = (  0.8333206  0.9166502  0.1284641  )
        95           I   tau(  95) = (  0.8333232  0.9166449  0.6284641  )
        96           Pb  tau(  96) = (  0.1666641  0.0833170  0.3715286  )

     number of k points=     1  Gaussian smearing, width (Ry)=  0.0100
                       cart. coord. in units 2pi/alat
        k(    1) = (   0.0000000   0.0000000   0.0000000), wk =   2.0000000

                       cryst. coord.
        k(    1) = (   0.0000000   0.0000000   0.0000000), wk =   2.0000000

     Dense  grid:  3385235 G-vectors     FFT dimensions: ( 216, 216, 180)

     Smooth grid:  2422379 G-vectors     FFT dimensions: ( 192, 192, 150)

     Dynamical RAM for                 wfc:      33.16 MB

     Dynamical RAM for     wfc (w. buffer):      33.16 MB

     Dynamical RAM for           str. fact:       0.81 MB

     Dynamical RAM for           local pot:       0.00 MB

     Dynamical RAM for          nlocal pot:      62.36 MB

     Dynamical RAM for                qrad:       3.00 MB

     Dynamical RAM for          rho,v,vnew:       3.35 MB

     Dynamical RAM for               rhoin:       1.12 MB

     Dynamical RAM for            rho*nmix:       6.46 MB

     Dynamical RAM for           G-vectors:       1.66 MB

     Dynamical RAM for          h,s,v(r/c):     618.57 MB

     Dynamical RAM for          <psi|beta>:      24.23 MB

     Dynamical RAM for                 psi:     132.66 MB

     Dynamical RAM for                hpsi:     132.66 MB

     Dynamical RAM for                spsi:     132.66 MB

     Dynamical RAM for      wfcinit/wfcrot:      85.67 MB

     Dynamical RAM for           addusdens:     100.50 MB

     Dynamical RAM for          addusforce:     150.99 MB

     Dynamical RAM for         addusstress:      81.13 MB

     Estimated static dynamical RAM per process >     110.22 MB

     Estimated max dynamical RAM per process >       1.13 GB

     Estimated total dynamical RAM >     144.68 GB

     Atomic positions and unit cell read from directory:
     ./PbI2.save/
     Atomic positions from file used, from input discarded
 

     Check: negative core charge=   -0.000001

     The initial density is read from file :
     ./PbI2.save/charge-density



     %%%%%%%%%%%%%%%%%%%%%%%%%%%%%%%%%%%%%%%%%%%%%%%%%%%%%%%%%%%%%%%%%%%%%%%%
     %                                                                      %
     % You are using vdW-DF, which was implemented by the Thonhauser group. %
     % Please cite the following two papers that made this development      %
     % possible and the two reviews that describe the various versions:     %
     %                                                                      %
     %   T. Thonhauser et al., PRL 115, 136402 (2015).                      %
     %   T. Thonhauser et al., PRB 76, 125112 (2007).                       %
     %   K. Berland et al., Rep. Prog. Phys. 78, 066501 (2015).             %
     %   D.C. Langreth et al., J. Phys.: Condens. Matter 21, 084203 (2009). %
     %                                                                      %
     % If you are calculating stress with vdW-DF, please also cite:         %
     %                                                                      %
     %   R. Sabatini et al., J. Phys.: Condens. Matter 24, 424209 (2012).   %
     %                                                                      %
     %%%%%%%%%%%%%%%%%%%%%%%%%%%%%%%%%%%%%%%%%%%%%%%%%%%%%%%%%%%%%%%%%%%%%%%%

     %%%%%%%%%%%%%%%%%%%%%%%%%%%%%%%%%%%%%%%%%%%%%%%%%%%%%%%%%%%%%%%%%%%%%%%%
     %                                                                      %
     %  vdW-DF NEWS:                                                        %
     %                                                                      %
     %  * vdW-DF3 is now available. DOI: 10.1021/acs.jctc.0c00471           %
     %    use with input_dft = 'vdW-DF3-opt1' or 'vdW-DF3-opt2'             %
     %                                                                      %
     %  * Unscreened and range-separated vdW-DF hybrid functionals          %
     %    DOI: 10.1063/1.4986522 and 10.1088/1361-648X/ac2ad2               %
     %    use with input_dft = 'vdW-DF-cx0' (etc) and 'vdW-DF-ahcx'         %
     %                                                                      %
     %%%%%%%%%%%%%%%%%%%%%%%%%%%%%%%%%%%%%%%%%%%%%%%%%%%%%%%%%%%%%%%%%%%%%%%%


     Carrying out vdW-DF run using the following parameters:
     Nqs    =  20  Npoints =  1024  r_max =  100.000
     q_mesh =  0.00001000  0.04494208  0.09755937  0.15916263
               0.23128650  0.31572767  0.41458969  0.53033537
               0.66584808  0.82450364  1.01025438  1.22772762
               1.48234092  1.78043706  2.12944203  2.53805004
               3.01644009  3.57652955  4.23227104  5.00000000


     -----------------------------------------------
     Non-local corr. energy    =      45.71849084 Ry
     -----------------------------------------------

     Starting wfcs from file
     Checking if some PAW data can be deallocated... 
       PAW data deallocated on   63 nodes for type:  1
       PAW data deallocated on   65 nodes for type:  2

     total cpu time spent up to now is       20.5 secs

     Self-consistent Calculation

     iteration #  1     ecut=    70.00 Ry     beta= 0.70
     Davidson diagonalization with overlap

---- Real-time Memory Report at c_bands before calling an iterative solver
           374 MiB given to the printing process from OS
             0 MiB allocation reported by mallinfo(arena+hblkhd)
       1526382 MiB available memory on the node where the printing process lives
------------------
     ethr =  1.00E-05,  avg # of iterations =  1.0

     Threshold (ethr) on eigenvalues was too large:
     Diagonalizing with lowered threshold

     Davidson diagonalization with overlap

---- Real-time Memory Report at c_bands before calling an iterative solver
           956 MiB given to the printing process from OS
             0 MiB allocation reported by mallinfo(arena+hblkhd)
       1508035 MiB available memory on the node where the printing process lives
------------------
     ethr =  3.03E-13,  avg # of iterations = 19.0


     -----------------------------------------------
     Non-local corr. energy    =      45.71849183 Ry
     -----------------------------------------------


     total cpu time spent up to now is      237.6 secs

     End of self-consistent calculation

          k = 0.0000 0.0000 0.0000 (302703 PWs)   bands (ev):

   -41.2602 -41.2602 -41.2601 -41.2343 -41.2343 -41.2342 -41.2340 -41.2340
   -41.2339 -41.1606 -41.1605 -41.1605 -41.1602 -41.1602 -41.1601 -40.9597
   -40.9597 -40.9596 -40.9471 -40.9471 -40.9470 -40.9462 -40.9462 -40.9462
   -40.9104 -40.9104 -40.9104 -40.9099 -40.9099 -40.9098 -40.9000 -40.9000
   -40.8999 -40.8999 -40.8999 -40.8999 -40.8920 -40.8919 -40.8919 -40.8919
   -40.8919 -40.8919 -40.8893 -40.8892 -40.8892 -40.8892 -40.8892 -40.8892
   -40.8655 -40.8655 -40.8654 -40.8654 -40.8654 -40.8654 -40.8650 -40.8649
   -40.8649 -40.8649 -40.8649 -40.8649 -40.8360 -40.8360 -40.8360 -40.8250
   -40.8250 -40.8250 -40.8250 -40.8250 -40.8249 -40.8246 -40.8246 -40.8246
   -40.8246 -40.8245 -40.8245 -40.8238 -40.8238 -40.8238 -40.8218 -40.8218
   -40.8217 -40.8160 -40.8160 -40.8160 -40.8160 -40.8160 -40.8160 -40.8119
   -40.8118 -40.8118 -40.8118 -40.8118 -40.8118 -40.8106 -40.8106 -40.8106
   -40.8106 -40.8106 -40.8105 -40.7940 -40.7940 -40.7940 -40.7935 -40.7935
   -40.7935 -40.7893 -40.7893 -40.7893 -40.7881 -40.7881 -40.7880 -40.7876
   -40.7876 -40.7876 -40.7847 -40.7847 -40.7846 -40.7841 -40.7841 -40.7841
   -40.7779 -40.7779 -40.7730 -40.7730 -40.7730 -40.7728 -40.7728 -40.7728
   -40.7706 -40.7706 -40.7706 -40.7694 -40.7694 -40.7693 -40.7691 -40.7690
   -40.7690 -40.7649 -40.7649 -40.7615 -40.7615 -40.7615 -40.7602 -40.7601
   -40.7600 -40.7600 -40.7587 -40.7587 -40.7587 -40.7546 -40.7546 -40.7546
   -40.7540 -40.7540 -40.7540 -40.7470 -40.7470 -40.7470 -40.7468 -40.7468
   -40.7468 -40.7457 -40.7456 -40.7456 -40.7445 -40.7444 -40.7444 -40.7440
   -40.7440 -40.7440 -40.7338 -40.7338 -40.7290 -40.7290 -40.7271 -40.7150
   -40.7150 -40.7150 -40.7141 -40.7141 -40.7141 -40.7057 -40.7057 -40.7057
   -40.7035 -40.7034 -40.7034 -40.7018 -40.7018 -40.7018 -40.6787 -40.6787
   -40.6787 -40.6782 -40.6782 -40.6782 -40.6727 -40.6727 -40.6727 -40.6720
   -40.6719 -40.6719 -40.6709 -40.6709 -40.6709 -40.6573 -40.6573 -40.6573
   -40.6573 -40.6573 -40.6573 -40.6563 -40.6563 -40.6563 -40.6563 -40.6563
   -40.6563 -40.6550 -40.6549 -40.6549 -40.6549 -40.6549 -40.6549 -40.6542
   -40.6542 -40.6541 -40.6540 -40.6540 -40.6540 -40.6506 -40.6506 -40.6506
   -40.6500 -40.6499 -40.6499 -40.6499 -40.6499 -40.6499 -40.6494 -40.6494
   -40.6494 -40.6494 -40.6494 -40.6493 -40.6474 -40.6474 -40.6474 -40.6471
   -40.6471 -40.6471 -40.6455 -40.6455 -40.6454 -40.6431 -40.6431 -40.6382
   -40.6382 -40.6382 -40.6380 -40.6380 -40.6380 -40.6373 -40.6373 -40.6373
   -40.6369 -40.6369 -40.6369 -40.6365 -40.6365 -40.6365 -40.6326 -40.6326
   -40.6326 -40.6313 -40.6313 -40.6313 -40.6310 -40.6310 -40.6310 -40.6310
   -40.6310 -40.6310 -40.6307 -40.6307 -40.6307 -40.6304 -40.6304 -40.6304
   -40.6303 -40.6303 -40.6303 -40.6296 -40.6296 -40.6296 -40.6296 -40.6296
   -40.6296 -40.6293 -40.6293 -40.6293 -40.6293 -40.6293 -40.6292 -40.6291
   -40.6291 -40.6291 -40.6286 -40.6286 -40.6286 -40.6286 -40.6286 -40.6286
   -40.6283 -40.6283 -40.6283 -13.4992 -13.4992 -13.4179 -13.4179 -13.3751
   -13.0601 -13.0601 -13.0584 -13.0452 -13.0452 -13.0447 -13.0375 -13.0375
   -13.0356 -13.0342 -13.0342 -13.0339 -13.0330 -13.0329 -13.0325 -13.0303
   -13.0266 -13.0264 -13.0263 -13.0209 -13.0209 -13.0207 -13.0206 -13.0206
   -13.0152 -13.0131 -13.0131 -13.0110 -13.0109 -13.0093 -12.9462 -12.9462
   -12.9419 -12.9403 -12.9316 -12.9316 -12.9300 -12.9289 -12.9289 -12.9242
   -12.9232 -12.9231 -12.9211 -12.9211 -12.9193 -12.9193 -12.9187 -12.9176
   -12.9139 -12.9114 -12.9114 -12.9074 -12.9074 -12.9056 -12.9049 -12.9049
   -12.9014 -12.9014 -12.9001 -12.8995 -12.8988 -12.8987 -12.8976 -12.8976
   -12.8973 -12.8961 -12.8960 -12.8960 -12.8953 -12.8942 -12.8942 -12.8924
   -12.8924 -12.8920 -12.8906 -12.8905 -12.8905 -12.8894 -12.8894 -12.8890
   -12.8815 -12.8780 -12.8779 -12.8728 -12.8728 -12.8642 -12.8632 -12.8607
   -12.8607 -12.8575 -12.8575 -12.8553 -12.8542 -12.8526 -12.8526 -12.8250
   -12.8215 -12.8215 -12.8174 -12.8173 -12.8159 -12.8126 -12.8126 -12.8102
   -12.8086 -12.8086 -12.8076 -12.8048 -12.8042 -12.8042 -12.8027 -12.8023
   -12.8023 -12.7993 -12.7993 -12.7990 -12.7986 -12.7986 -12.7976 -12.7971
   -12.7956 -12.7956 -12.7953 -12.7952 -12.7935 -12.7871 -12.7871 -12.7866
   -12.7812 -12.7808 -12.7808 -12.7802 -12.7749 -12.7749 -12.7733 -12.7733
   -12.7725 -12.7724 -12.7690 -12.7685 -12.7683 -12.7683 -12.7676 -12.7676
   -12.7672 -12.7661 -12.7653 -12.7653 -12.7649 -12.7634 -12.7634 -12.7633
   -12.7610 -12.7610 -12.7606 -12.7606 -12.7591 -12.7584 -12.7574 -12.7574
    -8.2796  -8.0782  -8.0419  -8.0419  -7.9448  -7.9172  -7.9172  -7.9126
    -7.8900  -7.8900  -7.8341  -7.7928  -7.7928  -7.7393  -7.7379  -7.7379
    -7.7201  -7.7031  -7.7031  -7.6902  -7.6856  -7.6611  -7.6611  -7.6418
    -7.6418  -7.6007  -7.5999  -7.5999  -7.5970  -7.5711  -7.5711  -7.5663
    -7.5515  -7.5511  -7.5511  -7.5324  -7.5186  -7.5185  -7.5148  -7.5069
    -7.5057  -7.5057  -7.4968  -7.4968  -7.4953  -7.4853  -7.4737  -7.4737
    -7.4694  -7.4390  -7.4390  -7.4275  -7.4136  -7.4136  -7.4005  -7.3922
    -7.3922  -7.3687  -7.3687  -7.3674  -7.3550  -7.3550  -7.3539  -4.0310
    -3.7140  -3.7094  -3.7093  -3.6806  -3.6806  -3.6274  -3.6274  -3.6145
    -3.6108  -3.5518  -3.5354  -3.5354  -3.4994  -3.4922  -3.4894  -3.4893
    -3.4777  -3.4777  -3.4440  -3.4227  -3.4227  -3.3708  -3.3566  -3.3566
    -3.3210  -3.2382  -3.2382  -3.2240  -3.2240  -3.2158  -3.1785  -3.0178
     0.8050   0.8050   0.8606   1.0978   1.0978   1.1831   1.1833   1.1833
     1.2027   1.2160   1.2213   1.2213   1.2359   1.2359   1.3333   1.3749
     1.3888   1.3888   1.4291   1.4291   1.4390   1.4482   1.4754   1.4754
     1.4791   1.4791   1.4841   1.5499   1.5499   1.5580   1.5658   1.5659
     1.5735   1.5886   1.5886   1.5919   1.6669   1.6669   1.6808   1.7095
     1.7096   1.7251   1.7251   1.7256   1.7529   1.7529   1.8019   1.8019
     1.8087   1.8386   1.8425   1.8897   1.8897   1.8969   1.9751   2.0300
     2.0300   2.0652   2.0652   2.0819   2.0839   2.0839   2.0973   2.1024
     2.1024   2.1025   2.1151   2.1258   2.1258   2.1830   2.1830   2.1939
     2.1941   2.1942   2.2100   2.2341   2.2342   2.2407   2.2549   2.2550
     2.2552   2.2557   2.3012   2.3355   2.3442   2.3442   2.3561   2.3562
     2.3625   2.3625   2.3802   2.3840   2.3840   2.3996   2.4017   2.4017
     2.4159   2.4681   2.4764   2.4765   2.5294   2.5294   2.5332   2.5486
     2.5486   2.6038   2.6044   2.6045   2.6224   2.6224   2.6477   2.6593
     2.6798   2.6798   2.6949   2.7419   2.7469   2.7469   2.7634   2.7807
     2.7807   2.7998   2.7998   2.8372   2.8466   2.8466   2.8585   2.8585
     2.8741   2.8759   2.8759   2.8911   2.8956   2.8956   2.9026   2.9193
     2.9193   2.9580   2.9580   2.9711   2.9711   2.9824   2.9827   3.0111
     3.0238   3.0238   3.0334   3.0365   3.0366   3.0474   3.0529   3.0529
     3.0579   3.0710   3.0710   3.0737   3.0737   3.0819   3.0853   3.0853
     3.0982   3.1367   3.1367   3.1788   3.1788   3.2069   3.2265   3.2267
     3.2349   3.2366   3.2366   3.2569   3.2569   3.2721   3.2721   3.2724
     3.3499   3.3499   3.3863   3.4076   3.4076   3.4214   3.4510   3.4510
     3.4679   3.4704   3.4707   3.4707   3.5009   5.1733   5.8112   5.8112
     5.9452   6.2565   6.3198   6.4909   6.4909   6.5279   6.5280   6.5370
     6.5989   6.5989   6.6048   6.7429   6.7430   6.7430   6.7657   6.7657
     6.7941   6.7946   6.7947   6.8656   6.8727   6.8727   6.9508   6.9508
     6.9657   6.9925   6.9926   7.0014   7.0024   7.0024   7.0798   7.0798
     7.1477   7.1477   7.1531   7.1649   7.1724   7.2072   7.2072   7.2429
     7.2474   7.2726   7.2726   7.2791   7.2793   7.2793   7.3125   7.3126
     7.3167   7.3323   7.3324   7.3457   7.3514   7.3579   7.3579   7.3726
     7.3736   7.3736   7.4134   7.4134   7.4585   7.4592   7.4593   7.4727
     7.4920   7.4920   7.5080   7.5090   7.5090   7.5217   7.5217   7.5243
     7.5307   7.5485   7.5485   7.5579   7.5580   7.5686   7.5972   7.5972
     7.6275   7.6276   7.6370   7.6465   7.6509   7.6509   7.6688   7.7527
     7.7527   7.7861   7.8100   7.8143   7.8143   8.0866   8.0887   8.0887
     9.2273   9.2273   9.2485   9.7821   9.7983   9.7983   9.8554   9.8734
     9.8734   9.8906   9.9153   9.9153   9.9173  10.0497  10.0887  10.0887
    10.0960  10.0960  10.0975  10.1188  10.1223  10.1265  10.1265  10.1835
    10.1835  10.3370  10.3891  10.3946  10.3947  10.4264  10.4264  10.5038
    10.5079  10.5079  10.5452  10.5523  10.5524  10.5634  10.8340  10.8363
    10.8364  10.8496  10.8556  10.8557  10.9052  10.9544  10.9545  11.0228
    11.0228  11.0319  11.1331  11.1331  11.1495  11.2055  11.2055

     occupation numbers 
     1.0000   1.0000   1.0000   1.0000   1.0000   1.0000   1.0000   1.0000
     1.0000   1.0000   1.0000   1.0000   1.0000   1.0000   1.0000   1.0000
     1.0000   1.0000   1.0000   1.0000   1.0000   1.0000   1.0000   1.0000
     1.0000   1.0000   1.0000   1.0000   1.0000   1.0000   1.0000   1.0000
     1.0000   1.0000   1.0000   1.0000   1.0000   1.0000   1.0000   1.0000
     1.0000   1.0000   1.0000   1.0000   1.0000   1.0000   1.0000   1.0000
     1.0000   1.0000   1.0000   1.0000   1.0000   1.0000   1.0000   1.0000
     1.0000   1.0000   1.0000   1.0000   1.0000   1.0000   1.0000   1.0000
     1.0000   1.0000   1.0000   1.0000   1.0000   1.0000   1.0000   1.0000
     1.0000   1.0000   1.0000   1.0000   1.0000   1.0000   1.0000   1.0000
     1.0000   1.0000   1.0000   1.0000   1.0000   1.0000   1.0000   1.0000
     1.0000   1.0000   1.0000   1.0000   1.0000   1.0000   1.0000   1.0000
     1.0000   1.0000   1.0000   1.0000   1.0000   1.0000   1.0000   1.0000
     1.0000   1.0000   1.0000   1.0000   1.0000   1.0000   1.0000   1.0000
     1.0000   1.0000   1.0000   1.0000   1.0000   1.0000   1.0000   1.0000
     1.0000   1.0000   1.0000   1.0000   1.0000   1.0000   1.0000   1.0000
     1.0000   1.0000   1.0000   1.0000   1.0000   1.0000   1.0000   1.0000
     1.0000   1.0000   1.0000   1.0000   1.0000   1.0000   1.0000   1.0000
     1.0000   1.0000   1.0000   1.0000   1.0000   1.0000   1.0000   1.0000
     1.0000   1.0000   1.0000   1.0000   1.0000   1.0000   1.0000   1.0000
     1.0000   1.0000   1.0000   1.0000   1.0000   1.0000   1.0000   1.0000
     1.0000   1.0000   1.0000   1.0000   1.0000   1.0000   1.0000   1.0000
     1.0000   1.0000   1.0000   1.0000   1.0000   1.0000   1.0000   1.0000
     1.0000   1.0000   1.0000   1.0000   1.0000   1.0000   1.0000   1.0000
     1.0000   1.0000   1.0000   1.0000   1.0000   1.0000   1.0000   1.0000
     1.0000   1.0000   1.0000   1.0000   1.0000   1.0000   1.0000   1.0000
     1.0000   1.0000   1.0000   1.0000   1.0000   1.0000   1.0000   1.0000
     1.0000   1.0000   1.0000   1.0000   1.0000   1.0000   1.0000   1.0000
     1.0000   1.0000   1.0000   1.0000   1.0000   1.0000   1.0000   1.0000
     1.0000   1.0000   1.0000   1.0000   1.0000   1.0000   1.0000   1.0000
     1.0000   1.0000   1.0000   1.0000   1.0000   1.0000   1.0000   1.0000
     1.0000   1.0000   1.0000   1.0000   1.0000   1.0000   1.0000   1.0000
     1.0000   1.0000   1.0000   1.0000   1.0000   1.0000   1.0000   1.0000
     1.0000   1.0000   1.0000   1.0000   1.0000   1.0000   1.0000   1.0000
     1.0000   1.0000   1.0000   1.0000   1.0000   1.0000   1.0000   1.0000
     1.0000   1.0000   1.0000   1.0000   1.0000   1.0000   1.0000   1.0000
     1.0000   1.0000   1.0000   1.0000   1.0000   1.0000   1.0000   1.0000
     1.0000   1.0000   1.0000   1.0000   1.0000   1.0000   1.0000   1.0000
     1.0000   1.0000   1.0000   1.0000   1.0000   1.0000   1.0000   1.0000
     1.0000   1.0000   1.0000   1.0000   1.0000   1.0000   1.0000   1.0000
     1.0000   1.0000   1.0000   1.0000   1.0000   1.0000   1.0000   1.0000
     1.0000   1.0000   1.0000   1.0000   1.0000   1.0000   1.0000   1.0000
     1.0000   1.0000   1.0000   1.0000   1.0000   1.0000   1.0000   1.0000
     1.0000   1.0000   1.0000   1.0000   1.0000   1.0000   1.0000   1.0000
     1.0000   1.0000   1.0000   1.0000   1.0000   1.0000   1.0000   1.0000
     1.0000   1.0000   1.0000   1.0000   1.0000   1.0000   1.0000   1.0000
     1.0000   1.0000   1.0000   1.0000   1.0000   1.0000   1.0000   1.0000
     1.0000   1.0000   1.0000   1.0000   1.0000   1.0000   1.0000   1.0000
     1.0000   1.0000   1.0000   1.0000   1.0000   1.0000   1.0000   1.0000
     1.0000   1.0000   1.0000   1.0000   1.0000   1.0000   1.0000   1.0000
     1.0000   1.0000   1.0000   1.0000   1.0000   1.0000   1.0000   1.0000
     1.0000   1.0000   1.0000   1.0000   1.0000   1.0000   1.0000   1.0000
     1.0000   1.0000   1.0000   1.0000   1.0000   1.0000   1.0000   1.0000
     1.0000   1.0000   1.0000   1.0000   1.0000   1.0000   1.0000   1.0000
     1.0000   1.0000   1.0000   1.0000   1.0000   1.0000   1.0000   1.0000
     1.0000   1.0000   1.0000   1.0000   1.0000   1.0000   1.0000   1.0000
     1.0000   1.0000   1.0000   1.0000   1.0000   1.0000   1.0000   1.0000
     1.0000   1.0000   1.0000   1.0000   1.0000   1.0000   1.0000   1.0000
     1.0000   1.0000   1.0000   1.0000   1.0000   1.0000   1.0000   1.0000
     1.0000   1.0000   1.0000   1.0000   1.0000   1.0000   1.0000   1.0000
     1.0000   1.0000   1.0000   1.0000   1.0000   1.0000   1.0000   1.0000
     1.0000   1.0000   1.0000   1.0000   1.0000   1.0000   1.0000   1.0000
     1.0000   1.0000   1.0000   1.0000   1.0000   1.0000   1.0000   1.0000
     1.0000   1.0000   1.0000   1.0000   1.0000   1.0000   1.0000   1.0000
     1.0000   1.0000   1.0000   1.0000   1.0000   1.0000   1.0000   1.0000
     1.0000   1.0000   1.0000   1.0000   1.0000   1.0000   1.0000   1.0000
     1.0000   1.0000   1.0000   1.0000   1.0000   1.0000   1.0000   1.0000
     1.0000   1.0000   1.0000   1.0000   1.0000   1.0000   1.0000   1.0000
     1.0000   1.0000   1.0000   1.0000   1.0000   1.0000   1.0000   1.0000
     1.0000   1.0000   1.0000   1.0000   1.0000   1.0000   1.0000   1.0000
     1.0000   1.0000   1.0000   1.0000   1.0000   1.0000   1.0000   1.0000
     1.0000   1.0000   1.0000   1.0000   1.0000   1.0000   1.0000   1.0000
     1.0000   1.0000   1.0000   1.0000   1.0000   1.0000   1.0000   1.0000
     1.0000   1.0000   1.0000   1.0000   1.0000   1.0000   1.0000   1.0000
     1.0000   1.0000   1.0000   1.0000   1.0000   1.0000   1.0000   1.0000
     1.0000   1.0000   1.0000   1.0000   1.0000   1.0000   1.0000   1.0000
     1.0000   1.0000   1.0000   1.0000   1.0000   1.0000   1.0000   1.0000
     1.0000   1.0000   1.0000   1.0000   1.0000   1.0000   1.0000   1.0000
     1.0000   1.0000   1.0000   1.0000   1.0000   1.0000   1.0000   1.0000
     1.0000   1.0000   1.0000   1.0000   1.0000   1.0000   1.0000   1.0000
     1.0000   1.0000   1.0000   1.0000   1.0000   1.0000   1.0000   1.0000
     1.0000   1.0000   1.0000   1.0000   1.0000   1.0000   1.0000   1.0000
     1.0000   1.0000   1.0000   1.0000   1.0000   1.0000   1.0000   1.0000
     1.0000   1.0000   1.0000   1.0000   1.0000   1.0000   1.0000   1.0000
     1.0000   1.0000   1.0000   1.0000   1.0000   1.0000   1.0000   1.0000
     1.0000   1.0000   1.0000   1.0000   1.0000   1.0000   1.0000   1.0000
     1.0000   1.0000   1.0000   1.0000   1.0000   1.0000   1.0000   1.0000
     1.0000   1.0000   1.0000   1.0000   1.0000   1.0000   1.0000   1.0000
     1.0000   1.0000   1.0000   1.0000   1.0000   1.0000   1.0000   1.0000
     1.0000   1.0000   1.0000   1.0000   1.0000   1.0000   1.0000   1.0000
     1.0000   1.0000   1.0000   1.0000   1.0000   1.0000   1.0000   1.0000
     1.0000   1.0000   1.0000   1.0000   1.0000   1.0000   1.0000   1.0000
     1.0000   1.0000   1.0000   1.0000   1.0000   1.0000   1.0000   1.0000
     1.0000   1.0000   1.0000   1.0000   1.0000   1.0000   1.0000   1.0000
     1.0000   1.0000   1.0000   1.0000   1.0000   1.0000   1.0000   1.0000
     1.0000   1.0000   1.0000   1.0000   1.0000   0.5000   0.0000   0.0000
     0.0000   0.0000   0.0000   0.0000   0.0000   0.0000   0.0000   0.0000
     0.0000   0.0000   0.0000   0.0000   0.0000   0.0000   0.0000   0.0000
     0.0000   0.0000   0.0000   0.0000   0.0000   0.0000   0.0000   0.0000
     0.0000   0.0000   0.0000   0.0000   0.0000   0.0000   0.0000   0.0000
     0.0000   0.0000   0.0000   0.0000   0.0000   0.0000   0.0000   0.0000
     0.0000   0.0000   0.0000   0.0000   0.0000   0.0000   0.0000   0.0000
     0.0000   0.0000   0.0000   0.0000   0.0000   0.0000   0.0000   0.0000
     0.0000   0.0000   0.0000   0.0000   0.0000   0.0000   0.0000   0.0000
     0.0000   0.0000   0.0000   0.0000   0.0000   0.0000   0.0000   0.0000
     0.0000   0.0000   0.0000   0.0000   0.0000   0.0000   0.0000   0.0000
     0.0000   0.0000   0.0000   0.0000   0.0000   0.0000   0.0000   0.0000
     0.0000   0.0000   0.0000   0.0000   0.0000   0.0000   0.0000   0.0000
     0.0000   0.0000   0.0000   0.0000   0.0000   0.0000   0.0000   0.0000
     0.0000   0.0000   0.0000   0.0000   0.0000   0.0000   0.0000   0.0000
     0.0000   0.0000   0.0000   0.0000   0.0000   0.0000   0.0000   0.0000
     0.0000   0.0000   0.0000   0.0000   0.0000   0.0000   0.0000   0.0000
     0.0000   0.0000   0.0000   0.0000   0.0000   0.0000   0.0000   0.0000
     0.0000   0.0000   0.0000   0.0000   0.0000   0.0000   0.0000   0.0000
     0.0000   0.0000   0.0000   0.0000   0.0000   0.0000   0.0000

     the Fermi energy is     5.1733 ev

!    total energy              =  -65089.50745966 Ry
     total all-electron energy =  -2276515.549112 Ry
     estimated scf accuracy    <          5.2E-09 Ry
     smearing contrib. (-TS)   =      -0.00564190 Ry
     internal energy E=F+TS    =  -65089.50181777 Ry

     The total energy is F=E-TS. E is the sum of the following terms:
     one-electron contribution =  -11839.66271912 Ry
     hartree contribution      =    6623.81792974 Ry
     xc contribution           =   -4514.99103152 Ry
     ewald contribution        =   -9844.35773465 Ry
     one-center paw contrib.   =  -45514.30826222 Ry
      -> PAW hartree energy AE =      95.91646734 Ry
      -> PAW hartree energy PS =     -96.15356100 Ry
      -> PAW xc energy AE      =    -798.42866286 Ry
      -> PAW xc energy PS      =      33.30941185 Ry
      -> total E_H with PAW    =    6623.58083608 Ry
      -> total E_XC with PAW   =   -5280.11028252 Ry

     convergence has been achieved in   1 iterations


     -----------------------------------------------
     Non-local corr. energy    =      45.71849183 Ry
     -----------------------------------------------


     Forces acting on atoms (cartesian axes, Ry/au):

     atom    1 type  1   force =     0.00000086   -0.00020234   -0.00019751
     atom    2 type  1   force =     0.00000070    0.00024333   -0.00028613
     atom    3 type  1   force =    -0.00013343    0.00017333    0.00008610
     atom    4 type  1   force =    -0.00069185    0.00034725   -0.00001910
     atom    5 type  1   force =     0.00008134   -0.00020141    0.00008492
     atom    6 type  1   force =    -0.00004727   -0.00077414   -0.00002294
     atom    7 type  1   force =    -0.00017545    0.00010111   -0.00019676
     atom    8 type  1   force =     0.00021000   -0.00012033   -0.00028552
     atom    9 type  1   force =     0.00057853    0.00033381   -0.00023931
     atom   10 type  1   force =     0.00053861    0.00031143   -0.00017924
     atom   11 type  1   force =     0.00013379    0.00017230    0.00008570
     atom   12 type  1   force =     0.00069251    0.00034697   -0.00001965
     atom   13 type  1   force =     0.00000014   -0.00000042   -0.00011493
     atom   14 type  1   force =    -0.00000025    0.00000051    0.00035597
     atom   15 type  1   force =     0.00021586    0.00002914    0.00008404
     atom   16 type  1   force =     0.00064788    0.00042726   -0.00002310
     atom   17 type  1   force =     0.00000028    0.00022467   -0.00007550
     atom   18 type  1   force =    -0.00000066    0.00001289   -0.00015677
     atom   19 type  1   force =     0.00019345   -0.00011226   -0.00007233
     atom   20 type  1   force =     0.00001086   -0.00000396   -0.00015698
     atom   21 type  1   force =    -0.00008144   -0.00020170    0.00008430
     atom   22 type  1   force =     0.00004707   -0.00077357   -0.00002263
     atom   23 type  1   force =    -0.00021688    0.00002833    0.00008395
     atom   24 type  1   force =    -0.00064752    0.00042623   -0.00002213
     atom   25 type  1   force =    -0.00057906    0.00033408   -0.00023909
     atom   26 type  1   force =    -0.00053887    0.00031174   -0.00018025
     atom   27 type  1   force =    -0.00019393   -0.00011275   -0.00007277
     atom   28 type  1   force =    -0.00001140   -0.00000353   -0.00015624
     atom   29 type  1   force =    -0.00000004   -0.00066871   -0.00023997
     atom   30 type  1   force =     0.00000003   -0.00061967   -0.00017896
     atom   31 type  1   force =     0.00017568    0.00010040   -0.00019761
     atom   32 type  1   force =    -0.00020955   -0.00012085   -0.00028638
     atom   33 type  2   force =    -0.00000066    0.00000100   -0.00026173
     atom   34 type  2   force =     0.00019973   -0.00007887    0.00007218
     atom   35 type  2   force =     0.00001696   -0.00002641   -0.00042792
     atom   36 type  2   force =     0.00016037    0.00009363    0.00056038
     atom   37 type  2   force =     0.00006388    0.00003662    0.00021084
     atom   38 type  2   force =     0.00003549    0.00020470    0.00007155
     atom   39 type  2   force =    -0.00001581    0.00002834   -0.00042773
     atom   40 type  2   force =    -0.00016198   -0.00013473    0.00007131
     atom   41 type  2   force =    -0.00003272   -0.00000068   -0.00042779
     atom   42 type  2   force =    -0.00019934   -0.00007887    0.00007284
     atom   43 type  2   force =    -0.00001689   -0.00002581   -0.00042728
     atom   44 type  2   force =    -0.00000001    0.00009997   -0.00013609
     atom   45 type  2   force =     0.00000022   -0.00006885    0.00001047
     atom   46 type  2   force =     0.00008755   -0.00004922   -0.00013730
     atom   47 type  2   force =    -0.00005906    0.00003376    0.00000951
     atom   48 type  2   force =    -0.00000069   -0.00018620    0.00055804
     atom   49 type  2   force =     0.00000020   -0.00007355    0.00021140
     atom   50 type  2   force =    -0.00021860   -0.00012595    0.00009966
     atom   51 type  2   force =    -0.00022579   -0.00012646    0.00029521
     atom   52 type  2   force =    -0.00016055    0.00009313    0.00056036
     atom   53 type  2   force =    -0.00006378    0.00003685    0.00021129
     atom   54 type  2   force =    -0.00008734   -0.00004920   -0.00013678
     atom   55 type  2   force =     0.00005953    0.00003376    0.00000930
     atom   56 type  2   force =     0.00016421   -0.00013538    0.00007116
     atom   57 type  2   force =     0.00003261   -0.00000099   -0.00042819
     atom   58 type  2   force =     0.00021819   -0.00012578    0.00009960
     atom   59 type  2   force =     0.00022582   -0.00012735    0.00029586
     atom   60 type  2   force =    -0.00000007    0.00025246    0.00009932
     atom   61 type  2   force =    -0.00000069    0.00025709    0.00029459
     atom   62 type  2   force =    -0.00003470    0.00020652    0.00007198
     atom   63 type  2   force =     0.00001533    0.00002838   -0.00042746
     atom   64 type  2   force =    -0.00009560    0.00005663    0.00003199
     atom   65 type  2   force =     0.00021200   -0.00012093   -0.00016694
     atom   66 type  2   force =     0.00021664   -0.00013912    0.00017061
     atom   67 type  2   force =     0.00033532   -0.00010452    0.00037844
     atom   68 type  2   force =    -0.00001206    0.00025609    0.00016916
     atom   69 type  2   force =     0.00007660    0.00034445    0.00037985
     atom   70 type  2   force =    -0.00000085   -0.00011508    0.00002552
     atom   71 type  2   force =    -0.00000100    0.00024668   -0.00016247
     atom   72 type  2   force =     0.00009572    0.00005759    0.00002981
     atom   73 type  2   force =    -0.00021279   -0.00012047   -0.00016208
     atom   74 type  2   force =    -0.00000012   -0.00002713   -0.00002602
     atom   75 type  2   force =     0.00000066   -0.00006795   -0.00027687
     atom   76 type  2   force =     0.00008146    0.00004731    0.00002187
     atom   77 type  2   force =     0.00013141    0.00007624   -0.00003383
     atom   78 type  2   force =    -0.00002289    0.00001381   -0.00002617
     atom   79 type  2   force =    -0.00005956    0.00002925   -0.00027249
     atom   80 type  2   force =    -0.00022674   -0.00011748    0.00016923
     atom   81 type  2   force =    -0.00025869   -0.00023661    0.00037825
     atom   82 type  2   force =    -0.00021693   -0.00013865    0.00017011
     atom   83 type  2   force =    -0.00033555   -0.00010374    0.00037900
     atom   84 type  2   force =    -0.00008082    0.00004734    0.00002165
     atom   85 type  2   force =    -0.00013152    0.00007658   -0.00003369
     atom   86 type  2   force =     0.00000037   -0.00009555    0.00002058
     atom   87 type  2   force =     0.00000023   -0.00015089   -0.00003530
     atom   88 type  2   force =     0.00022745   -0.00011771    0.00016915
     atom   89 type  2   force =     0.00025880   -0.00023667    0.00037662
     atom   90 type  2   force =     0.00000004   -0.00000059    0.00017694
     atom   91 type  2   force =    -0.00000008   -0.00000044   -0.00035898
     atom   92 type  2   force =     0.00001161    0.00025690    0.00016865
     atom   93 type  2   force =    -0.00007713    0.00034444    0.00037875
     atom   94 type  2   force =     0.00002278    0.00001391   -0.00002741
     atom   95 type  2   force =     0.00005936    0.00002821   -0.00027364
     atom   96 type  1   force =     0.00000049   -0.00000291    0.00029796
     The non-local contrib.  to forces
     atom    1 type  1   force =    -0.00000475    0.05881703   -0.07004343
     atom    2 type  1   force =     0.00000640    0.10059159    0.07809525
     atom    3 type  1   force =     0.00488405    0.01938281    0.00085327
     atom    4 type  1   force =    -0.01105360    0.01303582   -0.00574432
     atom    5 type  1   force =     0.01923615   -0.00549128    0.00083552
     atom    6 type  1   force =     0.00580984   -0.01610936   -0.00569518
     atom    7 type  1   force =     0.05095110   -0.02940591   -0.06996356
     atom    8 type  1   force =     0.08709267   -0.05031167    0.07804177
     atom    9 type  1   force =     0.08444667    0.04872629   -0.04287269
     atom   10 type  1   force =     0.01084694    0.00623846   -0.00157951
     atom   11 type  1   force =    -0.00487257    0.01938568    0.00085218
     atom   12 type  1   force =     0.01105419    0.01303892   -0.00574029
     atom   13 type  1   force =     0.00000198   -0.00001085   -0.00110661
     atom   14 type  1   force =     0.00000396   -0.00001510   -0.00430105
     atom   15 type  1   force =     0.01435674   -0.01394494    0.00083439
     atom   16 type  1   force =     0.01683215    0.00301748   -0.00569831
     atom   17 type  1   force =    -0.00000174   -0.01860735    0.02729814
     atom   18 type  1   force =     0.00000135    0.00237122    0.00223869
     atom   19 type  1   force =    -0.01606914    0.00928268    0.02730561
     atom   20 type  1   force =     0.00208598   -0.00122768    0.00225536
     atom   21 type  1   force =    -0.01922914   -0.00549417    0.00083772
     atom   22 type  1   force =    -0.00580400   -0.01611681   -0.00570990
     atom   23 type  1   force =    -0.01434771   -0.01394504    0.00083740
     atom   24 type  1   force =    -0.01683176    0.00302548   -0.00571844
     atom   25 type  1   force =    -0.08445505    0.04873914   -0.04289126
     atom   26 type  1   force =    -0.01083876    0.00623871   -0.00158756
     atom   27 type  1   force =     0.01608036    0.00929091    0.02730349
     atom   28 type  1   force =    -0.00207732   -0.00122362    0.00225403
     atom   29 type  1   force =     0.00000706   -0.09746206   -0.04282123
     atom   30 type  1   force =     0.00000541   -0.01256936   -0.00157590
     atom   31 type  1   force =    -0.05095112   -0.02940000   -0.06997966
     atom   32 type  1   force =    -0.08709826   -0.05032272    0.07806160
     atom   33 type  2   force =     0.00000444    0.00000121    0.23622422
     atom   34 type  2   force =     0.00199956   -0.00648311    0.23239961
     atom   35 type  2   force =     0.03125176   -0.01148076    0.25503611
     atom   36 type  2   force =     0.00981361    0.00566500    0.25038786
     atom   37 type  2   force =     0.00553554    0.00319179    0.25652309
     atom   38 type  2   force =    -0.00464361    0.00499180    0.23238833
     atom   39 type  2   force =     0.00565078    0.03281674    0.25502673
     atom   40 type  2   force =    -0.00663114    0.00153873    0.23239740
     atom   41 type  2   force =    -0.02559698   -0.02130760    0.25502869
     atom   42 type  2   force =    -0.00199248   -0.00649239    0.23239499
     atom   43 type  2   force =    -0.03124784   -0.01148676    0.25503287
     atom   44 type  2   force =    -0.00000047    0.00227754    0.24503495
     atom   45 type  2   force =    -0.00000266   -0.00136560    0.25624416
     atom   46 type  2   force =     0.00196465   -0.00114199    0.24503672
     atom   47 type  2   force =    -0.00117358    0.00067484    0.25624998
     atom   48 type  2   force =     0.00000012   -0.01131723    0.25038177
     atom   49 type  2   force =    -0.00000519   -0.00637985    0.25652501
     atom   50 type  2   force =    -0.00380598   -0.00217232    0.24815270
     atom   51 type  2   force =    -0.04071069   -0.02347438    0.26538390
     atom   52 type  2   force =    -0.00981761    0.00566806    0.25038584
     atom   53 type  2   force =    -0.00553701    0.00318618    0.25652161
     atom   54 type  2   force =    -0.00197220   -0.00114523    0.24503513
     atom   55 type  2   force =     0.00116807    0.00067478    0.25624543
     atom   56 type  2   force =     0.00662301    0.00153225    0.23240220
     atom   57 type  2   force =     0.02559067   -0.02130952    0.25503318
     atom   58 type  2   force =     0.00379056   -0.00216219    0.24815483
     atom   59 type  2   force =     0.04070521   -0.02347506    0.26538747
     atom   60 type  2   force =     0.00000144    0.00440357    0.24815385
     atom   61 type  2   force =    -0.00000358    0.04699515    0.26537763
     atom   62 type  2   force =     0.00464568    0.00498690    0.23238817
     atom   63 type  2   force =    -0.00564737    0.03281257    0.25502799
     atom   64 type  2   force =     0.15226688   -0.08788836   -0.07144473
     atom   65 type  2   force =     0.00995576   -0.00574691   -0.24284925
     atom   66 type  2   force =    -0.01727070   -0.00281804   -0.25998967
     atom   67 type  2   force =    -0.00321794   -0.00563470   -0.24288559
     atom   68 type  2   force =    -0.01105398   -0.01355464   -0.25999603
     atom   69 type  2   force =    -0.00648696    0.00004047   -0.24288187
     atom   70 type  2   force =    -0.00001065    0.17578912   -0.07146144
     atom   71 type  2   force =    -0.00000493    0.01153626   -0.24283855
     atom   72 type  2   force =    -0.15226957   -0.08787846   -0.07144346
     atom   73 type  2   force =    -0.00996824   -0.00574892   -0.24284124
     atom   74 type  2   force =    -0.00000116   -0.00461799   -0.25490202
     atom   75 type  2   force =     0.00000059   -0.03487882   -0.24495485
     atom   76 type  2   force =    -0.00908149   -0.00522529   -0.26257078
     atom   77 type  2   force =    -0.00272055   -0.00154988   -0.24354710
     atom   78 type  2   force =    -0.00398075    0.00230929   -0.25490644
     atom   79 type  2   force =    -0.03019536    0.01744892   -0.24495867
     atom   80 type  2   force =     0.00621575    0.01636447   -0.25999651
     atom   81 type  2   force =    -0.00326111    0.00560336   -0.24288792
     atom   82 type  2   force =     0.01726701   -0.00280948   -0.25998788
     atom   83 type  2   force =     0.00321874   -0.00562187   -0.24288218
     atom   84 type  2   force =     0.00908540   -0.00522563   -0.26257060
     atom   85 type  2   force =     0.00271981   -0.00154945   -0.24354590
     atom   86 type  2   force =     0.00000111    0.01049884   -0.26257005
     atom   87 type  2   force =    -0.00000012    0.00315055   -0.24354796
     atom   88 type  2   force =    -0.00620812    0.01636029   -0.25999749
     atom   89 type  2   force =     0.00326839    0.00560480   -0.24289254
     atom   90 type  2   force =    -0.00000040   -0.00000884   -0.24901150
     atom   91 type  2   force =    -0.00000467   -0.00001033   -0.23877750
     atom   92 type  2   force =     0.01104485   -0.01354718   -0.25999522
     atom   93 type  2   force =     0.00648005    0.00003932   -0.24288304
     atom   94 type  2   force =     0.00398160    0.00231072   -0.25490843
     atom   95 type  2   force =     0.03020468    0.01745381   -0.24495996
     atom   96 type  1   force =    -0.00000271    0.00002877   -0.12748847
     The ionic contribution  to forces
     atom    1 type  1   force =     0.00039735   -0.66310136   -0.67781640
     atom    2 type  1   force =    -0.00004153   -6.65366164   -3.14572661
     atom    3 type  1   force =    -0.17010432   -0.48503005   -0.36766023
     atom    4 type  1   force =     0.44932568   -0.41708737    0.30749052
     atom    5 type  1   force =    -0.50403576    0.09407657   -0.36592690
     atom    6 type  1   force =    -0.13774781    0.59626002    0.30582181
     atom    7 type  1   force =    -0.57633903    0.33285085   -0.68463191
     atom    8 type  1   force =    -5.76220271    3.32799862   -3.14163328
     atom    9 type  1   force =    -1.98899381   -1.14525319    0.46797700
     atom   10 type  1   force =    -0.96489278   -0.55548524    0.15500423
     atom   11 type  1   force =     0.17038120   -0.48507564   -0.36746386
     atom   12 type  1   force =    -0.44875059   -0.41710607    0.30749977
     atom   13 type  1   force =     0.00027035   -0.00046167   -0.83844920
     atom   14 type  1   force =     0.00031313   -0.00067900    0.54690324
     atom   15 type  1   force =    -0.33355326    0.39034018   -0.36558814
     atom   16 type  1   force =    -0.58532019   -0.17883099    0.30649533
     atom   17 type  1   force =    -0.00002589    0.61706922   -0.67986477
     atom   18 type  1   force =    -0.00026100   -0.07153814    0.26241081
     atom   19 type  1   force =     0.53155228   -0.30817685   -0.68167911
     atom   20 type  1   force =    -0.06397364    0.03674573    0.26093562
     atom   21 type  1   force =     0.50410976    0.09409799   -0.36552092
     atom   22 type  1   force =     0.13753153    0.59634220    0.30659359
     atom   23 type  1   force =     0.33371733    0.39011517   -0.36541209
     atom   24 type  1   force =     0.58553151   -0.17953486    0.30730707
     atom   25 type  1   force =     1.98917411   -1.14621135    0.46972810
     atom   26 type  1   force =     0.96484300   -0.55593135    0.15599313
     atom   27 type  1   force =    -0.53240459   -0.30863222   -0.68141114
     atom   28 type  1   force =     0.06320852    0.03658380    0.26055966
     atom   29 type  1   force =    -0.00074478    2.29355658    0.46414159
     atom   30 type  1   force =    -0.00044982    1.11426336    0.15472601
     atom   31 type  1   force =     0.57598919    0.33216486   -0.68263030
     atom   32 type  1   force =     5.76221991    3.32805680   -3.14288824
     atom   33 type  2   force =     0.00022289    0.00026945  -14.69791241
     atom   34 type  2   force =     0.73315948   -1.21190961  -12.68697627
     atom   35 type  2   force =    -0.84508747    0.17546057  -14.64228040
     atom   36 type  2   force =    -0.24121248   -0.13962543  -13.76471058
     atom   37 type  2   force =    -0.11095250   -0.06589205  -15.25476444
     atom   38 type  2   force =    -0.68224872    1.23750738  -12.68409538
     atom   39 type  2   force =    -0.27228300   -0.81930565  -14.64388285
     atom   40 type  2   force =    -1.41394075   -0.02750379  -12.68451958
     atom   41 type  2   force =     0.57307375    0.64554213  -14.64375477
     atom   42 type  2   force =    -0.73273893   -1.21114758  -12.68670042
     atom   43 type  2   force =     0.84564967    0.17547816  -14.64254345
     atom   44 type  2   force =     0.00042795   -0.40413916  -13.35391187
     atom   45 type  2   force =     0.00043298   -0.04990221  -15.62317406
     atom   46 type  2   force =    -0.34858032    0.20108704  -13.35445095
     atom   47 type  2   force =    -0.04152227    0.02375317  -15.62321279
     atom   48 type  2   force =    -0.00022115    0.27829187  -13.76555225
     atom   49 type  2   force =     0.00014503    0.12835241  -15.25469547
     atom   50 type  2   force =    -0.15511575   -0.08918102  -13.96640825
     atom   51 type  2   force =     1.38557675    0.80129095  -15.29279057
     atom   52 type  2   force =     0.24121745   -0.13986765  -13.76499339
     atom   53 type  2   force =     0.11116550   -0.06584584  -15.25480106
     atom   54 type  2   force =     0.34916341    0.20089679  -13.35427326
     atom   55 type  2   force =     0.04215099    0.02362661  -15.62347391
     atom   56 type  2   force =     1.41525388   -0.02798669  -12.68534510
     atom   57 type  2   force =    -0.57334754    0.64478590  -14.64300043
     atom   58 type  2   force =     0.15493759   -0.08945618  -13.96645893
     atom   59 type  2   force =    -1.38634865    0.80130658  -15.29249050
     atom   60 type  2   force =    -0.00034527    0.17779424  -13.96625391
     atom   61 type  2   force =    -0.00036745   -1.60034234  -15.29260914
     atom   62 type  2   force =     0.68203059    1.23810988  -12.68464822
     atom   63 type  2   force =     0.27176112   -0.81965134  -14.64340094
     atom   64 type  2   force =    -5.81797118    3.36343111    9.25503652
     atom   65 type  2   force =     1.29777143   -0.74885736   11.59840999
     atom   66 type  2   force =     0.79879817   -0.27032884   14.58076770
     atom   67 type  2   force =     0.38724368    0.05392060   14.35849273
     atom   68 type  2   force =     0.16578053    0.82444704   14.58129644
     atom   69 type  2   force =     0.23974202    0.30736042   14.35836152
     atom   70 type  2   force =    -0.00121429   -6.71857565    9.25304258
     atom   71 type  2   force =     0.00013007    1.49775021   11.59937544
     atom   72 type  2   force =     5.81730469    3.36444240    9.25408496
     atom   73 type  2   force =    -1.29732633   -0.74877325   11.59932440
     atom   74 type  2   force =     0.00035741    0.19297102   14.50502038
     atom   75 type  2   force =     0.00039115    1.11010558   14.16024655
     atom   76 type  2   force =     0.05798898    0.03204252   14.45548855
     atom   77 type  2   force =     0.36100532    0.20595607   14.73850594
     atom   78 type  2   force =     0.17024221   -0.09865446   14.50461088
     atom   79 type  2   force =     0.95900518   -0.55399097   14.16064463
     atom   80 type  2   force =    -0.63211112   -0.55538231   14.58122863
     atom   81 type  2   force =    -0.14721449   -0.36058142   14.35791309
     atom   82 type  2   force =    -0.79882586   -0.26994620   14.58090956
     atom   83 type  2   force =    -0.38725266    0.05387257   14.35880425
     atom   84 type  2   force =    -0.05742471    0.03196319   14.45554297
     atom   85 type  2   force =    -0.36029004    0.20610730   14.73855570
     atom   86 type  2   force =     0.00022491   -0.06689384   14.45516773
     atom   87 type  2   force =     0.00049514   -0.41663605   14.73856491
     atom   88 type  2   force =     0.63239651   -0.55555926   14.58103607
     atom   89 type  2   force =     0.14678873   -0.36103412   14.35742031
     atom   90 type  2   force =    -0.00013007   -0.00027611   13.99736277
     atom   91 type  2   force =    -0.00013708   -0.00055750   14.60395034
     atom   92 type  2   force =    -0.16613751    0.82463243   14.58125463
     atom   93 type  2   force =    -0.24025302    0.30724618   14.35816510
     atom   94 type  2   force =    -0.16935407   -0.09855333   14.50444388
     atom   95 type  2   force =    -0.95996031   -0.55500971   14.16030649
     atom   96 type  1   force =    -0.00084350    0.00284016   13.57946553
     The local contribution  to forces
     atom    1 type  1   force =    -0.00039213    0.60503901    0.74643674
     atom    2 type  1   force =     0.00003576    6.55630291    3.06950669
     atom    3 type  1   force =     0.16511762    0.46609972    0.36695524
     atom    4 type  1   force =    -0.43927840    0.40460073   -0.30181532
     atom    5 type  1   force =     0.48513663   -0.08889741    0.36523808
     atom    6 type  1   force =     0.13190771   -0.58129563   -0.30019911
     atom    7 type  1   force =     0.52604001   -0.30381951    0.75317507
     atom    8 type  1   force =     5.67790679   -3.27929953    3.06546634
     atom    9 type  1   force =     1.90683109    1.09784629   -0.42619134
     atom   10 type  1   force =     0.95483462    0.54970382   -0.15362646
     atom   11 type  1   force =    -0.16540631    0.46614134    0.36675968
     atom   12 type  1   force =     0.43870242    0.40461614   -0.30182939
     atom   13 type  1   force =    -0.00027270    0.00047342    0.83943386
     atom   14 type  1   force =    -0.00031788    0.00069595   -0.54219259
     atom   15 type  1   force =     0.31963692   -0.37653035    0.36489940
     atom   16 type  1   force =     0.56946633    0.17641360   -0.30086973
     atom   17 type  1   force =     0.00002758   -0.59848946    0.65309575
     atom   18 type  1   force =     0.00025868    0.06925564   -0.26477667
     atom   19 type  1   force =    -0.51550904    0.29890975    0.65490666
     atom   20 type  1   force =     0.06196313   -0.03555840   -0.26331828
     atom   21 type  1   force =    -0.48521840   -0.08891633    0.36482919
     atom   22 type  1   force =    -0.13169826   -0.58137003   -0.30095612
     atom   23 type  1   force =    -0.31981192   -0.37630611    0.36472013
     atom   24 type  1   force =    -0.56967871    0.17710878   -0.30166046
     atom   25 type  1   force =    -1.90700437    1.09879256   -0.42792433
     atom   26 type  1   force =    -0.95479389    0.55015064   -0.15460837
     atom   27 type  1   force =     0.51634945    0.29935660    0.65464018
     atom   28 type  1   force =    -0.06120734   -0.03539988   -0.26294007
     atom   29 type  1   force =     0.00073783   -2.19873032   -0.42240683
     atom   30 type  1   force =     0.00044469   -1.10260151   -0.15335149
     atom   31 type  1   force =    -0.52569036   -0.30313979    0.75118818
     atom   32 type  1   force =    -5.67791818   -3.27934726    3.06670081
     atom   33 type  2   force =    -0.00022746   -0.00027065   14.46670714
     atom   34 type  2   force =    -0.73503322    1.21832824   12.45962171
     atom   35 type  2   force =     0.81455547   -0.16441134   14.39228322
     atom   36 type  2   force =     0.23166593    0.13411407   13.52048559
     atom   37 type  2   force =     0.10555155    0.06277589   15.00386542
     atom   38 type  2   force =     0.68690191   -1.24236151   12.45675123
     atom   39 type  2   force =     0.26661591    0.78732729   14.39389277
     atom   40 type  2   force =     1.42045661    0.02588652   12.45716665
     atom   41 type  2   force =    -0.54821200   -0.62464104   14.39376444
     atom   42 type  2   force =     0.73460538    1.21757496   12.45935057
     atom   43 type  2   force =    -0.81512117   -0.16442298   14.39254965
     atom   44 type  2   force =    -0.00042757    0.40183976   13.11428652
     atom   45 type  2   force =    -0.00043033    0.05104984   15.37261328
     atom   46 type  2   force =     0.34659744   -0.19993382   13.11482324
     atom   47 type  2   force =     0.04250801   -0.02431997   15.37264384
     atom   48 type  2   force =     0.00022063   -0.26728345   13.52132748
     atom   49 type  2   force =    -0.00013936   -0.12212792   15.00379589
     atom   50 type  2   force =     0.15859471    0.09116316   13.72361427
     atom   51 type  2   force =    -1.34606968   -0.77850628   15.03339284
     atom   52 type  2   force =    -0.23166708    0.13435295   13.52076936
     atom   53 type  2   force =    -0.10576248    0.06273565   15.00390410
     atom   54 type  2   force =    -0.34717328   -0.19974040   13.11464739
     atom   55 type  2   force =    -0.04313098   -0.02419313   15.37290852
     atom   56 type  2   force =    -1.42176030    0.02637611   12.45798762
     atom   57 type  2   force =     0.54849209   -0.62388340   14.39300619
     atom   58 type  2   force =    -0.15840068    0.09142849   13.72366362
     atom   59 type  2   force =     1.34684514   -0.77852082   15.03308995
     atom   60 type  2   force =     0.00034433   -0.18182037   13.72345802
     atom   61 type  2   force =     0.00037035    1.55473886   15.03321610
     atom   62 type  2   force =    -0.68668466   -1.24295776   12.45730447
     atom   63 type  2   force =    -0.26609750    0.78767700   14.39341026
     atom   64 type  2   force =     5.66894721   -3.27740704   -9.18515099
     atom   65 type  2   force =    -1.30728112    0.75434781  -11.36078031
     atom   66 type  2   force =    -0.78182056    0.27294472  -14.32629360
     atom   67 type  2   force =    -0.38371434   -0.04846421  -14.12052665
     atom   68 type  2   force =    -0.15504672   -0.81104919  -14.32681789
     atom   69 type  2   force =    -0.23325368   -0.30704085  -14.12039518
     atom   70 type  2   force =     0.00122272    6.54652933   -9.18314746
     atom   71 type  2   force =    -0.00012531   -1.50877052  -11.36175174
     atom   72 type  2   force =    -5.66827967   -3.27842662   -9.18420317
     atom   73 type  2   force =     1.30684816    0.75426546  -11.36169750
     atom   74 type  2   force =    -0.00035635   -0.18851483  -14.25575561
     atom   75 type  2   force =    -0.00039188   -1.07615669  -13.92070361
     atom   76 type  2   force =    -0.04900636   -0.02687499  -14.19863583
     atom   77 type  2   force =    -0.35829143   -0.20441041  -14.50007583
     atom   78 type  2   force =    -0.16639947    0.09642480  -14.25534195
     atom   79 type  2   force =    -0.92962014    0.53700782  -13.92109342
     atom   80 type  2   force =     0.62587077    0.53937226  -14.32674858
     atom   81 type  2   force =     0.15016509    0.35479940  -14.11994445
     atom   82 type  2   force =     0.78185227    0.27255362  -14.32643789
     atom   83 type  2   force =     0.38372218   -0.04842836  -14.12084035
     atom   84 type  2   force =     0.04843834   -0.02679523  -14.19869100
     atom   85 type  2   force =     0.35757676   -0.20456201  -14.50012638
     atom   86 type  2   force =    -0.00022580    0.05650887  -14.19831829
     atom   87 type  2   force =    -0.00049498    0.41349298  -14.50013417
     atom   88 type  2   force =    -0.62616256    0.53955331  -14.32655458
     atom   89 type  2   force =    -0.14974644    0.35525074  -14.11945037
     atom   90 type  2   force =     0.00013087    0.00028322  -13.75359538
     atom   91 type  2   force =     0.00014237    0.00056603  -14.37075413
     atom   92 type  2   force =     0.15541348   -0.81124126  -14.32677725
     atom   93 type  2   force =     0.23377136   -0.30692541  -14.12019962
     atom   94 type  2   force =     0.16551090    0.09632260  -14.25517537
     atom   95 type  2   force =     0.93056397    0.53802059  -13.92075457
     atom   96 type  1   force =     0.00084655   -0.00286987  -13.45332334
     The core correction contribution to forces
     atom    1 type  1   force =     0.00000006   -0.00097787    0.00127403
     atom    2 type  1   force =    -0.00000019   -0.00301795   -0.00211203
     atom    3 type  1   force =    -0.00006931   -0.00032282   -0.00002360
     atom    4 type  1   force =     0.00026553   -0.00022968    0.00010883
     atom    5 type  1   force =    -0.00031390    0.00010157   -0.00002304
     atom    6 type  1   force =    -0.00006666    0.00034505    0.00010826
     atom    7 type  1   force =    -0.00084695    0.00048858    0.00127205
     atom    8 type  1   force =    -0.00261279    0.00150872   -0.00211107
     atom    9 type  1   force =    -0.00168535   -0.00097261    0.00091607
     atom   10 type  1   force =    -0.00022328   -0.00012868    0.00005559
     atom   11 type  1   force =     0.00006912   -0.00032276   -0.00002352
     atom   12 type  1   force =    -0.00026558   -0.00022971    0.00010881
     atom   13 type  1   force =    -0.00000004    0.00000011    0.00000519
     atom   14 type  1   force =    -0.00000003    0.00000009    0.00004067
     atom   15 type  1   force =    -0.00024476    0.00022152   -0.00002291
     atom   16 type  1   force =    -0.00033199   -0.00011480    0.00010829
     atom   17 type  1   force =     0.00000003    0.00030363   -0.00052039
     atom   18 type  1   force =     0.00000010   -0.00003026   -0.00001960
     atom   19 type  1   force =     0.00026244   -0.00015173   -0.00052104
     atom   20 type  1   force =    -0.00002667    0.00001540   -0.00001988
     atom   21 type  1   force =     0.00031389    0.00010166   -0.00002300
     atom   22 type  1   force =     0.00006663    0.00034511    0.00010850
     atom   23 type  1   force =     0.00024479    0.00022165   -0.00002295
     atom   24 type  1   force =     0.00033198   -0.00011482    0.00010857
     atom   25 type  1   force =     0.00168567   -0.00097290    0.00091655
     atom   26 type  1   force =     0.00022322   -0.00012873    0.00005579
     atom   27 type  1   force =    -0.00026252   -0.00015182   -0.00052094
     atom   28 type  1   force =     0.00002664    0.00001526   -0.00001993
     atom   29 type  1   force =    -0.00000010    0.00194503    0.00091480
     atom   30 type  1   force =    -0.00000009    0.00025827    0.00005556
     atom   31 type  1   force =     0.00084699    0.00048852    0.00127258
     atom   32 type  1   force =     0.00261289    0.00150900   -0.00211126
     atom   33 type  2   force =    -0.00000055    0.00000283   -0.00521463
     atom   34 type  2   force =     0.00003522   -0.00004593   -0.00492409
     atom   35 type  2   force =    -0.00071253    0.00038070   -0.00541135
     atom   36 type  2   force =    -0.00019302   -0.00010849   -0.00555112
     atom   37 type  2   force =    -0.00012053   -0.00006644   -0.00537178
     atom   38 type  2   force =    -0.00002188    0.00005245   -0.00492372
     atom   39 type  2   force =    -0.00002675   -0.00080325   -0.00540888
     atom   40 type  2   force =    -0.00005673   -0.00000528   -0.00492444
     atom   41 type  2   force =     0.00068446    0.00042853   -0.00541043
     atom   42 type  2   force =    -0.00003541   -0.00004568   -0.00492367
     atom   43 type  2   force =     0.00071136    0.00038073   -0.00541085
     atom   44 type  2   force =    -0.00000036    0.00006934   -0.00547754
     atom   45 type  2   force =    -0.00000037    0.00011516   -0.00566416
     atom   46 type  2   force =     0.00005872   -0.00003200   -0.00547794
     atom   47 type  2   force =     0.00009788   -0.00005502   -0.00566289
     atom   48 type  2   force =    -0.00000069    0.00022375   -0.00554778
     atom   49 type  2   force =    -0.00000072    0.00014091   -0.00537241
     atom   50 type  2   force =     0.00015745    0.00009391   -0.00523043
     atom   51 type  2   force =     0.00100639    0.00058085   -0.00561933
     atom   52 type  2   force =     0.00019226   -0.00010884   -0.00555017
     atom   53 type  2   force =     0.00011951   -0.00006666   -0.00537184
     atom   54 type  2   force =    -0.00005932   -0.00003196   -0.00547786
     atom   55 type  2   force =    -0.00009863   -0.00005502   -0.00566209
     atom   56 type  2   force =     0.00005696   -0.00000546   -0.00492500
     atom   57 type  2   force =    -0.00068534    0.00042899   -0.00541163
     atom   58 type  2   force =    -0.00015854    0.00009402   -0.00523070
     atom   59 type  2   force =    -0.00100489    0.00057993   -0.00561965
     atom   60 type  2   force =    -0.00000045   -0.00018060   -0.00522974
     atom   61 type  2   force =    -0.00000003   -0.00116667   -0.00561849
     atom   62 type  2   force =     0.00002152    0.00005276   -0.00492385
     atom   63 type  2   force =     0.00002610   -0.00080324   -0.00540955
     atom   64 type  2   force =    -0.00333807    0.00192231    0.00165009
[...]
              0.220384768583072E+03
              0.100104486577556E+03
              0.162913368786458E+03
             -0.905621172987737E+01
              0.500591035686907E+03
              0.838990161996653E+02
             -0.772095384352428E+02
              0.902900925546328E+01
             -0.507930820584529E+02
              0.411144257614149E+03
             -0.236916049090494E+02
              0.885388706624468E+02
              0.296477745857938E+03
              0.649976771873144E+02
             -0.233943285012314E+03
             -0.341040755470479E+03
              0.354955895989997E+01
             -0.383563546268178E+03
              0.130182962354272E+03
             -0.776133006100970E+02
             -0.180265125273203E+03
              0.161996768223964E+03
              0.620408701918336E+02
              0.146105004509146E+03
              0.129434694173387E+02
              0.232769374238583E+03
             -0.380262487593490E+03
             -0.349087905513413E+02
             -0.331736308725623E+03
              0.597432847613027E+02
              0.179683442641021E+03
             -0.332816419199835E+02
             -0.124987186127044E+03
              0.267263811395658E+03
             -0.123759490840058E+03
              0.870835556190214E+02
             -0.776248423685493E+02
              0.190783888447268E+03
              0.230454991728048E+03
             -0.994013730157358E+02
              0.198065268683695E+03
              0.760568097049163E+02
             -0.204328869335170E+03
             -0.122294515167215E+03
              0.329609195720368E+03
              0.156275503097065E+03
             -0.151121637061584E+02
             -0.444385940286602E+02
              0.484449916399656E+03
              0.290573802310753E+03
              0.106467181357283E+03
             -0.310575542190917E+03
              0.486300106692150E+03
             -0.219893343943237E+03
             -0.272658634522531E+03
             -0.422435080803253E+03
              0.203539024539402E+03
             -0.386449061270005E+03
              0.167491662733890E+03
              0.275097750880423E+03
              0.203801848256228E+03
              0.432139514080109E+02
              0.121639323777285E+03
             -0.304508730658922E+03
             -0.108221774628142E+03
             -0.983688950299761E+02
              0.147152888109591E+03
              0.328558235098705E+03
              0.323790450228759E+03
              0.247908713718854E+03
             -0.612842265240997E+02
              0.880356937718152E+02
              0.123809567090884E+02
             -0.973695966504513E+02
              0.145243166625054E+03
              0.139198959853391E+03
             -0.198360828294375E+03
             -0.200813533452917E+03
             -0.921409802178723E+02
              0.213273056721735E+03
              0.108458209602788E+03
             -0.145165554892519E+03
             -0.253066786634284E+03
             -0.347723825281254E+03
              0.723482804058489E+01
              0.990144262618837E+02
             -0.134497870741161E+03
              0.493906160212738E+03
              0.470536855107321E+01
             -0.573788483301649E+03
              0.143868472519262E+03
              0.236767533138638E+03
             -0.859801691599141E+02
              0.899988840327421E+01
             -0.129730699694042E+03
              0.220370395894699E+03
              0.108655747469097E+03
             -0.289907789479933E+03
              0.344245661719677E+03
              0.235797505576372E+02
             -0.137482498989744E+03
             -0.169447308332016E+03
              0.690190875382857E+03
              0.308582132068445E+03
             -0.773811690266994E+02
              0.170089861437055E+03
             -0.336292091282329E+03
             -0.730426373205028E+02
             -0.298925416381908E+03
              0.115426948950591E+03
              0.214591459316116E+03
              0.236054354715642E+03
             -0.103430454848230E+03
              0.179795114040749E+02
              0.294086520286673E+03
              0.940130159803543E+02
              0.175390913932494E+03
              0.713725590398408E+02
             -0.394454914680045E+02
              0.751172315296913E+00
             -0.546250279956242E+02
              0.609163446871680E+02
              0.205053948344898E+02
             -0.267099813526782E+03
              0.409323010413865E+03
              0.157562858650145E+03
             -0.290015946659143E+03
             -0.213196864259770E+03
             -0.300866857593770E+03
             -0.130316383909649E+03
             -0.945319621301810E+02
             -0.237904035832553E+03
             -0.234909136079346E+03
              0.282758614541319E+03
              0.225086153706368E+03
             -0.311312261224220E+02
              0.337825634481364E+03
              0.486333608787108E+02
             -0.543048652534430E+03
              0.291640233667446E+03
              0.497583798554315E+02
              0.228965602863175E+03
              0.309242538980239E+02
              0.258932000639627E+02
              0.466682482874339E+02
              0.123721838799441E+03
             -0.226556727151242E+03
             -0.106889243366399E+03
             -0.214393603722061E+03
             -0.177278177337422E+03
              0.739370905371243E+02
             -0.196774576940263E+03
              0.947584948406841E+02
              0.130110026659034E+03
             -0.120649517439436E+03
             -0.770555097685972E+02
              0.515174673717070E+01
              0.337620835734108E+03
              0.510381655405117E+02
              0.324089633208911E+03
              0.116253448058414E+03
             -0.428326076881598E+03
             -0.142039649599073E+03
              0.146081729735527E+03
              0.337145468966817E+03
              0.555713127257225E+02
              0.138588572618370E+03
              0.310207165525330E+03
             -0.179588419956542E+03
             -0.275796904897385E+03
              0.382344522186208E+03
              0.223373566002506E+02
             -0.404091224285482E+03
              0.147692616298333E+03
              0.255741260309164E+03
             -0.654211749301403E+02
             -0.266430406635834E+03
              0.555141577882653E+02
              0.115429314362145E+02
             -0.129445424654046E+03
              0.494733274669907E+02
             -0.430617842051515E+02
              0.601235497229601E+03
              0.175062349994569E+03
             -0.254641888071815E+03
              0.751841089436351E+02
              0.366066228087649E+03
             -0.247540687065288E+03
             -0.644987611432946E+02
             -0.234098205953521E+03
              0.187666650892750E+03
              0.592565960332192E+02
              0.124101837373108E+03
              0.224909673076274E+02
              0.425186835890293E+03
             -0.241954143226155E+03
             -0.190942916879873E+03
             -0.184378588550602E+03
              0.162030518635080E+03
              0.422529426898194E+03
             -0.706743584533168E+02
              0.172848550427420E+03
             -0.245563239724041E+03
              0.471772685345920E+02
             -0.785588412251146E+02
              0.173520103548226E+02
             -0.952722783660204E+02
             -0.775839315827806E+02
             -0.763017976629367E+02
              0.627363305746130E+02
              0.122686704593724E+03
             -0.267841848866270E+03
              0.198345950178977E+03
             -0.319155111172782E+03
              0.240740236888338E+03
             -0.254416218866639E+03
              0.412601079239967E+03
              0.226724006709303E+03
              0.260975922950778E+03
              0.648441224702822E+02
              0.761878196170896E+02
             -0.570048411657123E+03
              0.922872487503337E+02
              0.208366394454993E+02
              0.543513283909970E+02
             -0.930576411656580E+02
              0.440694509409529E+03
             -0.102247446887244E+03
             -0.182153708610486E+03
             -0.426333008747052E+03
             -0.147945334853472E+03
             -0.204585828766101E+03
             -0.177941339864936E+03
             -0.400927297148592E+02
             -0.973588400598410E+02
             -0.123940261772884E+03
             -0.189765149079868E+03
              0.145166112569264E+03
              0.457949983020147E+03
              0.386885936464788E+03
             -0.686172949270222E+02
             -0.465027544136692E+03
             -0.198325301255464E+03
              0.950157355301318E+02
              0.952306162747195E+02
              0.152042881300541E+03
              0.106841692661719E+03
              0.188616052008988E+02
              0.454327565645221E+03
             -0.110400450975279E+03
              0.223216514709850E+03
              0.114987946717557E+03
             -0.154780660215783E+03
             -0.741768148550132E+02
              0.205833558250195E+03
             -0.110072607747285E+03
             -0.675760944585571E+02
             -0.500869306622119E+02
              0.265054679122950E+03
             -0.348711555012771E+03
             -0.280557661717421E+02
             -0.269112468794199E+03
             -0.571719084862565E+03
             -0.158748136043823E+01
             -0.844397423364281E+02
              0.222203519739345E+03
              0.246988230176387E+03
              0.337797490182594E+03
             -0.219676626298884E+03
              0.341636303226434E+03
              0.854314666410414E+02
             -0.126912323826042E+03
              0.455860643357997E+02
             -0.107733639101087E+03
             -0.637192366045565E+02
              0.197369899094149E+03
             -0.163424584634128E+03
              0.438348814396864E+03
             -0.116862598733724E+03
             -0.242379331444368E+03
              0.458461360512214E+03
             -0.248147993510388E+03
             -0.199839145498227E+02
              0.240592880925742E+02
              0.132189296985714E+03
             -0.193616409602102E+03
             -0.147543299650970E+03
              0.235418387599327E+03
             -0.354308623147401E+03
              0.292105984990832E+03
              0.431711109231864E+02
              0.209320939371754E+03
              0.303259618391890E+03
              0.777911479024434E+02
             -0.421566256644327E+03
             -0.182409059308068E+03
             -0.304309538274419E+03
             -0.180969589908190E+03
             -0.481806318697313E+02
              0.653497299782259E+02
             -0.141871686342065E+03
             -0.244003005421882E+01
             -0.423051366061685E+03
              0.236081625296820E+02
             -0.272902128185928E+03
              0.264469865945719E+03
             -0.154941083488113E+03
             -0.374082866659800E+02
              0.199698973842545E+03
              0.395269363919949E+02
              0.185534677933574E+03
             -0.353845314009181E+03
              0.587224362846159E+02
              0.241481354014804E+02
              0.152363194661186E+03
              0.244174571266912E+03
             -0.451085479716198E+02
             -0.277834181079160E+03
             -0.160845083169386E+03
             -0.113289719591849E+03
             -0.333085103043304E+02
              0.259158944898886E+03
              0.168300442787733E+03
             -0.170422684079105E+03
             -0.159873324016395E+03
              0.117423524238498E+03
              0.127880310879503E+03
             -0.345558631808710E+03
              0.805135394075243E+02
              0.247661978124783E+03
             -0.110860805616023E+02
              0.312258606286602E+03
              0.144067007393492E+03
              0.245550204518507E+03
              0.373411981003887E+03
              0.562182560954701E+02
             -0.508671940511284E+03
              0.701640035259332E+02
              0.549984296026591E+03
              0.399815303439384E+03
             -0.275665347419441E+03
              0.248813607601813E+02
              0.357847844331055E+03
              0.310013704246364E+03
              0.136332688934706E+03
             -0.824942258503748E+02
              0.136919428197702E+03
              0.283420734003694E+03
             -0.131049745462375E+03
             -0.844076838556563E+02
              0.191951962965813E+03
             -0.114855307548794E+02
              0.172488014964060E+03
             -0.532247171481735E+02
              0.359438134439853E+03
             -0.137033200857843E+03
              0.825363006057223E+02
             -0.152241562652483E+03
              0.177871850267726E+03
             -0.241163743329728E+02
              0.265092806511503E+03
              0.188929539522243E+02
              0.118745186768718E+03
             -0.168595892467129E+03
             -0.117861236653916E+03
             -0.601478423693770E+02
             -0.547767396482941E+02
              0.288662261903408E+03
              0.142129629787895E+03
              0.350182637355748E+03
              0.323237989817073E+03
              0.906671193298052E+02
              0.161874420161291E+02
              0.344431838514764E+03
              0.193596370355147E+03
              0.443337527394988E+00
              0.335533216275908E+03
             -0.275359558673324E+03
              0.965247706407943E+02
             -0.179509316986443E+03
             -0.485743454899473E+02
              0.463887232579144E+03
             -0.649208149503092E+02
             -0.194177492211015E+02
             -0.504463492808513E+02
              0.381124102143941E+03
             -0.817850368501431E+02
             -0.700174831980462E+01
              0.768797497133641E+03
             -0.227501279815559E+03
             -0.284089093369253E+03
             -0.284297442991412E+03
             -0.181540189554414E+03
              0.165664809092696E+03
             -0.743226479461446E+02
              0.421124610662107E+02
             -0.192413371260000E+02
              0.975412696928948E+02
              0.156444210305153E+03
              0.182353656729703E+03
              0.262510294887356E+03
              0.168138255891623E+03
              0.171366657905151E+03
             -0.317259513345479E+03
             -0.327660471180242E+03
             -0.738548552255728E+02
             -0.292861373808365E+03
              0.464955240599448E+03
              0.391600457055402E+03
              0.184770463915915E+03
              0.509207954923387E+03
             -0.254396029569516E+03
             -0.109623095217287E+03
             -0.158059728353984E+03
              0.440629504716327E+03
 
 BEEF-vdW xc energy contributions
            1 :    -3982.246355329623     
            2 :     3648.681618172495     
            3 :    -3080.194412303204     
            4 :     2428.685332949668     
            5 :    -1836.934688425151     
            6 :     1392.470067707968     
            7 :    -1113.385809950852     
            8 :     961.8888302743699     
            9 :    -872.8879930238700     
           10 :     785.2465930452563     
           11 :    -664.9930006049144     
           12 :     512.5489291630338     
           13 :    -352.9424304544009     
           14 :     216.6616633364711     
           15 :    -122.6423366016279     
           16 :     71.17868191126399     
           17 :    -47.40876456409842     
           18 :     31.00380888674408     
           19 :    -6.484645632328466     
           20 :    -30.34383516249272     
           21 :     72.30455190823341     
           22 :    -106.6786824129322     
           23 :     123.4882625522869     
           24 :    -121.4599875345893     
           25 :     108.5194013874489     
           26 :    -97.09318068181619     
           27 :     97.29923924965988     
           28 :    -111.7700108177132     
           29 :     134.5972869655207     
           30 :    -154.7142293082206     
           31 :    -343.3327734300083     
           32 :    -247.0598201406438     

     Writing all to output data dir ./PbI2.save/
 
     init_run     :     11.04s CPU     18.37s WALL (       1 calls)
     electrons    :    214.43s CPU    219.64s WALL (       1 calls)
     forces       :      7.22s CPU      7.57s WALL (       1 calls)
     stress       :    111.13s CPU    112.55s WALL (       1 calls)

     Called by init_run:
     wfcinit      :      6.29s CPU     13.11s WALL (       1 calls)
     potinit      :      1.34s CPU      1.57s WALL (       1 calls)
     hinit0       :      1.02s CPU      1.11s WALL (       1 calls)

     Called by electrons:
     c_bands      :    204.66s CPU    209.05s WALL (       2 calls)
     sum_band     :      6.27s CPU      6.57s WALL (       2 calls)
     v_of_rho     :      1.66s CPU      1.78s WALL (       2 calls)
     v_h          :      0.02s CPU      0.02s WALL (       2 calls)
     v_xc         :     26.05s CPU     28.18s WALL (      38 calls)
     newd         :      0.59s CPU      0.83s WALL (       2 calls)
     PAW_pot      :      0.57s CPU      0.57s WALL (       2 calls)
     mix_rho      :      0.00s CPU      0.00s WALL (       2 calls)
     vdW_kernel   :      0.25s CPU      0.26s WALL (       1 calls)

     Called by c_bands:
     init_us_2    :      0.19s CPU      0.22s WALL (       4 calls)
     init_us_2:cp :      0.19s CPU      0.22s WALL (       4 calls)
     cegterg      :    203.33s CPU    206.55s WALL (       2 calls)

     Called by sum_band:
     sum_band:wei :      0.00s CPU      0.00s WALL (       2 calls)
     sum_band:loo :      5.51s CPU      5.56s WALL (       2 calls)
     sum_band:buf :      0.00s CPU      0.00s WALL (       2 calls)
     sum_band:ini :      0.14s CPU      0.15s WALL (       2 calls)
     sum_band:cal :      2.41s CPU      2.43s WALL (       2 calls)
     sum_band:bec :      0.04s CPU      0.04s WALL (       2 calls)
     addusdens    :      0.66s CPU      0.91s WALL (       2 calls)
     addusd:skk   :      0.07s CPU      0.07s WALL (       4 calls)
     addusd:dgemm :      0.35s CPU      0.58s WALL (       4 calls)
     addusd:qvan2 :      0.23s CPU      0.23s WALL (       4 calls)

     Called by *egterg:
     cdiaghg      :    153.15s CPU    154.27s WALL (      20 calls)
     cegterg:over :      8.64s CPU      8.91s WALL (      20 calls)
     cegterg:upda :      4.65s CPU      4.77s WALL (      20 calls)
     cegterg:last :      2.63s CPU      2.65s WALL (       2 calls)
     h_psi        :     25.26s CPU     25.62s WALL (      22 calls)
     s_psi        :      5.33s CPU      5.37s WALL (      22 calls)
     g_psi        :      0.06s CPU      0.06s WALL (      20 calls)

     Called by h_psi:
     h_psi:calbec :      5.99s CPU      6.03s WALL (      22 calls)
     vloc_psi     :     13.82s CPU     13.95s WALL (      22 calls)
     add_vuspsi   :      5.32s CPU      5.39s WALL (      22 calls)

     General routines
     calbec       :     14.44s CPU     14.59s WALL (      29 calls)
     fft          :     15.81s CPU     16.02s WALL (    2232 calls)
     ffts         :      0.03s CPU      0.03s WALL (       4 calls)
     fftw         :     15.86s CPU     16.00s WALL (   10114 calls)
     interpolate  :      0.03s CPU      0.04s WALL (       2 calls)
 
     Parallel routines

     PAW routines
     PAW_pot      :      0.57s CPU      0.57s WALL (       2 calls)
 
     PWSCF        :   6m13.08s CPU   6m36.44s WALL

 
   This run was terminated on:   8:26:46   3Mar2024            

=------------------------------------------------------------------------------=
   JOB DONE.
=------------------------------------------------------------------------------=
