
     Program PWSCF v.7.2 starts on 27Mar2024 at 22:22:47 

     This program is part of the open-source Quantum ESPRESSO suite
     for quantum simulation of materials; please cite
         "P. Giannozzi et al., J. Phys.:Condens. Matter 21 395502 (2009);
         "P. Giannozzi et al., J. Phys.:Condens. Matter 29 465901 (2017);
         "P. Giannozzi et al., J. Chem. Phys. 152 154105 (2020);
          URL http://www.quantum-espresso.org", 
     in publications or presentations arising from this work. More details at
     http://www.quantum-espresso.org/quote

     Parallel version (MPI & OpenMP), running on      10 processor cores
     Number of MPI processes:                10
     Threads/MPI process:                     1

     MPI processes distributed on     2 nodes
     1968412 MiB available memory on the printing compute node when the environment starts
 
     Reading input from espresso.pwi
Warning: card &CELL ignored
Warning: card    CELL_DYNAMICS    = 'BFGS' ignored
Warning: card / ignored

     Current dimensions of program PWSCF are:
     Max number of different atomic species (ntypx) = 10
     Max number of k-points (npk) =  40000
     Max angular momentum in pseudopotentials (lmaxx) =  4
     file C.pbe-n-kjpaw_psl.1.0.0.UPF: wavefunction(s)  2S 2P renormalized

     **************************************************************************
     Initializing libbeef V0.1.2 with the BEEF-vdW functional.
     Citation: Wellendorff et al., PRB 85, 235149 (2012).
     **************************************************************************


     IMPORTANT: XC functional enforced from input :
     Exchange-correlation= BEEF-VDW
                           (   1   4  43  14   2   0   0)
     Any further DFT definition will be discarded
     Please, verify this is what you really want

 
     R & G space division:  proc/nbgrp/npool/nimage =      10
     Subspace diagonalization in iterative solution of the eigenvalue problem:
     a serial algorithm will be used

 
     Parallelization info
     --------------------
     sticks:   dense  smooth     PW     G-vecs:    dense   smooth      PW
     Min         127     100     29                 3404     2428     395
     Max         129     101     31                 3405     2431     398
     Sum        1273    1005    301                34049    24303    3959
 
     Using Slab Decomposition
 


     bravais-lattice index     =            1
     lattice parameter (alat)  =       6.7507  a.u.
     unit-cell volume          =     307.6390 (a.u.)^3
     number of atoms/cell      =            7
     number of atomic types    =            1
     number of electrons       =        29.00
     number of Kohn-Sham states=           19
     kinetic-energy cutoff     =      70.0000  Ry
     charge density cutoff     =     350.0000  Ry
     scf convergence threshold =      1.0E-07
     mixing beta               =       0.7000
     number of iterations used =            8  plain     mixing
     Exchange-correlation= BEEF-VDW
                           (   1   4  43  14   2   0   0)

     celldm(1)=   6.750674  celldm(2)=   0.000000  celldm(3)=   0.000000
     celldm(4)=   0.000000  celldm(5)=   0.000000  celldm(6)=   0.000000

     crystal axes: (cart. coord. in units of alat)
               a(1) = (   1.000000   0.000000   0.000000 )  
               a(2) = (   0.000000   1.000000   0.000000 )  
               a(3) = (   0.000000   0.000000   1.000000 )  

     reciprocal axes: (cart. coord. in units 2 pi/alat)
               b(1) = (  1.000000  0.000000  0.000000 )  
               b(2) = (  0.000000  1.000000  0.000000 )  
               b(3) = (  0.000000  0.000000  1.000000 )  


     PseudoPot. # 1 for C  read from file:
     /trace/group/acmegroup/atimmins/packages/espresso/pseudo/psl_1.0.0/pslibrary.1.0.0/pbe/PSEUDOPOTENTIALS/C.pbe-n-kjpaw_psl.1.0.0.UPF
     MD5 check sum: 5459cf7f2c8c37df2f7cde8914797f4d
     Pseudo is Projector augmented-wave + core cor, Zval =  4.0
     Generated using 'atomic' code by A. Dal Corso  v.7.1
     Shape of augmentation charge: PSQ
     Using radial grid of 1073 points,  4 beta functions with: 
                l(1) =   0
                l(2) =   0
                l(3) =   1
                l(4) =   1
     Q(r) pseudized with 0 coefficients 


     atomic species   valence    mass     pseudopotential
        C              4.00    12.01100     C ( 1.00)

      6 Sym. Ops. (no inversion) found


                                    s                        frac. trans.

      isym =  1     identity                                     

 cryst.   s( 1) = (     1          0          0      )
                  (     0          1          0      )
                  (     0          0          1      )

 cart.    s( 1) = (  1.0000000  0.0000000  0.0000000 )
                  (  0.0000000  1.0000000  0.0000000 )
                  (  0.0000000  0.0000000  1.0000000 )


      isym =  2     120 deg rotation - cart. axis [1,-1,1]       

 cryst.   s( 2) = (     0          0          1      )
                  (    -1          0          0      )
                  (     0         -1          0      )

 cart.    s( 2) = (  0.0000000 -1.0000000  0.0000000 )
                  (  0.0000000  0.0000000 -1.0000000 )
                  (  1.0000000  0.0000000  0.0000000 )


      isym =  3     120 deg rotation - cart. axis [-1,1,-1]      

 cryst.   s( 3) = (     0         -1          0      )
                  (     0          0         -1      )
                  (     1          0          0      )

 cart.    s( 3) = (  0.0000000  0.0000000  1.0000000 )
                  ( -1.0000000  0.0000000  0.0000000 )
                  (  0.0000000 -1.0000000  0.0000000 )


      isym =  4     inv. 180 deg rotation - cart. axis [1,1,0]   

 cryst.   s( 4) = (     0         -1          0      )
                  (    -1          0          0      )
                  (     0          0          1      )

 cart.    s( 4) = (  0.0000000 -1.0000000  0.0000000 )
                  ( -1.0000000  0.0000000  0.0000000 )
                  (  0.0000000  0.0000000  1.0000000 )


      isym =  5     inv. 180 deg rotation - cart. axis [-1,0,1]  

 cryst.   s( 5) = (     0          0          1      )
                  (     0          1          0      )
                  (     1          0          0      )

 cart.    s( 5) = (  0.0000000  0.0000000  1.0000000 )
                  (  0.0000000  1.0000000  0.0000000 )
                  (  1.0000000  0.0000000  0.0000000 )


      isym =  6     inv. 180 deg rotation - cart. axis [0,1,1]   

 cryst.   s( 6) = (     1          0          0      )
                  (     0          0         -1      )
                  (     0         -1          0      )

 cart.    s( 6) = (  1.0000000  0.0000000  0.0000000 )
                  (  0.0000000  0.0000000 -1.0000000 )
                  (  0.0000000 -1.0000000  0.0000000 )


     point group C_3v (3m)  
     there are  3 classes
     the character table:

       E     2C3   3s_v 
A_1    1.00  1.00  1.00
A_2    1.00  1.00 -1.00
E      2.00 -1.00  0.00

     the symmetry operations in each class and the name of the first element:

     E        1
          identity                                               
     2C3      2    3
          120 deg rotation - cart. axis [1,-1,1]                 
     3s_v     4    5    6
          inv. 180 deg rotation - cart. axis [1,1,0]             

   Cartesian axes

     site n.     atom                  positions (alat units)
         1           C   tau(   1) = (   0.0000000   0.0000000   0.5000000  )
         2           C   tau(   2) = (   0.2500061   0.2500061   0.7499939  )
         3           C   tau(   3) = (   0.0000000   0.5000000   0.0000000  )
         4           C   tau(   4) = (   0.7499939   0.7499939   0.7499939  )
         5           C   tau(   5) = (   0.5000000   0.0000000   0.0000000  )
         6           C   tau(   6) = (   0.7499939   0.2500061   0.2500061  )
         7           C   tau(   7) = (   0.5000000   0.5000000   0.5000000  )

   Crystallographic axes

     site n.     atom                  positions (cryst. coord.)
         1           C   tau(   1) = (  0.0000000  0.0000000  0.5000000  )
         2           C   tau(   2) = (  0.2500061  0.2500061  0.7499939  )
         3           C   tau(   3) = (  0.0000000  0.5000000  0.0000000  )
         4           C   tau(   4) = (  0.7499939  0.7499939  0.7499939  )
         5           C   tau(   5) = (  0.5000000  0.0000000  0.0000000  )
         6           C   tau(   6) = (  0.7499939  0.2500061  0.2500061  )
         7           C   tau(   7) = (  0.5000000  0.5000000  0.5000000  )

     number of k points=    13  Gaussian smearing, width (Ry)=  0.0100
                       cart. coord. in units 2pi/alat
        k(    1) = (   0.0000000   0.0000000   0.0000000), wk =   0.0312500
        k(    2) = (   0.0000000   0.0000000   0.2500000), wk =   0.1875000
        k(    3) = (   0.0000000   0.0000000  -0.5000000), wk =   0.0937500
        k(    4) = (   0.0000000   0.2500000   0.2500000), wk =   0.1875000
        k(    5) = (   0.0000000   0.2500000  -0.5000000), wk =   0.3750000
        k(    6) = (   0.0000000  -0.5000000  -0.5000000), wk =   0.0937500
        k(    7) = (   0.2500000   0.2500000   0.2500000), wk =   0.1875000
        k(    8) = (   0.2500000   0.2500000  -0.5000000), wk =   0.1875000
        k(    9) = (   0.2500000  -0.5000000  -0.5000000), wk =   0.1875000
        k(   10) = (  -0.5000000  -0.5000000  -0.5000000), wk =   0.0312500
        k(   11) = (   0.2500000   0.0000000   0.2500000), wk =   0.1875000
        k(   12) = (   0.2500000  -0.2500000   0.2500000), wk =   0.0625000
        k(   13) = (   0.2500000  -0.2500000  -0.5000000), wk =   0.1875000

                       cryst. coord.
        k(    1) = (   0.0000000   0.0000000   0.0000000), wk =   0.0312500
        k(    2) = (   0.0000000   0.0000000   0.2500000), wk =   0.1875000
        k(    3) = (   0.0000000   0.0000000  -0.5000000), wk =   0.0937500
        k(    4) = (   0.0000000   0.2500000   0.2500000), wk =   0.1875000
        k(    5) = (   0.0000000   0.2500000  -0.5000000), wk =   0.3750000
        k(    6) = (   0.0000000  -0.5000000  -0.5000000), wk =   0.0937500
        k(    7) = (   0.2500000   0.2500000   0.2500000), wk =   0.1875000
        k(    8) = (   0.2500000   0.2500000  -0.5000000), wk =   0.1875000
        k(    9) = (   0.2500000  -0.5000000  -0.5000000), wk =   0.1875000
        k(   10) = (  -0.5000000  -0.5000000  -0.5000000), wk =   0.0312500
        k(   11) = (   0.2500000   0.0000000   0.2500000), wk =   0.1875000
        k(   12) = (   0.2500000  -0.2500000   0.2500000), wk =   0.0625000
        k(   13) = (   0.2500000  -0.2500000  -0.5000000), wk =   0.1875000

     Dense  grid:    34049 G-vectors     FFT dimensions: (  45,  45,  45)

     Smooth grid:    24303 G-vectors     FFT dimensions: (  36,  36,  36)

     Dynamical RAM for                 wfc:       0.09 MB

     Dynamical RAM for     wfc (w. buffer):       1.23 MB

     Dynamical RAM for           str. fact:       0.05 MB

     Dynamical RAM for           local pot:       0.00 MB

     Dynamical RAM for          nlocal pot:       0.26 MB

     Dynamical RAM for                qrad:       0.43 MB

     Dynamical RAM for          rho,v,vnew:       0.39 MB

     Dynamical RAM for               rhoin:       0.13 MB

     Dynamical RAM for            rho*nmix:       0.83 MB

     Dynamical RAM for           G-vectors:       0.21 MB

     Dynamical RAM for          h,s,v(r/c):       0.26 MB

     Dynamical RAM for          <psi|beta>:       0.02 MB

     Dynamical RAM for                 psi:       0.35 MB

     Dynamical RAM for                hpsi:       0.35 MB

     Dynamical RAM for                spsi:       0.35 MB

     Dynamical RAM for      wfcinit/wfcrot:       0.18 MB

     Dynamical RAM for           addusdens:       2.60 MB

     Dynamical RAM for          addusforce:       3.25 MB

     Dynamical RAM for         addusstress:       2.60 MB

     Estimated static dynamical RAM per process >       3.19 MB

     Estimated max dynamical RAM per process >       7.28 MB

     Estimated total dynamical RAM >      72.79 MB

     Atomic positions and unit cell read from directory:
     ./diamond.save/
     Atomic positions from file used, from input discarded
 

     Check: negative core charge=   -0.000014

     The initial density is read from file :
     ./diamond.save/charge-density



     %%%%%%%%%%%%%%%%%%%%%%%%%%%%%%%%%%%%%%%%%%%%%%%%%%%%%%%%%%%%%%%%%%%%%%%%
     %                                                                      %
     % You are using vdW-DF, which was implemented by the Thonhauser group. %
     % Please cite the following two papers that made this development      %
     % possible and the two reviews that describe the various versions:     %
     %                                                                      %
     %   T. Thonhauser et al., PRL 115, 136402 (2015).                      %
     %   T. Thonhauser et al., PRB 76, 125112 (2007).                       %
     %   K. Berland et al., Rep. Prog. Phys. 78, 066501 (2015).             %
     %   D.C. Langreth et al., J. Phys.: Condens. Matter 21, 084203 (2009). %
     %                                                                      %
     % If you are calculating stress with vdW-DF, please also cite:         %
     %                                                                      %
     %   R. Sabatini et al., J. Phys.: Condens. Matter 24, 424209 (2012).   %
     %                                                                      %
     %%%%%%%%%%%%%%%%%%%%%%%%%%%%%%%%%%%%%%%%%%%%%%%%%%%%%%%%%%%%%%%%%%%%%%%%

     %%%%%%%%%%%%%%%%%%%%%%%%%%%%%%%%%%%%%%%%%%%%%%%%%%%%%%%%%%%%%%%%%%%%%%%%
     %                                                                      %
     %  vdW-DF NEWS:                                                        %
     %                                                                      %
     %  * vdW-DF3 is now available. DOI: 10.1021/acs.jctc.0c00471           %
     %    use with input_dft = 'vdW-DF3-opt1' or 'vdW-DF3-opt2'             %
     %                                                                      %
     %  * Unscreened and range-separated hybrid vdW-DF-cx functionals       %
     %    DOI: 10.1063/1.4986522 and 10.1088/1361-648X/ac2ad2               %
     %    use with input_dft = 'vdW-DF-cx0'    and 'vdW-DF-ahcx'            %
     %  * Unscreened and range-separated hybrid vdW-DF2-b86r functionals    %
     %    DOI: 10.1063/1.4986522 and DOI: 10.1103/PhysRevX.12.041003        %
     %    use with input_dft = 'vdW-DF2-br0' and 'vdW-DF2-ahbr'             %
     %                                                                      %
     %%%%%%%%%%%%%%%%%%%%%%%%%%%%%%%%%%%%%%%%%%%%%%%%%%%%%%%%%%%%%%%%%%%%%%%%


     Carrying out vdW-DF run using the following parameters:
     Nqs    =  20  Npoints =  1024  r_max =  100.000
     q_mesh =  0.00001000  0.04494208  0.09755937  0.15916263
               0.23128650  0.31572767  0.41458969  0.53033537
               0.66584808  0.82450364  1.01025438  1.22772762
               1.48234092  1.78043706  2.12944203  2.53805004
               3.01644009  3.57652955  4.23227104  5.00000000


     -----------------------------------------------
     Non-local corr. energy    =       0.25009619 Ry
     -----------------------------------------------

     Starting wfcs from file
     Checking if some PAW data can be deallocated... 

     total cpu time spent up to now is        2.7 secs

     Self-consistent Calculation

     iteration #  1     ecut=    70.00 Ry     beta= 0.70
     Davidson diagonalization with overlap

---- Real-time Memory Report at c_bands before calling an iterative solver
           214 MiB given to the printing process from OS
             0 MiB allocation reported by mallinfo(arena+hblkhd)
       1968388 MiB available memory on the node where the printing process lives
------------------
     ethr =  1.00E-05,  avg # of iterations =  1.0

     Threshold (ethr) on eigenvalues was too large:
     Diagonalizing with lowered threshold

     Davidson diagonalization with overlap

---- Real-time Memory Report at c_bands before calling an iterative solver
           218 MiB given to the printing process from OS
             0 MiB allocation reported by mallinfo(arena+hblkhd)
       1968354 MiB available memory on the node where the printing process lives
------------------
     ethr =  4.44E-13,  avg # of iterations =  3.5


     -----------------------------------------------
     Non-local corr. energy    =       0.25009624 Ry
     -----------------------------------------------


     total cpu time spent up to now is        3.1 secs

     End of self-consistent calculation

          k = 0.0000 0.0000 0.0000 (  2969 PWs)   bands (ev):

   -10.1446  -2.3998  -2.3998  -1.5309  -1.5303  -1.5303   4.3379   4.3383
     4.3383   4.9824   6.6678   6.6678   6.6690  13.8628  13.8629  13.8629
    15.7413  15.7413  15.7430

     occupation numbers 
     1.0000   1.0000   1.0000   1.0000   1.0000   1.0000   1.0000   1.0000
     1.0000   1.0000   1.0000   1.0000   1.0000   0.0000   0.0000   0.0000
     0.0000   0.0000   0.0000

          k = 0.0000 0.0000 0.2500 (  3042 PWs)   bands (ev):

    -9.6418  -5.0689  -2.1490  -1.2517  -1.2512   0.8940   3.5593   3.9164
     3.9167   5.4611   6.2923   6.2930   6.4014  12.5773  12.9720  12.9721
    15.7746  17.6230  17.7701

     occupation numbers 
     1.0000   1.0000   1.0000   1.0000   1.0000   1.0000   1.0000   1.0000
     1.0000   1.0000   1.0000   1.0000   1.0000   0.0006   0.0000   0.0000
     0.0000   0.0000   0.0000

          k = 0.0000 0.0000-0.5000 (  3026 PWs)   bands (ev):

    -8.6935  -6.9510  -1.8455  -0.9041  -0.9035   2.8020   3.0490   3.2810
     3.2815   3.3644   6.2301   6.2308   9.3812   9.8373  12.1899  12.1900
    15.9552  17.7256  20.9382

     occupation numbers 
     1.0000   1.0000   1.0000   1.0000   1.0000   1.0000   1.0000   1.0000
     1.0000   1.0000   1.0000   1.0000   1.0000   1.0000   0.7885   0.7882
     0.0000   0.0000   0.0000

          k = 0.0000 0.2500 0.2500 (  3031 PWs)   bands (ev):

    -9.1378  -5.0510  -4.2289  -1.1897  -0.1101   1.9709   1.9794   4.1331
     4.6623   4.6659   5.3236   6.8351   7.5915  10.9724  12.1017  13.3867
    17.2780  17.4593  18.3756

     occupation numbers 
     1.0000   1.0000   1.0000   1.0000   1.0000   1.0000   1.0000   1.0000
     1.0000   1.0000   1.0000   1.0000   1.0000   1.0000   0.9571   0.0000
     0.0000   0.0000   0.0000

          k = 0.0000 0.2500-0.5000 (  3016 PWs)   bands (ev):

    -8.1665  -6.5921  -4.0674  -1.4538   0.5022   1.3545   2.6298   3.2072
     4.6387   4.6925   5.7809   6.4387   9.3375   9.4504  12.0613  12.2434
    17.8935  19.2187  19.9506

     occupation numbers 
     1.0000   1.0000   1.0000   1.0000   1.0000   1.0000   1.0000   1.0000
     1.0000   1.0000   1.0000   1.0000   1.0000   1.0000   0.9837   0.5966
     0.0000   0.0000   0.0000

          k = 0.0000-0.5000-0.5000 (  3048 PWs)   bands (ev):

    -6.9714  -6.1005  -6.1004  -2.4429   1.5161   2.0633   2.3905   2.3907
     4.1103   4.1110   6.7523   7.8046   8.7362   8.9701  12.5524  12.5529
    18.8632  18.8633  20.8123

     occupation numbers 
     1.0000   1.0000   1.0000   1.0000   1.0000   1.0000   1.0000   1.0000
     1.0000   1.0000   1.0000   1.0000   1.0000   1.0000   0.0015   0.0015
     0.0000   0.0000   0.0000

          k = 0.2500 0.2500 0.2500 (  3058 PWs)   bands (ev):

    -8.6344  -4.7204  -4.7202  -2.6889   0.7674   0.7677   2.3152   3.7416
     3.7419   5.7534   6.9935   6.9947   7.6176   9.8819  13.0695  13.0697
    17.5204  17.5207  18.1890

     occupation numbers 
     1.0000   1.0000   1.0000   1.0000   1.0000   1.0000   1.0000   1.0000
     1.0000   1.0000   1.0000   1.0000   1.0000   1.0000   0.0000   0.0000
     0.0000   0.0000   0.0000

          k = 0.2500 0.2500-0.5000 (  3050 PWs)   bands (ev):

    -7.6454  -6.2374  -4.2808  -2.4705  -0.3566   0.2474   1.7458   3.9434
     5.7106   6.2226   6.5193   6.8354   7.0926  11.1033  12.2913  12.8158
    18.0176  19.6891  19.7978

     occupation numbers 
     1.0000   1.0000   1.0000   1.0000   1.0000   1.0000   1.0000   1.0000
     1.0000   1.0000   1.0000   1.0000   1.0000   1.0000   0.4003   0.0000
     0.0000   0.0000   0.0000

          k = 0.2500-0.5000-0.5000 (  3060 PWs)   bands (ev):

    -6.4433  -5.7530  -5.7529  -2.7471  -0.9671   0.1542   0.1545   5.2409
     5.9238   6.4463   6.4469   6.8751   7.8204  11.9240  12.8630  12.8634
    18.9946  18.9948  19.7537

     occupation numbers 
     1.0000   1.0000   1.0000   1.0000   1.0000   1.0000   1.0000   1.0000
     1.0000   1.0000   1.0000   1.0000   1.0000   0.9998   0.0000   0.0000
     0.0000   0.0000   0.0000

          k =-0.5000-0.5000-0.5000 (  3112 PWs)   bands (ev):

    -5.2842  -5.2839  -5.2839  -4.3233  -1.2246  -1.2246  -1.2240   4.6380
     7.0119   7.0119   7.8253   7.8263   7.8263  13.2720  13.2724  13.2724
    19.0184  19.0184  19.0201

     occupation numbers 
     1.0000   1.0000   1.0000   1.0000   1.0000   1.0000   1.0000   1.0000
     1.0000   1.0000   1.0000   1.0000   1.0000   0.0000   0.0000   0.0000
     0.0000   0.0000   0.0000

          k = 0.2500 0.0000 0.2500 (  3031 PWs)   bands (ev):

    -9.1378  -5.0509  -4.2291  -1.1898  -0.1102   1.9708   1.9797   4.1328
     4.6628   4.6665   5.3239   6.8341   7.5912  10.9723  12.1017  13.3868
    17.2782  17.4586  18.3761

     occupation numbers 
     1.0000   1.0000   1.0000   1.0000   1.0000   1.0000   1.0000   1.0000
     1.0000   1.0000   1.0000   1.0000   1.0000   1.0000   0.9571   0.0000
     0.0000   0.0000   0.0000

          k = 0.2500-0.2500 0.2500 (  3058 PWs)   bands (ev):

    -8.6344  -4.7202  -4.7202  -2.6894   0.7672   0.7672   2.3160   3.7426
     3.7426   5.7529   6.9934   6.9934   7.6175   9.8816  13.0696  13.0696
    17.5197  17.5197  18.1910

     occupation numbers 
     1.0000   1.0000   1.0000   1.0000   1.0000   1.0000   1.0000   1.0000
     1.0000   1.0000   1.0000   1.0000   1.0000   1.0000   0.0000   0.0000
     0.0000   0.0000   0.0000

          k = 0.2500-0.2500-0.5000 (  3050 PWs)   bands (ev):

    -7.6454  -6.2374  -4.2806  -2.4709  -0.3570   0.2476   1.7462   3.9443
     5.7109   6.2220   6.5193   6.8346   7.0927  11.1035  12.2910  12.8158
    18.0170  19.6879  19.7985

     occupation numbers 
     1.0000   1.0000   1.0000   1.0000   1.0000   1.0000   1.0000   1.0000
     1.0000   1.0000   1.0000   1.0000   1.0000   1.0000   0.4012   0.0000
     0.0000   0.0000   0.0000

     the Fermi energy is    12.2669 ev

!    total energy              =    -131.65774657 Ry
     total all-electron energy =      -536.006426 Ry
     estimated scf accuracy    <          1.5E-10 Ry
     smearing contrib. (-TS)   =      -0.00279532 Ry
     internal energy E=F+TS    =    -131.65495125 Ry

     The total energy is F=E-TS. E is the sum of the following terms:
     one-electron contribution =      20.53384130 Ry
     hartree contribution      =      10.15404081 Ry
     xc contribution           =     -34.67710143 Ry
     ewald contribution        =     -81.83381079 Ry
     one-center paw contrib.   =     -45.83192114 Ry
      -> PAW hartree energy AE =       8.71731433 Ry
      -> PAW hartree energy PS =      -8.70827014 Ry
      -> PAW xc energy AE      =     -11.05934280 Ry
      -> PAW xc energy PS      =       4.49939216 Ry
      -> total E_H with PAW    =      10.16308500 Ry
      -> total E_XC with PAW   =     -41.23705207 Ry

     convergence has been achieved in   1 iterations


     -----------------------------------------------
     Non-local corr. energy    =       0.25009624 Ry
     -----------------------------------------------


     Forces acting on atoms (cartesian axes, Ry/au):

     atom    1 type  1   force =     0.00000591   -0.00000591   -0.00003859
     atom    2 type  1   force =    -0.00001426    0.00000381   -0.00000381
     atom    3 type  1   force =     0.00000591    0.00003859    0.00000591
     atom    4 type  1   force =    -0.00000381    0.00001426   -0.00000381
     atom    5 type  1   force =    -0.00003859   -0.00000591    0.00000591
     atom    6 type  1   force =    -0.00000381    0.00000381   -0.00001426
     atom    7 type  1   force =     0.00004864   -0.00004864    0.00004864
     The non-local contrib.  to forces
     atom    1 type  1   force =    -0.28164609    0.28164609    0.28165780
     atom    2 type  1   force =     0.00005178    0.00001530   -0.00001530
     atom    3 type  1   force =    -0.28164609   -0.28165780   -0.28164609
     atom    4 type  1   force =    -0.00001530   -0.00005178   -0.00001530
     atom    5 type  1   force =     0.28165780    0.28164609   -0.28164609
     atom    6 type  1   force =    -0.00001530    0.00001530    0.00005178
     atom    7 type  1   force =     0.28166636   -0.28166636    0.28166636
     The ionic contribution  to forces
     atom    1 type  1   force =     1.83444232   -1.83444247   -1.83471765
     atom    2 type  1   force =    -0.00005101   -0.00042266    0.00042268
     atom    3 type  1   force =     1.83444237    1.83471775    1.83444237
     atom    4 type  1   force =     0.00042268    0.00005105    0.00042268
     atom    5 type  1   force =    -1.83471765   -1.83444247    1.83444232
     atom    6 type  1   force =     0.00042268   -0.00042266   -0.00005101
     atom    7 type  1   force =    -1.83496140    1.83496146   -1.83496140
     The local contribution  to forces
     atom    1 type  1   force =    -1.55709910    1.55709910    1.55721786
     atom    2 type  1   force =    -0.00011312    0.00027745   -0.00027725
     atom    3 type  1   force =    -1.55709906   -1.55721769   -1.55709906
     atom    4 type  1   force =    -0.00027725    0.00011323   -0.00027725
     atom    5 type  1   force =     1.55721786    1.55709910   -1.55709910
     atom    6 type  1   force =    -0.00027725    0.00027745   -0.00011312
     atom    7 type  1   force =     1.55759322   -1.55759309    1.55759322
     The core correction contribution to forces
     atom    1 type  1   force =     0.00435409   -0.00435409   -0.00414426
     atom    2 type  1   force =     0.00015382    0.00009058   -0.00009059
     atom    3 type  1   force =     0.00435409    0.00414425    0.00435409
     atom    4 type  1   force =    -0.00009059   -0.00015383   -0.00009059
     atom    5 type  1   force =    -0.00414426   -0.00435409    0.00435409
     atom    6 type  1   force =    -0.00009059    0.00009058    0.00015382
     atom    7 type  1   force =    -0.00419869    0.00419868   -0.00419869
     The Hubbard contrib.    to forces
     atom    1 type  1   force =     0.00000000    0.00000000    0.00000000
     atom    2 type  1   force =     0.00000000    0.00000000    0.00000000
     atom    3 type  1   force =     0.00000000    0.00000000    0.00000000
     atom    4 type  1   force =     0.00000000    0.00000000    0.00000000
     atom    5 type  1   force =     0.00000000    0.00000000    0.00000000
     atom    6 type  1   force =     0.00000000    0.00000000    0.00000000
     atom    7 type  1   force =     0.00000000    0.00000000    0.00000000
     The SCF correction term to forces
     atom    1 type  1   force =     0.00000384   -0.00000384   -0.00000303
     atom    2 type  1   force =    -0.00000646   -0.00000594    0.00000594
     atom    3 type  1   force =     0.00000384    0.00000303    0.00000384
     atom    4 type  1   force =     0.00000594    0.00000646    0.00000594
     atom    5 type  1   force =    -0.00000303   -0.00000384    0.00000384
     atom    6 type  1   force =     0.00000594   -0.00000594   -0.00000646
     atom    7 type  1   force =    -0.00000158    0.00000158   -0.00000158

     Total force =     0.000112     Total SCF correction =     0.000021
     SCF correction compared to forces is large: reduce conv_thr to get better values


     Computing stress (Cartesian axis) and pressure



     -----------------------------------------------
     Non-local corr. energy    =       0.25009624 Ry
     -----------------------------------------------

          total   stress  (Ry/bohr**3)                   (kbar)     P=      534.66
   0.00363457   0.00000037  -0.00000037          534.66        0.05       -0.05
   0.00000037   0.00363457   0.00000037            0.05      534.66        0.05
  -0.00000037   0.00000037   0.00363457           -0.05        0.05      534.66

     kinetic stress (kbar)  16896.24     -0.13      0.13
                               -0.13  16896.24     -0.13
                                0.13     -0.13  16896.24

     local   stress (kbar)  -4640.19     -0.79      0.79
                               -0.79  -4640.19     -0.79
                                0.79     -0.79  -4640.19

     nonloc. stress (kbar)   4007.27      0.03     -0.03
                                0.03   4007.27      0.03
                               -0.03      0.03   4007.27

     hartree stress (kbar)   1618.47      0.12     -0.12
                                0.12   1618.47      0.12
                               -0.12      0.12   1618.47

     exc-cor stress (kbar)   -442.85     -0.00      0.00
                               -0.00   -442.85     -0.00
                                0.00     -0.00   -442.85

     corecor stress (kbar)  -3884.68      0.02     -0.02
                                0.02  -3884.68      0.02
                               -0.02      0.02  -3884.68

     ewald   stress (kbar) -13043.61      0.81     -0.81
                                0.81 -13043.61      0.81
                               -0.81      0.81 -13043.61

     hubbard stress (kbar)      0.00      0.00      0.00
                                0.00      0.00      0.00
                                0.00      0.00      0.00

     DFT-D   stress (kbar)      0.00      0.00      0.00
                                0.00      0.00      0.00
                                0.00      0.00      0.00

     XDM     stress (kbar)      0.00      0.00      0.00
                                0.00      0.00      0.00
                                0.00      0.00      0.00

     dft-nl  stress (kbar)     24.02     -0.00      0.00
                               -0.00     24.02     -0.00
                                0.00     -0.00     24.02

     TS-vdW  stress (kbar)      0.00      0.00      0.00
                                0.00      0.00      0.00
                                0.00      0.00      0.00

     MDB     stress (kbar)      0.00      0.00      0.00
                                0.00      0.00      0.00
                                0.00      0.00      0.00

     3D-RISM stress (kbar)      0.00      0.00      0.00
                                0.00      0.00      0.00
                                0.00      0.00      0.00



     -----------------------------------------------
     Non-local corr. energy    =       0.25009624 Ry
     -----------------------------------------------



     -----------------------------------------------
     Non-local corr. energy    =       0.25009624 Ry
     -----------------------------------------------



     -----------------------------------------------
     Non-local corr. energy    =       0.25009624 Ry
     -----------------------------------------------



     -----------------------------------------------
     Non-local corr. energy    =       0.25009624 Ry
     -----------------------------------------------



     -----------------------------------------------
     Non-local corr. energy    =       0.25009624 Ry
     -----------------------------------------------



     -----------------------------------------------
     Non-local corr. energy    =       0.25009624 Ry
     -----------------------------------------------



     -----------------------------------------------
     Non-local corr. energy    =       0.25009624 Ry
     -----------------------------------------------



     -----------------------------------------------
     Non-local corr. energy    =       0.25009624 Ry
     -----------------------------------------------



     -----------------------------------------------
     Non-local corr. energy    =       0.25009624 Ry
     -----------------------------------------------



     -----------------------------------------------
     Non-local corr. energy    =       0.25009624 Ry
     -----------------------------------------------



     -----------------------------------------------
     Non-local corr. energy    =       0.25009624 Ry
     -----------------------------------------------



     -----------------------------------------------
     Non-local corr. energy    =       0.25009624 Ry
     -----------------------------------------------



     -----------------------------------------------
     Non-local corr. energy    =       0.25009624 Ry
     -----------------------------------------------



     -----------------------------------------------
     Non-local corr. energy    =       0.25009624 Ry
     -----------------------------------------------



     -----------------------------------------------
     Non-local corr. energy    =       0.25009624 Ry
     -----------------------------------------------



     -----------------------------------------------
     Non-local corr. energy    =       0.25009624 Ry
     -----------------------------------------------



     -----------------------------------------------
     Non-local corr. energy    =       0.25009624 Ry
     -----------------------------------------------



     -----------------------------------------------
     Non-local corr. energy    =       0.25009624 Ry
     -----------------------------------------------



     -----------------------------------------------
     Non-local corr. energy    =       0.25009624 Ry
     -----------------------------------------------



     -----------------------------------------------
     Non-local corr. energy    =       0.25009624 Ry
     -----------------------------------------------



     -----------------------------------------------
     Non-local corr. energy    =       0.25009624 Ry
     -----------------------------------------------



     -----------------------------------------------
     Non-local corr. energy    =       0.25009624 Ry
     -----------------------------------------------



     -----------------------------------------------
     Non-local corr. energy    =       0.25009624 Ry
     -----------------------------------------------



     -----------------------------------------------
     Non-local corr. energy    =       0.25009624 Ry
     -----------------------------------------------



     -----------------------------------------------
     Non-local corr. energy    =       0.25009624 Ry
     -----------------------------------------------



     -----------------------------------------------
     Non-local corr. energy    =       0.25009624 Ry
     -----------------------------------------------



     -----------------------------------------------
     Non-local corr. energy    =       0.25009624 Ry
     -----------------------------------------------



     -----------------------------------------------
     Non-local corr. energy    =       0.25009624 Ry
     -----------------------------------------------



     -----------------------------------------------
     Non-local corr. energy    =       0.25009624 Ry
     -----------------------------------------------



     -----------------------------------------------
     Non-local corr. energy    =       0.25009624 Ry
     -----------------------------------------------



     -----------------------------------------------
     Non-local corr. energy    =       0.25009624 Ry
     -----------------------------------------------



     -----------------------------------------------
     Non-local corr. energy    =       0.25009624 Ry
     -----------------------------------------------



     -----------------------------------------------
     Non-local corr. energy    =       0.25009624 Ry
     -----------------------------------------------



     -----------------------------------------------
     Non-local corr. energy    =       0.25009624 Ry
     -----------------------------------------------

 BEEFens 2000 ensemble energies
             -0.254859571145979E+01
             -0.164787267677222E+00
             -0.571384268800294E+00
              0.172863311055164E+01
             -0.761294747564134E+00
             -0.646541257498365E+00
             -0.177392634375744E+01
             -0.380403862186545E+01
             -0.140266411498866E+01
             -0.144291974617169E+01
             -0.150514281341528E+01
              0.218016394453970E+00
              0.233691669861870E+00
             -0.205798944619585E+00
              0.168773285935880E+00
              0.186627437157329E+01
             -0.747580740554839E+00
             -0.475881417710129E+00
              0.969117947300681E+00
             -0.432441536646290E+01
              0.225278901815056E+01
             -0.770565421352863E+00
             -0.227491887937413E+00
             -0.295419227312806E+00
              0.112833977734397E-01
             -0.233036866812189E+00
              0.339907665187098E+01
             -0.916528911223971E+00
             -0.357279620183693E+00
             -0.227890993035734E+01
              0.273135339052869E+01
             -0.240829737245652E+00
             -0.164783383946077E+01
              0.777802416046625E+00
             -0.831999512921655E-01
              0.113984670848319E+01
              0.102882250718302E+00
             -0.843929812736377E-02
              0.146755693606794E+01
             -0.393134821453135E+01
              0.208691174941059E+01
              0.509481927060699E+00
             -0.414868415417256E+00
             -0.127113134266276E+01
              0.454659869508811E+00
             -0.652532712425110E+00
              0.198056816360135E+01
              0.136641848255756E+01
             -0.741906349139978E+00
             -0.130883410306854E+01
             -0.126244944171071E+01
             -0.141522832839713E+01
              0.773617957837430E+00
             -0.209293432109015E+01
              0.611935291448027E+00
              0.241967575962776E+01
              0.295804562946824E+01
              0.118440233982495E+01
              0.630172833504536E+00
              0.124625601697143E+01
              0.346287453118948E+01
              0.668321949747344E+00
             -0.213729441201251E+01
             -0.351023524449392E+00
             -0.110302537558533E+01
              0.252146664532237E+01
             -0.279561082249451E+01
             -0.230288118443102E+01
             -0.123367865613786E+01
             -0.648553864748326E+00
             -0.164475085973770E+01
              0.103685008736671E+01
              0.450960091092195E+00
              0.635649133322131E+00
             -0.142255013561207E+01
             -0.142459882157733E+01
             -0.232455040747707E+01
              0.126454337339965E+01
             -0.132218073314978E+01
              0.113945534641667E+01
             -0.264878112736235E+00
             -0.110486366006043E+01
             -0.203608797508505E+01
             -0.668576838076296E+00
             -0.694796796186782E+00
             -0.606152537604836E+00
              0.144341025733581E+01
              0.300805336367158E+01
             -0.180579883799607E+01
             -0.318079953394742E+01
             -0.726774062620803E+00
              0.426737915692006E+01
             -0.212231702736121E+01
              0.123160217962955E+01
             -0.551301622471573E+00
             -0.232914570881150E+01
              0.104791493910714E+01
              0.120785227351324E+01
             -0.642838463474355E+00
              0.114958554577564E+01
             -0.984325278210221E+00
             -0.240304738837802E+01
              0.392394214558814E+01
              0.186965299409334E+01
              0.819636625217749E+00
              0.607369917111619E+00
              0.996224057333735E+00
              0.322997555861533E+01
             -0.951301141232324E+00
              0.101029069510883E+00
             -0.544373017922909E+01
              0.645346642664499E+00
             -0.263203064306650E+01
              0.466625661720476E+00
              0.842283472486068E+00
             -0.149119144633435E+01
             -0.195348804604039E+01
              0.148821608637160E+00
             -0.119486697242125E+01
              0.174707052580485E+01
             -0.182669282339473E+01
             -0.288141988600799E+00
             -0.150308222245615E+01
             -0.221882815203811E+00
              0.228308814576272E+00
              0.918247073294852E+00
             -0.208333051207887E-01
             -0.210234379421841E+00
              0.257209766853624E+01
              0.359273169727688E+01
              0.194996401388230E+01
              0.259256814130157E+01
             -0.448150026657863E+00
              0.461763317835853E+00
              0.199836691339689E+01
              0.177561857815740E+00
             -0.289096761477415E+01
             -0.165782662459134E+01
             -0.187312063426657E+01
             -0.110981662651619E+01
              0.101821648642083E+01
             -0.481440770130687E+01
             -0.477701528140948E+00
              0.189564561795120E+01
             -0.155838422435309E+01
             -0.111174818261695E+01
              0.231897303399304E+01
              0.184953980512659E+01
             -0.105651138227912E+01
              0.121003732132796E+01
             -0.928459010890163E+00
              0.144842130665853E+01
              0.282395961972462E+00
              0.457644359680186E+00
             -0.316355455540195E+01
             -0.185432731845298E+01
             -0.256185085929943E+00
              0.505794268271187E-01
             -0.166418802226654E+01
              0.434046731842544E+01
             -0.478747046489836E+00
             -0.103059985755217E+01
              0.155321973649664E+01
             -0.180302918186386E+01
             -0.152082282565722E+01
              0.133556800833562E+01
              0.534861359981751E+00
              0.440018368106831E+00
              0.655675845030035E+00
             -0.437843854598176E+00
              0.394986589550111E+00
              0.228473614645620E+01
             -0.106236607935214E+01
              0.904318346748294E+00
              0.343361142546740E+01
              0.124199414025873E+01
             -0.182976216383700E+00
             -0.861236126821407E+00
              0.612993652220096E+01
             -0.964980170659425E+00
              0.149460096788416E+01
              0.117436886049170E+01
              0.111022882735627E+01
              0.364108377696333E+01
              0.190392886741374E+01
             -0.281928670645996E+00
              0.103291373425443E+01
              0.206422178826195E+01
              0.155999069462458E+01
             -0.233144409914730E+01
              0.366141860077006E+01
             -0.320507654268586E+01
             -0.451184046602757E+00
              0.223500143823559E+01
              0.679421616359887E+00
              0.348890643697544E+00
              0.108975594369151E+01
              0.641934510394371E+00
              0.129667600027484E+01
             -0.251570514668015E+01
              0.141447611111321E+00
             -0.932243324723132E+00
             -0.324552632684157E+00
             -0.166389812968372E+00
             -0.479465260828396E+00
             -0.228874430996123E+00
              0.318267018570491E+01
             -0.234891803192133E+00
             -0.110022557447955E+01
             -0.401079604091822E-01
              0.605769653356636E+00
             -0.255042847986274E+01
             -0.213502916322682E+01
             -0.138963391248922E+01
             -0.249685317284970E+01
             -0.827142837129818E+00
             -0.162265091363108E+01
              0.708967810078915E+00
              0.101306423218604E+00
             -0.478160666491894E+00
             -0.320922925335230E+00
              0.174951095260486E+00
             -0.490628543514366E+00
              0.254341872008086E+01
             -0.338125477084428E+01
             -0.558373974717695E+00
             -0.537334167281971E+00
              0.552853322460432E+00
              0.906948231382407E+00
             -0.206262449484946E+01
             -0.560654353308388E+00
              0.171706718258086E+01
             -0.729614647124573E+00
              0.562092027596846E+00
              0.126668866713972E+01
             -0.735228649100357E-01
              0.457578002059049E+01
             -0.528091624384658E+00
             -0.131222260203538E+01
              0.590885640948251E-01
             -0.103680284968919E+01
              0.227576192007684E+01
             -0.180091770648560E+01
              0.525412579185549E+00
              0.208486380442094E+01
             -0.441393818015285E+00
              0.462012114324297E+01
              0.500089644337285E+01
             -0.265981107831800E+01
              0.225311002431333E+01
              0.952990150644627E+00
             -0.219322541988866E+01
              0.685455998097406E+00
              0.163099709717772E+01
              0.182213585605536E+01
              0.174813544566481E+00
              0.642947055215387E+00
              0.285248977049590E+01
             -0.926024827430352E+00
              0.362437454002820E+00
              0.267558047783571E+01
             -0.144062744961241E+01
             -0.906940751262946E+00
              0.226707007864355E+01
              0.120960489926961E+01
              0.311170406915258E+01
              0.124959267854581E+01
              0.479077693854723E+00
              0.105499540062190E+01
              0.161089755551693E+01
             -0.201770295628290E+01
              0.317640730024580E+00
              0.994201456506344E+00
              0.523386001222484E+00
              0.919545173636594E+00
             -0.233626803782840E+01
              0.130028323594892E+01
             -0.173746468892781E+01
             -0.120476640920601E+01
              0.732787276760675E+00
             -0.334709754271139E+00
              0.239310906522022E+01
             -0.554703124504599E+00
              0.117485393511070E+01
              0.128749826016520E+01
              0.305769641593494E+01
              0.201406340061610E+01
              0.189542515228705E+01
             -0.858153572215610E-01
             -0.464026030337115E+00
             -0.108111904809085E+01
              0.319047852577970E+01
              0.326647447370510E+01
              0.158414092211528E+01
             -0.108053145003877E+01
              0.197867167488312E+01
             -0.266706022428504E-01
              0.612807089961978E+00
              0.269040453894491E+01
             -0.140258283764583E-01
             -0.370451357601215E+00
             -0.803809947430430E+00
             -0.232342485771525E+01
              0.375401527736528E+01
              0.197099085195149E+01
             -0.253027774219888E+01
             -0.843248441747221E+00
              0.100499054425130E+01
             -0.331439449553299E+00
              0.261806475161772E+01
              0.632813474070383E+00
              0.328717820295338E+01
              0.120483074203893E+01
             -0.996983844271981E+00
              0.815597093955633E+00
             -0.294049575278189E+00
             -0.107709291253029E+01
              0.645096346226653E+00
              0.640478256013061E+00
              0.353379315745583E+01
              0.303270906142022E+01
              0.220622488469118E+01
              0.263996999851525E+01
              0.176911914348806E+00
             -0.938405469662914E+00
              0.577327755895931E+00
             -0.133668776931156E+01
             -0.218240770570779E+01
             -0.223852879989437E+01
             -0.124419636730510E+01
             -0.420178796405051E+01
             -0.142752450532601E+01
             -0.338436986254719E+01
              0.846828226898124E+00
             -0.173461767349329E+01
              0.196891473594462E+01
             -0.388307596403532E+01
             -0.118613581287693E+01
              0.159620955317681E+01
              0.900313467951630E+00
             -0.357585662513328E+01
              0.218890157343645E+01
             -0.109576301970390E+01
              0.216168653514122E+01
             -0.107803003382104E+01
             -0.311030358181713E+01
              0.698489607186611E+00
             -0.265179732343829E+01
             -0.148398896390626E+00
             -0.371051558939416E-01
              0.164059462089424E+01
              0.497597022802323E+01
             -0.169320782480566E+01
             -0.155482707916582E+01
             -0.182543126886948E+00
             -0.262498719500261E+00
             -0.322037327034464E+01
             -0.218789128273141E+01
              0.193853524061591E+01
             -0.751632980858894E+00
              0.940315928566603E+00
             -0.198274147787173E+01
             -0.668126928995161E+00
             -0.165699079723784E+01
              0.197894443436095E+01
              0.542521971301486E+00
             -0.942630733076673E+00
             -0.715681229461303E+00
              0.475446973412358E+00
             -0.269355519116438E+00
              0.167326005112471E+01
             -0.102098343155209E+01
              0.353890688524434E+00
              0.125978314323634E+01
              0.543461267388111E+00
             -0.858682114274428E+00
              0.611066965338215E+01
              0.226962789789012E+01
              0.410817765422451E+00
              0.396354043752353E+00
             -0.231721833268038E+01
              0.134293062571242E+01
             -0.313511097694830E+01
             -0.135211516365468E+01
             -0.226747358267368E+01
             -0.730586762010695E+00
              0.230018708967345E+01
             -0.221262320679656E+01
              0.102796404657278E+01
             -0.121681906187487E+00
              0.107016200012607E+00
             -0.129863977427686E+01
             -0.167964323008779E+01
             -0.181234359092624E+00
             -0.131772521892347E+01
             -0.933882418805387E+00
             -0.164928414648027E+01
             -0.257401114979148E+00
             -0.128493688635405E+01
             -0.193273453395413E+01
              0.762367801486774E+00
             -0.549823841499636E+00
              0.913909199845193E+00
              0.261712875091534E+00
             -0.296222705831119E+01
             -0.200121409441915E+01
             -0.190286619209555E+01
              0.125523959636606E+01
             -0.248198012607858E+00
             -0.243660235576492E+01
              0.218902343458311E+01
             -0.163424378376732E+01
              0.236496101687908E+01
             -0.118139909464212E+01
             -0.189464337209757E+01
              0.106972356991956E+01
             -0.288749485112275E+01
             -0.119225234466599E+01
              0.222325516428473E+01
              0.727055145308260E+00
             -0.165244711610347E+01
              0.203417859684816E+01
             -0.611527787463871E+00
             -0.138522828211791E+01
             -0.115093894151162E+01
             -0.202359691797775E+01
              0.977100979505073E+00
             -0.336814382400899E+01
             -0.298406401818596E+01
             -0.313981694968120E+00
             -0.116881730584685E+01
             -0.231741369998166E+01
              0.305980417546485E+01
              0.540876023621526E+01
             -0.870907667507417E+00
             -0.194842010691023E+00
             -0.228001203049655E+01
              0.265517889480380E+01
              0.828612361781873E+00
             -0.765150545734208E+00
             -0.142077106262946E+01
              0.620838441148806E+00
             -0.236879549462379E+01
             -0.440798239135301E+00
             -0.341773697390095E+01
              0.137695695414759E+01
              0.406425558675709E+00
             -0.252434668521502E+00
             -0.430982476576965E+00
             -0.158960131791761E+01
             -0.440679634601338E+00
              0.523234968082523E+01
             -0.692868289419053E+00
             -0.180232456113081E+01
             -0.275106778782880E+01
              0.490306666943894E+00
             -0.148343579910921E+01
              0.390541185538042E+00
              0.128784231173834E+01
              0.178917375960799E+00
              0.132461414692411E+01
              0.653624513929861E+00
              0.233215781227313E+01
              0.100352333051361E+01
             -0.141766240543239E+01
              0.209727700463698E+01
              0.136180048892239E+01
              0.513707525239667E+00
              0.138915718111527E+01
             -0.124739518699614E+01
              0.287828979488343E+01
              0.104557154074622E+01
             -0.135851889324722E+01
             -0.116590993065977E+00
             -0.628955781514536E+00
              0.655991295088477E+00
             -0.104599336145072E+01
             -0.425181862680629E+00
             -0.457241371151252E+00
              0.327864353550674E+01
              0.221731985033832E+01
             -0.255931959607468E+01
             -0.291992459943620E+00
             -0.197813373892526E+01
             -0.582021755953225E+00
             -0.776326608499037E+00
              0.414258549545895E+00
             -0.148037858209271E+00
             -0.106396496676741E+01
              0.671167206722558E+00
             -0.372387585365888E+00
             -0.258009896822001E+00
              0.351474458373985E+01
              0.610315689927081E+00
             -0.323584134074688E+01
             -0.143289422164431E+01
              0.377858147617174E+01
              0.951739039430421E+00
             -0.356845333982076E+00
              0.425503696208232E+01
             -0.735064758416863E+00
             -0.320737775839218E+00
             -0.378861294753218E+00
              0.556155575305393E+00
              0.127589373387883E+01
              0.112238032323027E+00
              0.114419096520274E+01
             -0.499143277535820E+00
             -0.151608498304565E+01
             -0.152464790197977E+01
             -0.185622007405588E+01
              0.153706515321253E+01
              0.573621707272455E+00
              0.145844616154306E+01
              0.555102184071961E+00
              0.352400517506684E+01
              0.868060339091349E+00
             -0.309817277281732E+01
             -0.125887239999849E+01
              0.173540586693219E+00
             -0.112910567093467E+01
              0.252586240938310E+01
             -0.623581301199906E+00
              0.745951645091994E+00
              0.220150521201392E+01
             -0.317892233012133E+01
              0.583977524699445E+01
              0.723056545204096E+00
              0.100770205750981E+01
              0.145669519855071E+01
              0.124783495226687E+00
             -0.103759073632677E+00
              0.132153920843995E+01
             -0.129389333803154E+01
              0.336950127970950E+01
              0.289955064390009E+01
             -0.152061236054910E+01
              0.555511264902947E+00
              0.287075223561138E+01
             -0.889912416437154E+00
              0.802192476128548E+00
              0.133339918256140E+01
              0.163589324832071E+01
             -0.291489838459859E+01
             -0.233080432488684E+00
             -0.112040964878427E+01
             -0.160483415036264E+00
             -0.190275477285331E+00
              0.156388878341389E+00
             -0.489337082512421E+00
             -0.113922309658263E+01
              0.559052868174066E+00
              0.247288951101838E+00
              0.206468636096739E+01
             -0.178496050780374E+01
              0.176145687630050E+01
              0.187446189484934E+01
             -0.461007214439022E+00
              0.305138962109428E+01
             -0.270506529871261E+01
             -0.407591981213541E+01
             -0.370149156663169E+00
             -0.215057159992035E+00
             -0.480147192069076E-01
              0.305840494286175E+01
             -0.960916630009523E-01
              0.166806187916614E+01
              0.226339886149029E+01
              0.154579457381270E+01
             -0.307087173381799E+00
              0.237610867375918E+01
             -0.618559253567760E+00
             -0.151540187458529E+01
             -0.134830237755926E+01
              0.456625438482159E+00
              0.136852479203984E+01
             -0.113207785716368E+00
              0.138340373446743E+01
             -0.554382845673125E-01
              0.228573361304020E+01
              0.705856535175607E+00
              0.339539307800807E+00
              0.673639898361778E-01
              0.117663227658661E+01
              0.165944108774332E+01
              0.649959727271497E+00
             -0.154374484562084E+00
             -0.217183011160234E+01
              0.120539403339855E+01
              0.830657144322929E+00
              0.133695226589667E+01
              0.118690613742020E+01
              0.150724642871747E+01
             -0.460291445277002E+00
              0.127295261586743E+01
             -0.112453973815473E+01
             -0.255779971448504E-01
             -0.207656602721562E+01
             -0.144980619546343E+01
              0.169627079433663E+01
             -0.345310150304959E+01
              0.957721929898327E+00
              0.530202578924087E+00
              0.332229604514513E+01
             -0.592667342384824E+00
              0.124917753062536E+01
             -0.443372628712364E+00
             -0.195957448675973E+01
             -0.269492419594041E+01
             -0.519660986711303E+00
             -0.347237628637175E+01
              0.363538177141070E+00
             -0.820159654546747E+00
              0.130047825147387E+01
              0.901685411487076E+00
             -0.107641949999334E+01
             -0.108257081101896E+01
              0.167478564028127E+01
             -0.224090326011722E+01
             -0.466997334033390E+00
             -0.670098801470884E+00
              0.104526945941873E+01
              0.149254928171942E+00
              0.163095403217811E+00
             -0.606271343436363E+00
              0.214323860437923E+01
             -0.218864820613433E+01
              0.183939651370320E+00
              0.230321557912883E+01
             -0.146676411394951E+01
              0.146247031685311E+00
              0.640711608385907E-01
             -0.252683866096777E+01
             -0.154901744241295E+01
             -0.107334281890483E+00
              0.117756011657734E+01
              0.136628818540613E+01
              0.106720543243064E+00
             -0.520322991375931E+00
              0.658889739241351E+00
             -0.160953881625847E+01
             -0.139762329748338E+00
             -0.204808721289360E+01
             -0.107438542336022E+01
              0.198601078591130E+01
             -0.121749106532688E+01
              0.269740244125786E+01
             -0.829013490546075E+00
              0.135993944181285E+01
              0.939245417569591E+00
             -0.237269486998768E+01
             -0.102144918810445E+01
              0.444557718383514E+00
             -0.163082376697153E+01
             -0.157486435034006E+01
             -0.353453643989350E+01
             -0.213915229169958E+01
             -0.194772423866238E+01
             -0.183353333172729E+01
             -0.436871978508613E-02
              0.907168961794687E+00
              0.336278030938820E+00
              0.104426569719804E+01
             -0.227360300433882E+01
              0.486327880352999E+00
              0.998969704614545E+00
             -0.271208692909439E+01
             -0.232638516775525E+01
             -0.153136895542798E+01
             -0.121038136450974E+01
              0.565103768299675E+00
             -0.130618347803047E+00
             -0.180026653666554E+01
              0.115792696735852E+01
             -0.952099813845354E+00
              0.203960433005452E+01
             -0.353687072254073E+01
              0.250920542174061E+01
             -0.415348174745540E+00
             -0.158080006275060E+01
             -0.115427900360980E+01
              0.598973759464840E-01
              0.199606745566705E+01
             -0.275171417066011E+01
             -0.555697271673344E+00
             -0.637454579858659E+00
              0.163387115623071E+01
              0.319740368640573E+01
             -0.387330293663960E+01
              0.365603025190570E+01
              0.165442176857612E+01
             -0.300487598920687E+01
             -0.126273915822258E+01
              0.308784995042408E+01
              0.226223896162285E+01
             -0.679503678130647E+00
             -0.298758005311051E+00
              0.672190849661381E+00
              0.301368304034670E+01
             -0.232405951236268E+01
              0.493245849535188E+00
             -0.329507618370761E+00
              0.109040900362597E+01
             -0.277555605783279E+01
             -0.118080900844334E+00
             -0.106870216229738E+01
              0.194430650016823E+01
              0.163642992157327E+01
             -0.346166173457675E+01
             -0.186323833746518E+01
             -0.839836987703006E+00
             -0.170762309818895E+01
             -0.484494184210797E+00
             -0.781005035750097E+00
              0.173368959050615E+01
              0.177479641239594E+01
             -0.503192716759493E-01
             -0.176532962449195E+01
             -0.333576258857084E+01
              0.200910484247728E+01
             -0.183845294765336E+01
             -0.149290466778872E+01
              0.282214106614779E+00
             -0.141620731204566E+01
             -0.162355123330750E+01
             -0.112617090202598E+01
             -0.187724520773804E+01
             -0.104128275804063E+01
             -0.199302004561960E+01
              0.216323500761504E+01
              0.233982102333558E+01
             -0.437362583917320E+00
             -0.867229893205767E+00
              0.161826311368294E+00
              0.167111269597358E+01
             -0.332989476730256E+01
             -0.879463354451463E+00
              0.195370477152144E+01
              0.274969557109789E+01
             -0.425785478493481E+00
              0.421235391876209E+00
              0.198078518444354E+01
              0.594657798389592E+00
             -0.682187893220849E-01
             -0.157352569061024E+01
              0.580590592803905E+00
             -0.126791371709313E+01
             -0.246352217611145E+00
             -0.859927660261331E+00
             -0.584414014502537E+00
              0.929237061114932E+00
              0.305020149923270E+01
             -0.215253337442746E+00
              0.100264803705731E+00
             -0.352177822358043E+01
             -0.618559234671299E+00
             -0.142950716347112E+01
              0.103716337088020E-01
             -0.189927931790992E+01
              0.351910005451115E+01
              0.340076658099681E+01
              0.698571911651928E+00
             -0.810688643694061E+00
              0.734864804235435E+00
              0.776916753273480E+00
             -0.184285584191672E+01
             -0.319070277051530E+00
              0.710010265974610E+00
              0.575108575630540E+00
              0.202552301170385E+01
              0.157695333959133E+01
             -0.862668901999752E+00
              0.918930212610366E+00
             -0.370747528337257E+01
             -0.455718695789393E-01
              0.355509020670678E+01
              0.717824612072803E+00
             -0.789030538088227E-01
              0.999687346418407E+00
             -0.985724005767472E+00
              0.349037570986172E+01
             -0.743965577785849E+00
              0.304766153859447E+01
              0.150693835306121E+01
             -0.165972754234278E+01
              0.131232649961701E+01
             -0.119261844666658E+01
             -0.268659776148436E+01
             -0.366162427926428E+00
             -0.211864766898119E+01
             -0.201176777707307E+01
             -0.120275131707448E+00
              0.138518738784432E+01
             -0.527388753808297E+00
             -0.121935262239220E+01
              0.310656637296635E+00
             -0.264296896914762E+01
             -0.179034689811025E+00
             -0.342689381414911E+01
              0.211377732867678E+01
             -0.181581034988183E+00
             -0.186701140819494E+01
             -0.599690288063542E+00
              0.747110294785140E+00
             -0.144449689603917E+01
             -0.179146381978003E+01
              0.351056190119019E+01
             -0.105569419439653E+01
             -0.156530673855821E+01
              0.114596097450925E+01
             -0.743045850536117E+00
              0.225668456640468E+01
             -0.321907479519723E-01
              0.278123116850338E+00
              0.431097310664375E+01
             -0.380090117817554E+00
             -0.153153760142161E+01
             -0.178589666381755E+01
             -0.203781587567007E+01
             -0.148403096502317E+01
              0.118446496288918E+01
              0.114486909907133E+01
              0.107152727915764E+01
              0.305608164447255E+01
              0.255295858674359E+00
              0.875145633243335E+00
             -0.230489756163332E+01
              0.915770280705601E-01
             -0.609765449512343E+00
             -0.101493669717796E+01
             -0.199847023218972E+00
              0.126190617000269E+01
              0.148203022333542E+01
             -0.285076408838802E-01
              0.548427178595798E+00
              0.105263978657732E+01
              0.141574842541657E+01
             -0.103500673226327E+01
             -0.442896234943859E+00
              0.567111831196687E-01
             -0.101690849321632E+01
             -0.121577851597664E+00
             -0.145889508395898E+01
              0.310962893080815E+01
              0.242501898931133E+01
             -0.619078690865813E+00
              0.578990401011112E+00
             -0.192238406115612E+00
             -0.110073375185833E+01
              0.143514848030897E+01
             -0.428107273582121E+00
              0.151768401271475E+01
             -0.197276750916092E+01
              0.773186046658545E+00
             -0.311032213762459E+00
             -0.225516603172535E+01
             -0.104052141993947E+01
              0.102692095651689E+01
             -0.378352695607128E+01
              0.158300715564771E+01
              0.189478756032303E+01
             -0.399790995794177E+00
             -0.331238541600658E+00
             -0.198750136786657E+00
              0.107853629912339E+01
             -0.132324910916162E+01
              0.120155030474749E+01
              0.128327758697963E+01
             -0.367462516456368E+01
             -0.147903221406194E+01
              0.960089553744705E+00
             -0.496626746803235E+00
              0.182009852896981E+01
             -0.238129860978897E+01
             -0.357466018468855E+00
             -0.162619667375120E+01
             -0.506013303556077E+01
              0.317008932032535E+01
             -0.238274975596510E+01
             -0.263262370334872E+01
              0.236201409132675E+00
              0.505812097189652E+01
              0.304391571763158E+00
             -0.117199171758455E+01
             -0.334046168247468E-01
             -0.203636129430958E+00
             -0.345421384244166E+01
             -0.223100823330903E+01
              0.338646517477771E+01
             -0.359894212450623E+00
             -0.150745750126427E+01
              0.200092385264479E+01
             -0.131187078012283E+01
              0.130204361206629E+01
              0.191834987733463E+01
             -0.217264052731166E+01
             -0.104566053436668E+01
             -0.137003411770919E+01
             -0.616267358752932E+00
             -0.697816772688347E+00
             -0.613258797465118E+00
              0.843695322612685E+00
             -0.136016126073426E+01
              0.107404131152296E+01
              0.222678060102825E+01
             -0.376942197410234E+00
             -0.791099898230126E+00
              0.516252784320072E+00
              0.214617434617662E+01
              0.221608279192105E+01
              0.281387431634633E+00
             -0.322152044631029E+00
             -0.339460634571958E+00
             -0.203734714716069E+01
              0.150084431113190E+01
             -0.965210467840208E+00
              0.802787515530053E+00
             -0.525340361389048E+00
              0.113622592121759E+01
              0.658949825646006E+00
             -0.317336576669106E+01
             -0.101132498445363E+01
             -0.307079012095411E+01
             -0.154169345413307E+01
              0.200021260456531E+00
             -0.788819485729322E+00
              0.140985443311153E+01
             -0.116284062432597E+01
              0.147870251520442E+00
              0.312891824215146E+00
              0.285597585379548E+01
              0.149526583166034E+01
             -0.123067236367506E+01
              0.211247692589627E-01
              0.517090372559112E+00
              0.145135023727767E+01
             -0.473667160927036E-01
              0.216671218583144E+01
              0.107515275585589E+01
              0.356460683623074E+01
              0.133348675746272E+00
              0.244292865891035E+01
             -0.118970365855705E+01
             -0.158586295747959E+01
              0.105305778687317E+00
              0.404298752641530E+00
              0.929178840336686E+00
             -0.608155031416111E+00
             -0.428529941320470E+00
              0.863611192848030E+00
             -0.174013699929853E+01
             -0.233733762617433E+01
              0.318367536427213E+01
             -0.313319000025469E+00
             -0.146675322293963E+01
             -0.182231600312587E+00
             -0.558996182234594E+00
              0.162453280516084E+01
              0.140197217735606E+01
             -0.821608533249705E+00
             -0.451559477579222E-01
             -0.103826340425068E+01
             -0.137322487781402E+01
             -0.103744283848444E+01
             -0.391502457470877E+01
             -0.682430196738810E-01
             -0.262854233696288E+01
             -0.233732762298875E+01
             -0.158784507664826E+01
              0.815150796459566E+00
             -0.156242203757649E+01
              0.867445281559120E+00
             -0.252613444554231E+01
             -0.457873971638598E-01
             -0.171733926976721E+01
              0.350079143956870E+00
              0.247224474451473E+00
              0.123622656121458E+01
             -0.736740299375239E+00
             -0.711674301008905E+00
              0.125260685812869E+01
              0.227195736203263E+01
              0.126201598222410E+01
              0.423407940356661E+00
             -0.291270447865515E+01
             -0.545066935116076E+00
             -0.117859850322270E+01
             -0.241497917941005E+01
              0.171227905319350E+01
             -0.133068981155618E+01
             -0.299642258631836E+00
             -0.972467729969354E+00
             -0.393226618811113E+01
              0.218600787250356E+01
             -0.605176275676502E+00
              0.156461073212580E+01
             -0.296488562994252E+01
              0.253704013230771E+01
              0.266723809757629E+00
             -0.106275190880464E+01
              0.428424442772187E+00
             -0.871169093691520E+00
             -0.252409867977537E+01
              0.663538641454599E+00
              0.138684514201581E+01
             -0.254613985984093E-01
             -0.135277904881111E+01
             -0.577151068987829E+00
              0.705347467163350E+00
              0.142899805647536E+01
              0.244546744478263E+01
              0.911746584415955E+00
             -0.897769656578875E+00
              0.382290059728675E+01
              0.945565244245390E+00
              0.172211923120130E+01
             -0.687479670548647E+00
              0.123585366237541E+01
              0.857140327457964E+00
             -0.237535076446121E+01
             -0.936220634536315E+00
             -0.158869775526455E+01
             -0.153241188756784E+01
             -0.439403126763452E+00
             -0.396022240454428E+00
             -0.166914544379713E+01
             -0.434620167053429E+01
             -0.106497231523067E+01
              0.544963680902903E+00
              0.203317459665850E+00
              0.535482117522529E+00
              0.171405009700741E+01
              0.458029964620070E+00
              0.133574766631206E+01
             -0.164439400319776E+01
              0.171188346830630E+01
             -0.162005868487880E+01
             -0.271031405591383E+01
              0.810364802762692E+00
             -0.161598707928546E+01
             -0.153064431330724E+01
             -0.627244346273114E+01
             -0.260084040878473E+00
              0.329900119266043E+01
              0.169034928667709E+01
             -0.383197908246768E+00
             -0.443492926720708E+00
              0.168256268623552E+01
              0.251328731211915E+01
             -0.153652659283097E+01
             -0.551119974283090E+00
             -0.143870118858776E+01
             -0.135492806835375E+01
             -0.111283037581403E+01
              0.492527017450111E+00
              0.290364049765928E+01
             -0.248914873305274E+01
             -0.212111775752837E+01
              0.875656361892467E-01
             -0.582255851277063E+00
             -0.605677040054121E+00
             -0.362412958052615E+01
              0.235617856403449E+01
              0.834452131235391E+00
              0.392078065606789E+00
              0.211749558440191E+01
             -0.130299213164505E+01
              0.129472022049700E+01
              0.117114911817622E+01
              0.819584488836913E-01
             -0.295364323921789E+00
              0.343085849442434E+00
             -0.554940032580483E+00
              0.212540634374986E+01
             -0.160721605637265E+01
              0.181541579202426E+01
              0.311867542105650E+00
              0.594228501744437E+00
              0.826410077422864E+00
             -0.321985849321329E+01
              0.381507640403706E+00
             -0.259009014254480E+01
             -0.189127480206939E+01
             -0.192075671687053E+01
             -0.206132663263309E+01
             -0.118164447303428E-01
              0.706259698848093E+00
              0.201548016069500E+01
              0.317839259229994E+00
              0.568093342075047E+00
             -0.279752287082749E+01
             -0.111029731719531E+01
              0.125818075361965E+01
             -0.426950750523893E-01
             -0.806990526284039E-01
             -0.337264695055836E+00
              0.147038337526775E+01
             -0.358692397078042E+01
              0.534422034730376E+00
              0.882073582117762E+00
              0.152327018837266E+01
              0.147243519617236E+01
             -0.227975413513913E+01
              0.553378366566754E+00
              0.170102490805997E+00
              0.219960362378231E+00
              0.191043301111460E+00
             -0.644699913844129E+00
             -0.161750986037992E+01
              0.730056445673691E+00
              0.232437808029115E+01
             -0.669864084076721E-01
              0.502683294369627E+00
              0.485954677012383E+00
             -0.115024527729126E+01
             -0.125997221292829E+01
             -0.482018886148615E+01
             -0.145975386595193E+01
             -0.213320080108006E+01
             -0.200803354240630E+00
             -0.262286165225032E+01
              0.300082171052058E+01
             -0.129137921732959E+01
             -0.221496292816513E+01
             -0.620603128528305E+01
              0.266474350749536E+01
              0.537202446572358E+00
              0.293363095575456E+00
             -0.246675761197868E+01
              0.817322430757947E-01
             -0.659534702648827E+00
             -0.129799314249954E+01
              0.416261028812743E+00
              0.126925930771546E+01
              0.171156048179753E+00
             -0.756840686175988E+00
              0.698925626657996E-01
              0.416387665296725E-02
              0.625678087489050E+00
             -0.253102889102731E+01
              0.286739299246633E+01
             -0.170432100790876E+01
             -0.104431404879648E+01
             -0.189079067658939E+01
             -0.420504884972021E+01
              0.259766516986425E+00
             -0.227825642273867E+01
             -0.789540593336973E+00
              0.124070124397383E+01
             -0.105306379194386E+01
             -0.370696861547390E+00
             -0.518199981120524E+00
             -0.825819418376934E+00
              0.123459026400656E+00
              0.195816316919461E+01
             -0.198342578833828E+01
              0.398013150847298E+01
             -0.902551620997766E+00
              0.133450376632048E+01
             -0.618884223825768E+00
              0.477808901525750E+00
             -0.537584788986146E+00
              0.180857823816575E+01
              0.250295122930692E+01
              0.691711644440486E+00
              0.171660511496290E+01
             -0.126949239263436E+01
             -0.295150040669344E+00
             -0.928822442898362E+00
              0.252308465366002E+01
              0.207967649980253E+01
              0.158351679386790E+01
             -0.428027077138800E+00
             -0.102837624099455E+01
              0.928720274401647E+00
             -0.115445210134495E+01
             -0.528319371640485E+00
             -0.253531037809660E+00
             -0.129579134881520E+01
              0.197763810567074E+01
             -0.351338973122309E+00
              0.146958943104416E+01
              0.848364979599227E+00
              0.672792453092288E+00
             -0.137244344756417E+01
              0.100092700103246E+01
             -0.608045267751553E+00
             -0.244296007479750E+00
             -0.612590140602443E-01
             -0.190951918710127E+01
              0.312522174134074E+01
             -0.110342367305398E+01
             -0.472626315768636E-01
              0.921582785826181E+00
              0.850528652634853E+00
              0.306306305983184E+01
             -0.775762377669166E+00
              0.297101295612261E+01
              0.254430271470751E+01
             -0.356829371052653E+01
              0.386479828881552E+00
             -0.801528379363669E+00
              0.407127666412437E+00
              0.130938124491112E+00
[...]
             -0.939484287838907E+00
              0.206432355811512E+01
              0.533591177655225E+00
             -0.323166228987505E+01
              0.126554430811745E+01
              0.218862639779360E+00
              0.369817436202597E+00
             -0.189301335839413E+01
              0.309844336421239E+00
              0.136593477696400E+01
              0.181848201888207E+01
              0.255274464927640E+01
              0.128614535188214E+01
              0.367910858896036E+00
             -0.213735077157167E+01
             -0.166950945568544E+01
             -0.261625580076600E+01
             -0.486097519428235E+00
              0.126004409657894E+01
              0.736004448085703E-01
              0.204955605498798E+01
             -0.125768978711402E+01
              0.762199851253534E+00
             -0.781443977196505E+00
             -0.102935705942587E+01
              0.229381671948036E+01
              0.213797129022657E+00
              0.244321902708919E+01
              0.197184625686617E+00
              0.779362116777153E+00
             -0.700136719146368E+00
              0.241457529488830E+01
             -0.561206757582267E+00
             -0.667878168138938E-01
             -0.308532649594956E+01
             -0.282605703011756E+00
              0.275281469253865E+01
              0.254034820664399E+01
              0.102843802531729E+01
             -0.734937523418373E+00
              0.173031216721434E+00
             -0.908374214186788E+00
             -0.733867869200985E+00
              0.356268654772743E+01
              0.278052616823977E+00
             -0.114058574068570E+01
             -0.424229085145519E+01
             -0.176120786609239E+01
             -0.146858528121786E+01
             -0.251135541215829E+01
             -0.225907981854298E+01
             -0.276538241174784E+01
             -0.173151392453855E+01
             -0.113123764183102E+01
             -0.195289357197959E+01
              0.172222090949349E+01
             -0.736519104495709E+00
             -0.343555457828732E+01
              0.157397394814259E+01
             -0.121955692430562E+01
             -0.318910819548041E+01
              0.394813440115999E+01
             -0.977851040909962E+00
              0.639265973671462E+00
              0.149408637622430E+01
              0.390572956574454E+00
              0.103671695506288E+01
              0.867892153516792E-01
              0.751064257938809E-01
             -0.427150059135828E+00
             -0.281547423164866E+01
              0.424618789499013E+00
             -0.474047936748017E+01
              0.276275194836413E+01
             -0.158483944399844E+01
             -0.814494042435237E+00
             -0.894323182826909E+00
              0.751276745209905E+00
             -0.621206416082336E+00
              0.117183410697230E+01
             -0.235664749550770E+01
              0.136727337124726E+01
              0.157035810971622E+01
              0.407737781172548E+00
              0.270587167264084E+00
              0.849866843245350E+00
              0.412798369480019E+00
              0.117308093338846E+01
             -0.129711845715015E+00
             -0.286778609101143E+01
              0.346004874914996E+00
             -0.123871702314256E+01
             -0.112715415905761E+00
              0.213346346090779E+01
             -0.309076614720546E+01
             -0.440329631923895E-01
              0.142991472539777E+00
              0.370269886761236E+00
              0.122983297618630E+01
             -0.441380549319581E+00
              0.336798264386400E+01
              0.152784334652866E+01
             -0.646043711019328E+00
             -0.401843967996228E+00
              0.240602587831672E+00
              0.311587996711841E+01
             -0.204274282134628E+01
             -0.400311066572442E+01
              0.108384017344705E+01
             -0.338775540457631E+00
             -0.506798907758703E+00
              0.769416087469046E+00
              0.301067724616977E+01
              0.165948942354046E+01
             -0.644087702608271E+00
             -0.210771764728831E+01
             -0.475953783946580E+00
              0.109996122140419E+01
             -0.677233400401551E+00
             -0.301108486999492E+01
             -0.317585227393793E+00
             -0.383632424991551E+01
             -0.210819742195896E+01
              0.335751493412819E+01
             -0.201762676543938E+01
             -0.278664648078728E+01
             -0.199649482193926E+01
             -0.154789058997245E+01
              0.124663192559981E+01
              0.336866952658487E+01
             -0.297638474809263E+00
              0.105656012543317E+01
             -0.810837845534271E+00
             -0.273490799794163E+01
              0.190518129178577E+01
             -0.187972211993481E+01
              0.999930383520931E+00
              0.122095897095538E+01
             -0.605652909101952E+00
              0.149988942653142E+01
              0.157050641643282E+01
              0.466525988938450E+01
             -0.401092216459908E+00
             -0.218615515572057E+01
             -0.261784715566969E+01
             -0.814649468383674E+00
             -0.154412847143824E+01
              0.363504250906385E+01
             -0.164524440416204E+01
              0.484810648055369E+00
              0.143475976586146E+00
             -0.784956585359256E+00
             -0.334128386020713E+01
             -0.218413237924263E+00
              0.393714917802053E+01
              0.856826866315464E+00
              0.320347882576730E+00
             -0.233247074627333E+01
             -0.226283524526889E+01
             -0.710250669776971E+00
              0.181219063046465E+01
             -0.100278256863433E+01
              0.402005358946517E+01
             -0.176334922958899E+01
              0.803351289241387E+00
             -0.584129061509028E+00
             -0.247378037305020E+01
              0.268003238572105E+00
             -0.219791785980323E+01
             -0.296640384599479E+01
              0.438134167156342E+00
              0.111346306320258E+00
              0.196687130185377E+01
              0.106645135145715E+01
             -0.130794134027036E+01
              0.861259678628699E+00
             -0.345062816327691E+01
             -0.192261977271692E+01
              0.363456140362849E+01
              0.288395814480971E+00
             -0.233087786699883E+00
             -0.105311853147636E+01
             -0.189157948428544E-01
             -0.486548041979244E+00
              0.346082977344100E+01
              0.154846084308308E+01
             -0.401992865480427E+00
             -0.350753936319421E-01
             -0.153442175626187E+01
             -0.579132006867468E+00
             -0.251373682355070E+01
              0.191752308635350E+01
              0.202929666494629E+00
              0.302741506669236E+00
              0.755541579230769E+00
             -0.478591896600569E+00
             -0.869284212038429E+00
              0.313786023546657E+00
             -0.440599291935152E+01
             -0.401277780244506E+00
             -0.317143128781906E+00
             -0.251215508058985E+00
              0.202270372008083E+01
              0.251407395912431E+01
              0.727903381851966E+00
             -0.371347013504640E+01
              0.256696217398880E+01
             -0.942088758418349E+00
             -0.149719035605611E+01
             -0.348791825868838E+01
             -0.107304140988001E+01
              0.245998397171627E+01
              0.116907151533152E+01
              0.501546345131189E+00
              0.138961785860784E+01
             -0.221813635703709E+01
             -0.196918637779635E+01
              0.235651238417268E+01
              0.166691292575359E+01
              0.190745194724560E+01
              0.234158985636722E+00
              0.336229473681271E+00
              0.212563056378637E+01
              0.390602903360323E+01
             -0.746672045083096E+00
              0.153619808795327E+01
             -0.107190253501373E+01
             -0.171329163052570E+01
             -0.131171811557639E+01
             -0.129369788985949E+01
             -0.568053081281443E+00
             -0.198370501654069E+01
             -0.765604157651984E+00
             -0.514756341791997E+01
              0.114990869992288E+01
              0.113767481868938E+01
             -0.143868727437862E+00
             -0.149574001122656E+01
             -0.782801139049468E+00
             -0.223047053702150E+01
              0.174233506626956E+00
              0.313225564668872E+01
             -0.784873615205878E+00
             -0.710072040723396E+00
              0.821681005317828E+00
             -0.191283773347288E+01
              0.337717710395772E+01
              0.598544827422439E+00
              0.345920148573061E+00
              0.209019169939496E+01
             -0.138535413595617E+00
              0.235383218116776E+01
              0.776689945816007E+00
             -0.642349773531956E-01
              0.548771711767882E+00
             -0.230633377838984E+00
              0.267363066707730E+01
              0.222474252451134E+00
              0.777332942439873E+00
             -0.317640593541917E+00
              0.406742161531213E+00
             -0.373784413311758E+01
             -0.137352772348117E+01
             -0.197961396737393E+01
              0.200820966590863E+01
             -0.137617250148640E+01
             -0.224482778147446E+01
              0.237527011436375E+01
             -0.550044090797065E+00
              0.160519881826154E+01
             -0.357103623375616E+01
              0.652288497185043E+00
              0.241533330972041E+00
              0.273766575090953E+00
             -0.539285212347028E+00
             -0.281261687795261E+00
              0.194875478143849E+01
              0.129192076185898E+00
             -0.212071254033548E+01
             -0.778165759196933E+00
              0.829850234636568E+00
             -0.447583303529755E+01
             -0.343704062700186E+01
              0.439998883301644E-01
              0.660931160067594E+00
             -0.189409414639061E+01
              0.580612954582662E-01
              0.409993622646567E+01
              0.123676432461695E+01
             -0.210181898429228E+01
              0.361108892395150E+00
             -0.494569865150697E+00
              0.416149096795035E+00
             -0.137053650929921E+01
              0.878738183548653E+00
              0.954814174357644E+00
             -0.410711115539725E+00
              0.447999121118901E+01
             -0.125684593488751E+00
             -0.125333079458016E+01
              0.124247039112207E+01
              0.169710846424771E+01
             -0.122616796166347E+01
             -0.795174002782599E-01
              0.381252124356307E+01
             -0.926594673449230E-01
              0.214353613227006E+01
              0.618505605230508E+00
             -0.328425269558158E+00
             -0.685944581928432E+00
              0.198433489953822E+01
             -0.240063708408401E+01
             -0.451759367865687E-01
             -0.808263096333746E+00
             -0.155718443359104E+01
              0.440118095787505E+00
              0.912154783246941E+00
             -0.299864009452762E-01
             -0.249896125155793E-01
             -0.168767991222555E+01
              0.723196603630162E+00
             -0.485181186200254E-01
             -0.944474226666488E+00
             -0.810463876438106E+00
              0.715531457653842E+00
              0.825144815647931E-01
             -0.151420289281631E+01
             -0.421183829322510E+01
              0.308192950335677E+00
              0.574583612993653E+00
             -0.191923111297963E+01
             -0.954337423087740E+00
              0.321870481684092E+01
              0.490925391998317E+00
              0.175314237297671E+01
              0.442851612846798E+00
              0.162467631731443E+01
              0.707297899139405E-01
             -0.158420360283179E+01
             -0.415990765851182E+00
              0.213723685891578E+00
              0.127225946560814E+01
              0.301776847598915E+01
              0.199539822269520E+01
              0.127567245896417E+00
              0.377214194937016E+00
              0.236841541761267E+01
              0.113503135769723E+01
             -0.275706241107199E+01
             -0.110127607581709E+01
              0.369212730267030E+00
              0.409850541105865E+00
              0.105207859516512E+01
             -0.204706501193649E+01
              0.259650660391820E+00
              0.159427129082083E+01
              0.198274485939176E+01
             -0.174070873729547E+01
              0.121507375497977E+00
             -0.126980740664049E+00
             -0.861357829344911E+00
             -0.112871554605060E+01
             -0.499515514907383E+00
             -0.445508558707187E+00
              0.431742346213021E+00
              0.166379449034289E+01
             -0.139796753415518E+01
              0.317471155773111E+01
              0.139536631022204E+01
              0.986140927622085E+00
              0.135854470844339E+01
              0.100774748639048E+01
              0.133877975989080E+01
              0.221501114286314E+01
             -0.185373471295718E+01
              0.244791867398792E+01
             -0.445955898808063E+01
              0.127397066850179E+01
             -0.419858347588906E+01
              0.328079242315627E+01
              0.306639232472381E+01
             -0.360216128160424E+00
             -0.188517320504903E+01
             -0.165228555011594E+01
             -0.215731666912943E+01
             -0.257982431961720E+01
              0.214353837330541E+01
              0.169969564995414E+01
              0.101625050610405E+01
              0.104941116699391E+01
              0.182708681621076E+01
             -0.162443089363643E+01
             -0.618708623679282E+00
              0.201831606445070E+01
             -0.394884360012673E+00
              0.192077905681486E+01
              0.305432132118906E+01
             -0.110859872615859E+00
             -0.296353345934070E+01
              0.855231951012243E-01
              0.395090431197153E-01
             -0.444597373771078E+00
              0.199024466267529E+00
             -0.253505686569385E+01
             -0.411089590971558E+00
              0.465077334588431E+00
              0.495313765531986E+00
              0.198358916598710E+01
             -0.172767380765018E+01
              0.206184540050313E+01
             -0.153457984769876E+01
              0.103739947426578E+01
              0.171239650332660E+01
 
 BEEF-vdW xc energy contributions
            1 :    -29.10058852618437     
            2 :     25.65276000158580     
            3 :    -19.69696477206483     
            4 :     12.76431617857892     
            5 :    -6.430690148775007     
            6 :     1.802574760529929     
            7 :    0.7618483533966831     
            8 :    -1.610442029572610     
            9 :     1.494498740845842     
           10 :    -1.172285831471342     
           11 :     1.103602031951841     
           12 :    -1.351036546950994     
           13 :     1.689606508627090     
           14 :    -1.828096213901375     
           15 :     1.608959373861737     
           16 :    -1.088897027202513     
           17 :    0.4813599660374166     
           18 :   -1.8295445952325906E-002
           19 :   -0.1778695958557464     
           20 :    0.1415430989671052     
           21 :   -1.6061861236295272E-002
           22 :   -4.8137436549559709E-002
           23 :   -1.6808341104677993E-002
           24 :    0.1687275912731323     
           25 :   -0.2977028416503771     
           26 :    0.3041704820062421     
           27 :   -0.1621317040886296     
           28 :   -6.8504094464309162E-002
           29 :    0.2823641585248993     
           30 :   -0.3923684434179364     
           31 :    -3.836798420741488     
           32 :    -2.779524239627431     

     Writing all to output data dir ./diamond.save/
 
     init_run     :      2.46s CPU      2.50s WALL (       1 calls)
     electrons    :      0.37s CPU      0.44s WALL (       1 calls)
     forces       :      0.06s CPU      0.06s WALL (       1 calls)
     stress       :      0.23s CPU      0.24s WALL (       1 calls)

     Called by init_run:
     wfcinit      :      0.05s CPU      0.06s WALL (       1 calls)
     potinit      :      2.32s CPU      2.33s WALL (       1 calls)
     hinit0       :      0.05s CPU      0.06s WALL (       1 calls)

     Called by electrons:
     c_bands      :      0.23s CPU      0.28s WALL (       2 calls)
     sum_band     :      0.05s CPU      0.05s WALL (       2 calls)
     v_of_rho     :      2.29s CPU      2.31s WALL (       2 calls)
     v_h          :      0.00s CPU      0.00s WALL (       2 calls)
     v_xc         :      3.32s CPU      3.40s WALL (      38 calls)
     newd         :      0.00s CPU      0.00s WALL (       2 calls)
     PAW_pot      :      0.11s CPU      0.11s WALL (       2 calls)
     mix_rho      :      0.00s CPU      0.00s WALL (       2 calls)
     vdW_kernel   :      2.23s CPU      2.24s WALL (       1 calls)

     Called by c_bands:
     init_us_2    :      0.00s CPU      0.00s WALL (      78 calls)
     init_us_2:cp :      0.00s CPU      0.00s WALL (      78 calls)
     cegterg      :      0.22s CPU      0.22s WALL (      26 calls)

     Called by sum_band:
     sum_band:wei :      0.00s CPU      0.00s WALL (       2 calls)
     sum_band:loo :      0.04s CPU      0.04s WALL (       2 calls)
     sum_band:buf :      0.00s CPU      0.00s WALL (      26 calls)
     sum_band:ini :      0.00s CPU      0.00s WALL (      26 calls)
     sum_band:cal :      0.00s CPU      0.00s WALL (      26 calls)
     sum_band:bec :      0.00s CPU      0.00s WALL (      26 calls)
     addusdens    :      0.00s CPU      0.00s WALL (       2 calls)
                                        0.00s GPU  (       2 calls)
     addusd:skk   :      0.00s CPU      0.00s WALL (       2 calls)
                                        0.00s GPU  (       2 calls)

     Called by *egterg:
     cdiaghg      :      0.03s CPU      0.03s WALL (      59 calls)
     cegterg:over :      0.01s CPU      0.01s WALL (      59 calls)
     cegterg:upda :      0.00s CPU      0.00s WALL (      59 calls)
     cegterg:last :      0.00s CPU      0.00s WALL (      26 calls)
     h_psi        :      0.15s CPU      0.16s WALL (      85 calls)
     s_psi        :      0.01s CPU      0.01s WALL (      85 calls)
     g_psi        :      0.00s CPU      0.00s WALL (      59 calls)

     Called by h_psi:
     h_psi:calbec :      0.01s CPU      0.01s WALL (      85 calls)
     vloc_psi     :      0.14s CPU      0.14s WALL (      85 calls)
     add_vuspsi   :      0.01s CPU      0.01s WALL (      85 calls)

     General routines
     calbec       :      0.03s CPU      0.03s WALL (     176 calls)
     fft          :      0.46s CPU      0.47s WALL (    2232 calls)
     ffts         :      0.00s CPU      0.00s WALL (       4 calls)
     fftw         :      0.15s CPU      0.16s WALL (    2638 calls)
     interpolate  :      0.00s CPU      0.00s WALL (       2 calls)
 
     Parallel routines

     PAW routines
     PAW_pot      :      0.11s CPU      0.11s WALL (       2 calls)
     PAW_symme    :      0.00s CPU      0.00s WALL (       3 calls)
 
     PWSCF        :      4.28s CPU      4.68s WALL

 
   This run was terminated on:  22:22:51  27Mar2024            

=------------------------------------------------------------------------------=
   JOB DONE.
=------------------------------------------------------------------------------=
