
     Program PWSCF v.7.1 starts on 21Feb2024 at  8:33:48 

     This program is part of the open-source Quantum ESPRESSO suite
     for quantum simulation of materials; please cite
         "P. Giannozzi et al., J. Phys.:Condens. Matter 21 395502 (2009);
         "P. Giannozzi et al., J. Phys.:Condens. Matter 29 465901 (2017);
         "P. Giannozzi et al., J. Chem. Phys. 152 154105 (2020);
          URL http://www.quantum-espresso.org", 
     in publications or presentations arising from this work. More details at
     http://www.quantum-espresso.org/quote

     Parallel version (MPI & OpenMP), running on     128 processor cores
     Number of MPI processes:               128
     Threads/MPI process:                     1

     MPI processes distributed on     1 nodes
     1948162 MiB available memory on the printing compute node when the environment starts
 
     Reading input from espresso.pwi

     Current dimensions of program PWSCF are:
     Max number of different atomic species (ntypx) = 10
     Max number of k-points (npk) =  40000
     Max angular momentum in pseudopotentials (lmaxx) =  4
     file Ga.pbe-dn-kjpaw_psl.1.0.0.UPF: wavefunction(s)  4S renormalized
     file N.pbe-n-kjpaw_psl.1.0.0.UPF: wavefunction(s)  2S renormalized

     **************************************************************************
     Initializing libbeef V0.1.2 with the BEEF-vdW functional.
     Citation: Wellendorff et al., PRB 85, 235149 (2012).
     **************************************************************************


     IMPORTANT: XC functional enforced from input :
     Exchange-correlation= BEEF-VDW
                           (   1   4  43  14   2   0   0)
     Any further DFT definition will be discarded
     Please, verify this is what you really want

     Found identity + (  0.0000  0.5000  0.5000) symmetry
     This is a supercell, fractional translations are disabled
 
     K-points division:     npool     =       8
     R & G space division:  proc/nbgrp/npool/nimage =      16
     Subspace diagonalization in iterative solution of the eigenvalue problem:
     a serial algorithm will be used

 
     Parallelization info
     --------------------
     sticks:   dense  smooth     PW     G-vecs:    dense   smooth      PW
     Min         112      91     26                 3616     2609     412
     Max         114      92     27                 3618     2611     417
     Sum        1801    1457    421                57873    41755    6619
 
     Using Slab Decomposition
 


     bravais-lattice index     =            1
     lattice parameter (alat)  =       8.0700  a.u.
     unit-cell volume          =     525.5616 (a.u.)^3
     number of atoms/cell      =            8
     number of atomic types    =            2
     number of electrons       =        72.00
     number of Kohn-Sham states=           43
     kinetic-energy cutoff     =      70.0000  Ry
     charge density cutoff     =     350.0000  Ry
     scf convergence threshold =      1.0E-07
     mixing beta               =       0.7000
     number of iterations used =            8  plain     mixing
     energy convergence thresh.=      1.0E-04
     force convergence thresh. =      1.0E-03
     press convergence thresh. =      5.0E-01
     Exchange-correlation= BEEF-VDW
                           (   1   4  43  14   2   0   0)
     nstep                     =           50


     celldm(1)=   8.070019  celldm(2)=   0.000000  celldm(3)=   0.000000
     celldm(4)=   0.000000  celldm(5)=   0.000000  celldm(6)=   0.000000

     crystal axes: (cart. coord. in units of alat)
               a(1) = (   1.000000   0.000000   0.000000 )  
               a(2) = (   0.000000   1.000000   0.000000 )  
               a(3) = (   0.000000   0.000000   1.000000 )  

     reciprocal axes: (cart. coord. in units 2 pi/alat)
               b(1) = (  1.000000  0.000000  0.000000 )  
               b(2) = (  0.000000  1.000000  0.000000 )  
               b(3) = (  0.000000  0.000000  1.000000 )  


     PseudoPot. # 1 for Ga read from file:
     //group///packages/espresso/pseudo/psl_1.0.0/pslibrary.1.0.0/pbe/PSEUDOPOTENTIALS/Ga.pbe-dn-kjpaw_psl.1.0.0.UPF
     MD5 check sum: cd2a01e492f15b435d17032472d8505c
     Pseudo is Projector augmented-wave + core cor, Zval = 13.0
     Generated using 'atomic' code by A. Dal Corso  v.7.1
     Shape of augmentation charge: PSQ
     Using radial grid of 1205 points,  6 beta functions with: 
                l(1) =   0
                l(2) =   0
                l(3) =   1
                l(4) =   1
                l(5) =   2
                l(6) =   2
     Q(r) pseudized with 0 coefficients 


     PseudoPot. # 2 for N  read from file:
     //group///packages/espresso/pseudo/psl_1.0.0/pslibrary.1.0.0/pbe/PSEUDOPOTENTIALS/N.pbe-n-kjpaw_psl.1.0.0.UPF
     MD5 check sum: f77f775694dac7e2c3fe1c82443d1a16
     Pseudo is Projector augmented-wave + core cor, Zval =  5.0
     Generated using 'atomic' code by A. Dal Corso  v.7.1
     Shape of augmentation charge: PSQ
     Using radial grid of 1085 points,  4 beta functions with: 
                l(1) =   0
                l(2) =   0
                l(3) =   1
                l(4) =   1
     Q(r) pseudized with 0 coefficients 


     atomic species   valence    mass     pseudopotential
        Ga            13.00    69.72300     Ga( 1.00)
        N              5.00    14.00700     N ( 1.00)

     48 Sym. Ops., with inversion, found


                                    s                        frac. trans.

      isym =  1     identity                                     

 cryst.   s( 1) = (     1          0          0      )
                  (     0          1          0      )
                  (     0          0          1      )

 cart.    s( 1) = (  1.0000000  0.0000000  0.0000000 )
                  (  0.0000000  1.0000000  0.0000000 )
                  (  0.0000000  0.0000000  1.0000000 )


      isym =  2     180 deg rotation - cart. axis [0,0,1]        

 cryst.   s( 2) = (    -1          0          0      )
                  (     0         -1          0      )
                  (     0          0          1      )

 cart.    s( 2) = ( -1.0000000  0.0000000  0.0000000 )
                  (  0.0000000 -1.0000000  0.0000000 )
                  (  0.0000000  0.0000000  1.0000000 )


      isym =  3     180 deg rotation - cart. axis [0,1,0]        

 cryst.   s( 3) = (    -1          0          0      )
                  (     0          1          0      )
                  (     0          0         -1      )

 cart.    s( 3) = ( -1.0000000  0.0000000  0.0000000 )
                  (  0.0000000  1.0000000  0.0000000 )
                  (  0.0000000  0.0000000 -1.0000000 )


      isym =  4     180 deg rotation - cart. axis [1,0,0]        

 cryst.   s( 4) = (     1          0          0      )
                  (     0         -1          0      )
                  (     0          0         -1      )

 cart.    s( 4) = (  1.0000000  0.0000000  0.0000000 )
                  (  0.0000000 -1.0000000  0.0000000 )
                  (  0.0000000  0.0000000 -1.0000000 )


      isym =  5     180 deg rotation - cart. axis [1,1,0]        

 cryst.   s( 5) = (     0          1          0      )
                  (     1          0          0      )
                  (     0          0         -1      )

 cart.    s( 5) = (  0.0000000  1.0000000  0.0000000 )
                  (  1.0000000  0.0000000  0.0000000 )
                  (  0.0000000  0.0000000 -1.0000000 )


      isym =  6     180 deg rotation - cart. axis [1,-1,0]       

 cryst.   s( 6) = (     0         -1          0      )
                  (    -1          0          0      )
                  (     0          0         -1      )

 cart.    s( 6) = (  0.0000000 -1.0000000  0.0000000 )
                  ( -1.0000000  0.0000000  0.0000000 )
                  (  0.0000000  0.0000000 -1.0000000 )


      isym =  7      90 deg rotation - cart. axis [0,0,-1]       

 cryst.   s( 7) = (     0         -1          0      )
                  (     1          0          0      )
                  (     0          0          1      )

 cart.    s( 7) = (  0.0000000  1.0000000  0.0000000 )
                  ( -1.0000000  0.0000000  0.0000000 )
                  (  0.0000000  0.0000000  1.0000000 )


      isym =  8      90 deg rotation - cart. axis [0,0,1]        

 cryst.   s( 8) = (     0          1          0      )
                  (    -1          0          0      )
                  (     0          0          1      )

 cart.    s( 8) = (  0.0000000 -1.0000000  0.0000000 )
                  (  1.0000000  0.0000000  0.0000000 )
                  (  0.0000000  0.0000000  1.0000000 )


      isym =  9     180 deg rotation - cart. axis [1,0,1]        

 cryst.   s( 9) = (     0          0          1      )
                  (     0         -1          0      )
                  (     1          0          0      )

 cart.    s( 9) = (  0.0000000  0.0000000  1.0000000 )
                  (  0.0000000 -1.0000000  0.0000000 )
                  (  1.0000000  0.0000000  0.0000000 )


      isym = 10     180 deg rotation - cart. axis [-1,0,1]       

 cryst.   s(10) = (     0          0         -1      )
                  (     0         -1          0      )
                  (    -1          0          0      )

 cart.    s(10) = (  0.0000000  0.0000000 -1.0000000 )
                  (  0.0000000 -1.0000000  0.0000000 )
                  ( -1.0000000  0.0000000  0.0000000 )


      isym = 11      90 deg rotation - cart. axis [0,1,0]        

 cryst.   s(11) = (     0          0         -1      )
                  (     0          1          0      )
                  (     1          0          0      )

 cart.    s(11) = (  0.0000000  0.0000000  1.0000000 )
                  (  0.0000000  1.0000000  0.0000000 )
                  ( -1.0000000  0.0000000  0.0000000 )


      isym = 12      90 deg rotation - cart. axis [0,-1,0]       

 cryst.   s(12) = (     0          0          1      )
                  (     0          1          0      )
                  (    -1          0          0      )

 cart.    s(12) = (  0.0000000  0.0000000 -1.0000000 )
                  (  0.0000000  1.0000000  0.0000000 )
                  (  1.0000000  0.0000000  0.0000000 )


      isym = 13     180 deg rotation - cart. axis [0,1,1]        

 cryst.   s(13) = (    -1          0          0      )
                  (     0          0          1      )
                  (     0          1          0      )

 cart.    s(13) = ( -1.0000000  0.0000000  0.0000000 )
                  (  0.0000000  0.0000000  1.0000000 )
                  (  0.0000000  1.0000000  0.0000000 )


      isym = 14     180 deg rotation - cart. axis [0,1,-1]       

 cryst.   s(14) = (    -1          0          0      )
                  (     0          0         -1      )
                  (     0         -1          0      )

 cart.    s(14) = ( -1.0000000  0.0000000  0.0000000 )
                  (  0.0000000  0.0000000 -1.0000000 )
                  (  0.0000000 -1.0000000  0.0000000 )


      isym = 15      90 deg rotation - cart. axis [-1,0,0]       

 cryst.   s(15) = (     1          0          0      )
                  (     0          0         -1      )
                  (     0          1          0      )

 cart.    s(15) = (  1.0000000  0.0000000  0.0000000 )
                  (  0.0000000  0.0000000  1.0000000 )
                  (  0.0000000 -1.0000000  0.0000000 )


      isym = 16      90 deg rotation - cart. axis [1,0,0]        

 cryst.   s(16) = (     1          0          0      )
                  (     0          0          1      )
                  (     0         -1          0      )

 cart.    s(16) = (  1.0000000  0.0000000  0.0000000 )
                  (  0.0000000  0.0000000 -1.0000000 )
                  (  0.0000000  1.0000000  0.0000000 )


      isym = 17     120 deg rotation - cart. axis [-1,-1,-1]     

 cryst.   s(17) = (     0          0          1      )
                  (     1          0          0      )
                  (     0          1          0      )

 cart.    s(17) = (  0.0000000  1.0000000  0.0000000 )
                  (  0.0000000  0.0000000  1.0000000 )
                  (  1.0000000  0.0000000  0.0000000 )


      isym = 18     120 deg rotation - cart. axis [-1,1,1]       

 cryst.   s(18) = (     0          0         -1      )
                  (    -1          0          0      )
                  (     0          1          0      )

 cart.    s(18) = (  0.0000000 -1.0000000  0.0000000 )
                  (  0.0000000  0.0000000  1.0000000 )
                  ( -1.0000000  0.0000000  0.0000000 )


      isym = 19     120 deg rotation - cart. axis [1,1,-1]       

 cryst.   s(19) = (     0          0         -1      )
                  (     1          0          0      )
                  (     0         -1          0      )

 cart.    s(19) = (  0.0000000  1.0000000  0.0000000 )
                  (  0.0000000  0.0000000 -1.0000000 )
                  ( -1.0000000  0.0000000  0.0000000 )


      isym = 20     120 deg rotation - cart. axis [1,-1,1]       

 cryst.   s(20) = (     0          0          1      )
                  (    -1          0          0      )
                  (     0         -1          0      )

 cart.    s(20) = (  0.0000000 -1.0000000  0.0000000 )
                  (  0.0000000  0.0000000 -1.0000000 )
                  (  1.0000000  0.0000000  0.0000000 )


      isym = 21     120 deg rotation - cart. axis [1,1,1]        

 cryst.   s(21) = (     0          1          0      )
                  (     0          0          1      )
                  (     1          0          0      )

 cart.    s(21) = (  0.0000000  0.0000000  1.0000000 )
                  (  1.0000000  0.0000000  0.0000000 )
                  (  0.0000000  1.0000000  0.0000000 )


      isym = 22     120 deg rotation - cart. axis [-1,1,-1]      

 cryst.   s(22) = (     0         -1          0      )
                  (     0          0         -1      )
                  (     1          0          0      )

 cart.    s(22) = (  0.0000000  0.0000000  1.0000000 )
                  ( -1.0000000  0.0000000  0.0000000 )
                  (  0.0000000 -1.0000000  0.0000000 )


      isym = 23     120 deg rotation - cart. axis [1,-1,-1]      

 cryst.   s(23) = (     0         -1          0      )
                  (     0          0          1      )
                  (    -1          0          0      )

 cart.    s(23) = (  0.0000000  0.0000000 -1.0000000 )
                  ( -1.0000000  0.0000000  0.0000000 )
                  (  0.0000000  1.0000000  0.0000000 )


      isym = 24     120 deg rotation - cart. axis [-1,-1,1]      

 cryst.   s(24) = (     0          1          0      )
                  (     0          0         -1      )
                  (    -1          0          0      )

 cart.    s(24) = (  0.0000000  0.0000000 -1.0000000 )
                  (  1.0000000  0.0000000  0.0000000 )
                  (  0.0000000 -1.0000000  0.0000000 )


      isym = 25     inversion                                    

 cryst.   s(25) = (    -1          0          0      )
                  (     0         -1          0      )
                  (     0          0         -1      )

 cart.    s(25) = ( -1.0000000  0.0000000  0.0000000 )
                  (  0.0000000 -1.0000000  0.0000000 )
                  (  0.0000000  0.0000000 -1.0000000 )


      isym = 26     inv. 180 deg rotation - cart. axis [0,0,1]   

 cryst.   s(26) = (     1          0          0      )
                  (     0          1          0      )
                  (     0          0         -1      )

 cart.    s(26) = (  1.0000000  0.0000000  0.0000000 )
                  (  0.0000000  1.0000000  0.0000000 )
                  (  0.0000000  0.0000000 -1.0000000 )


      isym = 27     inv. 180 deg rotation - cart. axis [0,1,0]   

 cryst.   s(27) = (     1          0          0      )
                  (     0         -1          0      )
                  (     0          0          1      )

 cart.    s(27) = (  1.0000000  0.0000000  0.0000000 )
                  (  0.0000000 -1.0000000  0.0000000 )
                  (  0.0000000  0.0000000  1.0000000 )


      isym = 28     inv. 180 deg rotation - cart. axis [1,0,0]   

 cryst.   s(28) = (    -1          0          0      )
                  (     0          1          0      )
                  (     0          0          1      )

 cart.    s(28) = ( -1.0000000  0.0000000  0.0000000 )
                  (  0.0000000  1.0000000  0.0000000 )
                  (  0.0000000  0.0000000  1.0000000 )


      isym = 29     inv. 180 deg rotation - cart. axis [1,1,0]   

 cryst.   s(29) = (     0         -1          0      )
                  (    -1          0          0      )
                  (     0          0          1      )

 cart.    s(29) = (  0.0000000 -1.0000000  0.0000000 )
                  ( -1.0000000  0.0000000  0.0000000 )
                  (  0.0000000  0.0000000  1.0000000 )


      isym = 30     inv. 180 deg rotation - cart. axis [1,-1,0]  

 cryst.   s(30) = (     0          1          0      )
                  (     1          0          0      )
                  (     0          0          1      )

 cart.    s(30) = (  0.0000000  1.0000000  0.0000000 )
                  (  1.0000000  0.0000000  0.0000000 )
                  (  0.0000000  0.0000000  1.0000000 )


      isym = 31     inv.  90 deg rotation - cart. axis [0,0,-1]  

 cryst.   s(31) = (     0          1          0      )
                  (    -1          0          0      )
                  (     0          0         -1      )

 cart.    s(31) = (  0.0000000 -1.0000000  0.0000000 )
                  (  1.0000000  0.0000000  0.0000000 )
                  (  0.0000000  0.0000000 -1.0000000 )


      isym = 32     inv.  90 deg rotation - cart. axis [0,0,1]   

 cryst.   s(32) = (     0         -1          0      )
                  (     1          0          0      )
                  (     0          0         -1      )

 cart.    s(32) = (  0.0000000  1.0000000  0.0000000 )
                  ( -1.0000000  0.0000000  0.0000000 )
                  (  0.0000000  0.0000000 -1.0000000 )


      isym = 33     inv. 180 deg rotation - cart. axis [1,0,1]   

 cryst.   s(33) = (     0          0         -1      )
                  (     0          1          0      )
                  (    -1          0          0      )

 cart.    s(33) = (  0.0000000  0.0000000 -1.0000000 )
                  (  0.0000000  1.0000000  0.0000000 )
                  ( -1.0000000  0.0000000  0.0000000 )


      isym = 34     inv. 180 deg rotation - cart. axis [-1,0,1]  

 cryst.   s(34) = (     0          0          1      )
                  (     0          1          0      )
                  (     1          0          0      )

 cart.    s(34) = (  0.0000000  0.0000000  1.0000000 )
                  (  0.0000000  1.0000000  0.0000000 )
                  (  1.0000000  0.0000000  0.0000000 )


      isym = 35     inv.  90 deg rotation - cart. axis [0,1,0]   

 cryst.   s(35) = (     0          0          1      )
                  (     0         -1          0      )
                  (    -1          0          0      )

 cart.    s(35) = (  0.0000000  0.0000000 -1.0000000 )
                  (  0.0000000 -1.0000000  0.0000000 )
                  (  1.0000000  0.0000000  0.0000000 )


      isym = 36     inv.  90 deg rotation - cart. axis [0,-1,0]  

 cryst.   s(36) = (     0          0         -1      )
                  (     0         -1          0      )
                  (     1          0          0      )

 cart.    s(36) = (  0.0000000  0.0000000  1.0000000 )
                  (  0.0000000 -1.0000000  0.0000000 )
                  ( -1.0000000  0.0000000  0.0000000 )


      isym = 37     inv. 180 deg rotation - cart. axis [0,1,1]   

 cryst.   s(37) = (     1          0          0      )
                  (     0          0         -1      )
                  (     0         -1          0      )

 cart.    s(37) = (  1.0000000  0.0000000  0.0000000 )
                  (  0.0000000  0.0000000 -1.0000000 )
                  (  0.0000000 -1.0000000  0.0000000 )


      isym = 38     inv. 180 deg rotation - cart. axis [0,1,-1]  

 cryst.   s(38) = (     1          0          0      )
                  (     0          0          1      )
                  (     0          1          0      )

 cart.    s(38) = (  1.0000000  0.0000000  0.0000000 )
                  (  0.0000000  0.0000000  1.0000000 )
                  (  0.0000000  1.0000000  0.0000000 )


      isym = 39     inv.  90 deg rotation - cart. axis [-1,0,0]  

 cryst.   s(39) = (    -1          0          0      )
                  (     0          0          1      )
                  (     0         -1          0      )

 cart.    s(39) = ( -1.0000000  0.0000000  0.0000000 )
                  (  0.0000000  0.0000000 -1.0000000 )
                  (  0.0000000  1.0000000  0.0000000 )


      isym = 40     inv.  90 deg rotation - cart. axis [1,0,0]   

 cryst.   s(40) = (    -1          0          0      )
                  (     0          0         -1      )
                  (     0          1          0      )

 cart.    s(40) = ( -1.0000000  0.0000000  0.0000000 )
                  (  0.0000000  0.0000000  1.0000000 )
                  (  0.0000000 -1.0000000  0.0000000 )


      isym = 41     inv. 120 deg rotation - cart. axis [-1,-1,-1]

 cryst.   s(41) = (     0          0         -1      )
                  (    -1          0          0      )
                  (     0         -1          0      )

 cart.    s(41) = (  0.0000000 -1.0000000  0.0000000 )
                  (  0.0000000  0.0000000 -1.0000000 )
                  ( -1.0000000  0.0000000  0.0000000 )


      isym = 42     inv. 120 deg rotation - cart. axis [-1,1,1]  

 cryst.   s(42) = (     0          0          1      )
                  (     1          0          0      )
                  (     0         -1          0      )

 cart.    s(42) = (  0.0000000  1.0000000  0.0000000 )
                  (  0.0000000  0.0000000 -1.0000000 )
                  (  1.0000000  0.0000000  0.0000000 )


      isym = 43     inv. 120 deg rotation - cart. axis [1,1,-1]  

 cryst.   s(43) = (     0          0          1      )
                  (    -1          0          0      )
                  (     0          1          0      )

 cart.    s(43) = (  0.0000000 -1.0000000  0.0000000 )
                  (  0.0000000  0.0000000  1.0000000 )
                  (  1.0000000  0.0000000  0.0000000 )


      isym = 44     inv. 120 deg rotation - cart. axis [1,-1,1]  

 cryst.   s(44) = (     0          0         -1      )
                  (     1          0          0      )
                  (     0          1          0      )

 cart.    s(44) = (  0.0000000  1.0000000  0.0000000 )
                  (  0.0000000  0.0000000  1.0000000 )
                  ( -1.0000000  0.0000000  0.0000000 )


      isym = 45     inv. 120 deg rotation - cart. axis [1,1,1]   

 cryst.   s(45) = (     0         -1          0      )
                  (     0          0         -1      )
                  (    -1          0          0      )

 cart.    s(45) = (  0.0000000  0.0000000 -1.0000000 )
                  ( -1.0000000  0.0000000  0.0000000 )
                  (  0.0000000 -1.0000000  0.0000000 )


      isym = 46     inv. 120 deg rotation - cart. axis [-1,1,-1] 

 cryst.   s(46) = (     0          1          0      )
                  (     0          0          1      )
                  (    -1          0          0      )

 cart.    s(46) = (  0.0000000  0.0000000 -1.0000000 )
                  (  1.0000000  0.0000000  0.0000000 )
                  (  0.0000000  1.0000000  0.0000000 )


      isym = 47     inv. 120 deg rotation - cart. axis [1,-1,-1] 

 cryst.   s(47) = (     0          1          0      )
                  (     0          0         -1      )
                  (     1          0          0      )

 cart.    s(47) = (  0.0000000  0.0000000  1.0000000 )
                  (  1.0000000  0.0000000  0.0000000 )
                  (  0.0000000 -1.0000000  0.0000000 )


      isym = 48     inv. 120 deg rotation - cart. axis [-1,-1,1] 

 cryst.   s(48) = (     0         -1          0      )
                  (     0          0          1      )
                  (     1          0          0      )

 cart.    s(48) = (  0.0000000  0.0000000  1.0000000 )
                  ( -1.0000000  0.0000000  0.0000000 )
                  (  0.0000000  1.0000000  0.0000000 )


     point group O_h (m-3m) 
     there are 10 classes
     the character table:

       E     8C3   3C2   6C4   6C2'  i     8S6   3s_h  6S4   6s_d 
A_1g   1.00  1.00  1.00  1.00  1.00  1.00  1.00  1.00  1.00  1.00
A_2g   1.00  1.00  1.00 -1.00 -1.00  1.00  1.00  1.00 -1.00 -1.00
E_g    2.00 -1.00  2.00  0.00  0.00  2.00 -1.00  2.00  0.00  0.00
T_1g   3.00  0.00 -1.00  1.00 -1.00  3.00  0.00 -1.00  1.00 -1.00
T_2g   3.00  0.00 -1.00 -1.00  1.00  3.00  0.00 -1.00 -1.00  1.00
A_1u   1.00  1.00  1.00  1.00  1.00 -1.00 -1.00 -1.00 -1.00 -1.00
A_2u   1.00  1.00  1.00 -1.00 -1.00 -1.00 -1.00 -1.00  1.00  1.00
E_u    2.00 -1.00  2.00  0.00  0.00 -2.00  1.00 -2.00  0.00  0.00
T_1u   3.00  0.00 -1.00  1.00 -1.00 -3.00  0.00  1.00 -1.00  1.00
T_2u   3.00  0.00 -1.00 -1.00  1.00 -3.00  0.00  1.00  1.00 -1.00

     the symmetry operations in each class and the name of the first element:

     E        1
          identity                                               
     8C3     17   19   20   18   24   21   22   23
          120 deg rotation - cart. axis [-1,-1,-1]               
     3C2      2    4    3
          180 deg rotation - cart. axis [0,0,1]                  
     6C4      7    8   15   16   12   11
           90 deg rotation - cart. axis [0,0,-1]                 
     6C2'     5    6   14   13   10    9
          180 deg rotation - cart. axis [1,1,0]                  
     i       25
          inversion                                              
     8S6     41   43   44   42   48   45   46   47
          inv. 120 deg rotation - cart. axis [-1,-1,-1]          
     3s_h    26   28   27
          inv. 180 deg rotation - cart. axis [0,0,1]             
     6S4     31   32   39   40   36   35
          inv.  90 deg rotation - cart. axis [0,0,-1]            
     6s_d    29   30   38   37   34   33
          inv. 180 deg rotation - cart. axis [1,1,0]             

   Cartesian axes

     site n.     atom                  positions (alat units)
         1           Ga  tau(   1) = (   0.0000000   0.0000000   0.0000000  )
         2           Ga  tau(   2) = (   0.0000000   0.5000000   0.5000000  )
         3           Ga  tau(   3) = (   0.5000000   0.0000000   0.5000000  )
         4           Ga  tau(   4) = (   0.5000000   0.5000000   0.0000000  )
         5           N   tau(   5) = (   0.5000000   0.0000000   0.0000000  )
         6           N   tau(   6) = (   0.5000000   0.5000000   0.5000000  )
         7           N   tau(   7) = (   0.0000000   0.0000000   0.5000000  )
         8           N   tau(   8) = (   0.0000000   0.5000000   0.0000000  )

   Crystallographic axes

     site n.     atom                  positions (cryst. coord.)
         1           Ga  tau(   1) = (  0.0000000  0.0000000  0.0000000  )
         2           Ga  tau(   2) = (  0.0000000  0.5000000  0.5000000  )
         3           Ga  tau(   3) = (  0.5000000  0.0000000  0.5000000  )
         4           Ga  tau(   4) = (  0.5000000  0.5000000  0.0000000  )
         5           N   tau(   5) = (  0.5000000  0.0000000  0.0000000  )
         6           N   tau(   6) = (  0.5000000  0.5000000  0.5000000  )
         7           N   tau(   7) = (  0.0000000  0.0000000  0.5000000  )
         8           N   tau(   8) = (  0.0000000  0.5000000  0.0000000  )

     number of k points=    10  Gaussian smearing, width (Ry)=  0.0100
                       cart. coord. in units 2pi/alat
        k(    1) = (   0.0000000   0.0000000   0.0000000), wk =   0.0312500
        k(    2) = (   0.0000000   0.0000000   0.2500000), wk =   0.1875000
        k(    3) = (   0.0000000   0.0000000  -0.5000000), wk =   0.0937500
        k(    4) = (   0.0000000   0.2500000   0.2500000), wk =   0.3750000
        k(    5) = (   0.0000000   0.2500000  -0.5000000), wk =   0.3750000
        k(    6) = (   0.0000000  -0.5000000  -0.5000000), wk =   0.0937500
        k(    7) = (   0.2500000   0.2500000   0.2500000), wk =   0.2500000
        k(    8) = (   0.2500000   0.2500000  -0.5000000), wk =   0.3750000
        k(    9) = (   0.2500000  -0.5000000  -0.5000000), wk =   0.1875000
        k(   10) = (  -0.5000000  -0.5000000  -0.5000000), wk =   0.0312500

                       cryst. coord.
        k(    1) = (   0.0000000   0.0000000   0.0000000), wk =   0.0312500
        k(    2) = (   0.0000000   0.0000000   0.2500000), wk =   0.1875000
        k(    3) = (   0.0000000   0.0000000  -0.5000000), wk =   0.0937500
        k(    4) = (   0.0000000   0.2500000   0.2500000), wk =   0.3750000
        k(    5) = (   0.0000000   0.2500000  -0.5000000), wk =   0.3750000
        k(    6) = (   0.0000000  -0.5000000  -0.5000000), wk =   0.0937500
        k(    7) = (   0.2500000   0.2500000   0.2500000), wk =   0.2500000
        k(    8) = (   0.2500000   0.2500000  -0.5000000), wk =   0.3750000
        k(    9) = (   0.2500000  -0.5000000  -0.5000000), wk =   0.1875000
        k(   10) = (  -0.5000000  -0.5000000  -0.5000000), wk =   0.0312500

     Dense  grid:    57873 G-vectors     FFT dimensions: (  50,  50,  50)

     Smooth grid:    41755 G-vectors     FFT dimensions: (  45,  45,  45)

     Dynamical RAM for                 wfc:       0.21 MB

     Dynamical RAM for     wfc (w. buffer):       0.64 MB

     Dynamical RAM for           str. fact:       0.11 MB

     Dynamical RAM for           local pot:       0.00 MB

     Dynamical RAM for          nlocal pot:       0.51 MB

     Dynamical RAM for                qrad:       6.01 MB

     Dynamical RAM for          rho,v,vnew:       0.39 MB

     Dynamical RAM for               rhoin:       0.13 MB

     Dynamical RAM for            rho*nmix:       0.88 MB

     Dynamical RAM for           G-vectors:       0.23 MB

     Dynamical RAM for          h,s,v(r/c):       1.35 MB

     Dynamical RAM for          <psi|beta>:       0.07 MB

     Dynamical RAM for                 psi:       0.85 MB

     Dynamical RAM for                hpsi:       0.85 MB

     Dynamical RAM for                spsi:       0.85 MB

     Dynamical RAM for      wfcinit/wfcrot:       0.58 MB

     Dynamical RAM for           addusdens:       1.36 MB

     Dynamical RAM for          addusforce:       1.40 MB

     Dynamical RAM for         addusstress:       1.41 MB

     Estimated static dynamical RAM per process >       8.57 MB

     Estimated max dynamical RAM per process >      13.43 MB

     Estimated total dynamical RAM >       1.58 GB

     Check: negative core charge=   -0.000003

     Initial potential from superposition of free atoms

     starting charge      71.9882, renormalised to      72.0000


     %%%%%%%%%%%%%%%%%%%%%%%%%%%%%%%%%%%%%%%%%%%%%%%%%%%%%%%%%%%%%%%%%%%%%%%%
     %                                                                      %
     % You are using vdW-DF, which was implemented by the Thonhauser group. %
     % Please cite the following two papers that made this development      %
     % possible and the two reviews that describe the various versions:     %
     %                                                                      %
     %   T. Thonhauser et al., PRL 115, 136402 (2015).                      %
     %   T. Thonhauser et al., PRB 76, 125112 (2007).                       %
     %   K. Berland et al., Rep. Prog. Phys. 78, 066501 (2015).             %
     %   D.C. Langreth et al., J. Phys.: Condens. Matter 21, 084203 (2009). %
     %                                                                      %
     % If you are calculating stress with vdW-DF, please also cite:         %
     %                                                                      %
     %   R. Sabatini et al., J. Phys.: Condens. Matter 24, 424209 (2012).   %
     %                                                                      %
     %%%%%%%%%%%%%%%%%%%%%%%%%%%%%%%%%%%%%%%%%%%%%%%%%%%%%%%%%%%%%%%%%%%%%%%%

     %%%%%%%%%%%%%%%%%%%%%%%%%%%%%%%%%%%%%%%%%%%%%%%%%%%%%%%%%%%%%%%%%%%%%%%%
     %                                                                      %
     %  vdW-DF NEWS:                                                        %
     %                                                                      %
     %  * vdW-DF3 is now available. DOI: 10.1021/acs.jctc.0c00471           %
     %    use with input_dft = 'vdW-DF3-opt1' or 'vdW-DF3-opt2'             %
     %                                                                      %
     %  * Unscreened and range-separated vdW-DF hybrid functionals          %
     %    DOI: 10.1063/1.4986522 and 10.1088/1361-648X/ac2ad2               %
     %    use with input_dft = 'vdW-DF-cx0' (etc) and 'vdW-DF-ahcx'         %
     %                                                                      %
     %%%%%%%%%%%%%%%%%%%%%%%%%%%%%%%%%%%%%%%%%%%%%%%%%%%%%%%%%%%%%%%%%%%%%%%%


     Carrying out vdW-DF run using the following parameters:
     Nqs    =  20  Npoints =  1024  r_max =  100.000
     q_mesh =  0.00001000  0.04494208  0.09755937  0.15916263
               0.23128650  0.31572767  0.41458969  0.53033537
               0.66584808  0.82450364  1.01025438  1.22772762
               1.48234092  1.78043706  2.12944203  2.53805004
               3.01644009  3.57652955  4.23227104  5.00000000


     -----------------------------------------------
     Non-local corr. energy    =       2.01000359 Ry
     -----------------------------------------------

     Starting wfcs are   52 randomized atomic wfcs
     Checking if some PAW data can be deallocated... 
       PAW data deallocated on   64 nodes for type:  1
       PAW data deallocated on   64 nodes for type:  2

     total cpu time spent up to now is        1.2 secs

     Self-consistent Calculation

     iteration #  1     ecut=    70.00 Ry     beta= 0.70
     Davidson diagonalization with overlap

---- Real-time Memory Report at c_bands before calling an iterative solver
           142 MiB given to the printing process from OS
             0 MiB allocation reported by mallinfo(arena+hblkhd)
       1943849 MiB available memory on the node where the printing process lives
------------------
     ethr =  1.00E-02,  avg # of iterations =  2.4


     -----------------------------------------------
     Non-local corr. energy    =       2.09354592 Ry
     -----------------------------------------------


     total cpu time spent up to now is        1.5 secs

     total energy              =   -1247.41650916 Ry
     estimated scf accuracy    <       2.33393663 Ry

     iteration #  2     ecut=    70.00 Ry     beta= 0.70
     Davidson diagonalization with overlap

---- Real-time Memory Report at c_bands before calling an iterative solver
           152 MiB given to the printing process from OS
             0 MiB allocation reported by mallinfo(arena+hblkhd)
       1943648 MiB available memory on the node where the printing process lives
------------------
     ethr =  3.24E-03,  avg # of iterations =  6.4


     -----------------------------------------------
     Non-local corr. energy    =       2.08627932 Ry
     -----------------------------------------------


     total cpu time spent up to now is        1.8 secs

     total energy              =   -1248.34036045 Ry
     estimated scf accuracy    <       2.82342847 Ry

     iteration #  3     ecut=    70.00 Ry     beta= 0.70
     Davidson diagonalization with overlap

---- Real-time Memory Report at c_bands before calling an iterative solver
           154 MiB given to the printing process from OS
             0 MiB allocation reported by mallinfo(arena+hblkhd)
       1943453 MiB available memory on the node where the printing process lives
------------------
     ethr =  3.24E-03,  avg # of iterations =  3.1


     -----------------------------------------------
     Non-local corr. energy    =       2.11117773 Ry
     -----------------------------------------------


     total cpu time spent up to now is        2.1 secs

     total energy              =   -1248.80313340 Ry
     estimated scf accuracy    <       0.06861945 Ry

     iteration #  4     ecut=    70.00 Ry     beta= 0.70
     Davidson diagonalization with overlap

---- Real-time Memory Report at c_bands before calling an iterative solver
           155 MiB given to the printing process from OS
             0 MiB allocation reported by mallinfo(arena+hblkhd)
       1943315 MiB available memory on the node where the printing process lives
------------------
     ethr =  9.53E-05,  avg # of iterations =  4.4


     -----------------------------------------------
     Non-local corr. energy    =       2.12737058 Ry
     -----------------------------------------------


     total cpu time spent up to now is        2.4 secs

     total energy              =   -1248.82812588 Ry
     estimated scf accuracy    <       0.00537006 Ry

     iteration #  5     ecut=    70.00 Ry     beta= 0.70
     Davidson diagonalization with overlap

---- Real-time Memory Report at c_bands before calling an iterative solver
           155 MiB given to the printing process from OS
             0 MiB allocation reported by mallinfo(arena+hblkhd)
       1943282 MiB available memory on the node where the printing process lives
------------------
     ethr =  7.46E-06,  avg # of iterations =  5.0


     -----------------------------------------------
     Non-local corr. energy    =       2.12331680 Ry
     -----------------------------------------------


     total cpu time spent up to now is        2.7 secs

     total energy              =   -1248.82978830 Ry
     estimated scf accuracy    <       0.00337707 Ry

     iteration #  6     ecut=    70.00 Ry     beta= 0.70
     Davidson diagonalization with overlap

---- Real-time Memory Report at c_bands before calling an iterative solver
           155 MiB given to the printing process from OS
             0 MiB allocation reported by mallinfo(arena+hblkhd)
       1943258 MiB available memory on the node where the printing process lives
------------------
     ethr =  4.69E-06,  avg # of iterations =  1.9


     -----------------------------------------------
     Non-local corr. energy    =       2.12158401 Ry
     -----------------------------------------------


     total cpu time spent up to now is        3.0 secs

     total energy              =   -1248.82984102 Ry
     estimated scf accuracy    <       0.00138484 Ry

     iteration #  7     ecut=    70.00 Ry     beta= 0.70
     Davidson diagonalization with overlap

---- Real-time Memory Report at c_bands before calling an iterative solver
           156 MiB given to the printing process from OS
             0 MiB allocation reported by mallinfo(arena+hblkhd)
       1943297 MiB available memory on the node where the printing process lives
------------------
     ethr =  1.92E-06,  avg # of iterations =  1.7


     -----------------------------------------------
     Non-local corr. energy    =       2.12001547 Ry
     -----------------------------------------------


     total cpu time spent up to now is        3.2 secs

     total energy              =   -1248.82984467 Ry
     estimated scf accuracy    <       0.00100643 Ry

     iteration #  8     ecut=    70.00 Ry     beta= 0.70
     Davidson diagonalization with overlap

---- Real-time Memory Report at c_bands before calling an iterative solver
           156 MiB given to the printing process from OS
             0 MiB allocation reported by mallinfo(arena+hblkhd)
       1943249 MiB available memory on the node where the printing process lives
------------------
     ethr =  1.40E-06,  avg # of iterations =  2.7


     -----------------------------------------------
     Non-local corr. energy    =       2.11899518 Ry
     -----------------------------------------------


     total cpu time spent up to now is        3.5 secs

     total energy              =   -1248.82982119 Ry
     estimated scf accuracy    <       0.00060131 Ry

     iteration #  9     ecut=    70.00 Ry     beta= 0.70
     Davidson diagonalization with overlap

---- Real-time Memory Report at c_bands before calling an iterative solver
           156 MiB given to the printing process from OS
             0 MiB allocation reported by mallinfo(arena+hblkhd)
       1943242 MiB available memory on the node where the printing process lives
------------------
     ethr =  8.35E-07,  avg # of iterations =  1.0


     -----------------------------------------------
     Non-local corr. energy    =       2.11799493 Ry
     -----------------------------------------------


     total cpu time spent up to now is        3.7 secs

     total energy              =   -1248.82978991 Ry
     estimated scf accuracy    <       0.00039129 Ry

     iteration # 10     ecut=    70.00 Ry     beta= 0.70
     Davidson diagonalization with overlap

---- Real-time Memory Report at c_bands before calling an iterative solver
           157 MiB given to the printing process from OS
             0 MiB allocation reported by mallinfo(arena+hblkhd)
       1943369 MiB available memory on the node where the printing process lives
------------------
     ethr =  5.43E-07,  avg # of iterations =  1.0


     -----------------------------------------------
     Non-local corr. energy    =       2.11691490 Ry
     -----------------------------------------------


     total cpu time spent up to now is        3.9 secs

     total energy              =   -1248.82976566 Ry
     estimated scf accuracy    <       0.00021684 Ry

     iteration # 11     ecut=    70.00 Ry     beta= 0.70
     Davidson diagonalization with overlap

---- Real-time Memory Report at c_bands before calling an iterative solver
           157 MiB given to the printing process from OS
             0 MiB allocation reported by mallinfo(arena+hblkhd)
       1943311 MiB available memory on the node where the printing process lives
------------------
     ethr =  3.01E-07,  avg # of iterations =  1.8


     -----------------------------------------------
     Non-local corr. energy    =       2.11600801 Ry
     -----------------------------------------------


     total cpu time spent up to now is        4.1 secs

     total energy              =   -1248.82975963 Ry
     estimated scf accuracy    <       0.00007219 Ry

     iteration # 12     ecut=    70.00 Ry     beta= 0.70
     Davidson diagonalization with overlap

---- Real-time Memory Report at c_bands before calling an iterative solver
           158 MiB given to the printing process from OS
             0 MiB allocation reported by mallinfo(arena+hblkhd)
       1943189 MiB available memory on the node where the printing process lives
------------------
     ethr =  1.00E-07,  avg # of iterations =  3.9


     -----------------------------------------------
     Non-local corr. energy    =       2.11560169 Ry
     -----------------------------------------------


     total cpu time spent up to now is        4.3 secs

     total energy              =   -1248.82977078 Ry
     estimated scf accuracy    <       0.00000241 Ry

     iteration # 13     ecut=    70.00 Ry     beta= 0.70
     Davidson diagonalization with overlap

---- Real-time Memory Report at c_bands before calling an iterative solver
           159 MiB given to the printing process from OS
             0 MiB allocation reported by mallinfo(arena+hblkhd)
       1943141 MiB available memory on the node where the printing process lives
------------------
     ethr =  3.34E-09,  avg # of iterations =  6.0


     -----------------------------------------------
     Non-local corr. energy    =       2.11569653 Ry
     -----------------------------------------------


     total cpu time spent up to now is        4.7 secs

     total energy              =   -1248.82977779 Ry
     estimated scf accuracy    <       0.00001409 Ry

     iteration # 14     ecut=    70.00 Ry     beta= 0.70
     Davidson diagonalization with overlap

---- Real-time Memory Report at c_bands before calling an iterative solver
           159 MiB given to the printing process from OS
             0 MiB allocation reported by mallinfo(arena+hblkhd)
       1943183 MiB available memory on the node where the printing process lives
------------------
     ethr =  3.34E-09,  avg # of iterations =  1.0


     -----------------------------------------------
     Non-local corr. energy    =       2.11504373 Ry
     -----------------------------------------------


     total cpu time spent up to now is        4.9 secs

     total energy              =   -1248.82978586 Ry
     estimated scf accuracy    <       0.00001080 Ry

     iteration # 15     ecut=    70.00 Ry     beta= 0.70
     Davidson diagonalization with overlap

---- Real-time Memory Report at c_bands before calling an iterative solver
           160 MiB given to the printing process from OS
             0 MiB allocation reported by mallinfo(arena+hblkhd)
       1943173 MiB available memory on the node where the printing process lives
------------------
     ethr =  3.34E-09,  avg # of iterations =  4.0


     -----------------------------------------------
     Non-local corr. energy    =       2.11662493 Ry
     -----------------------------------------------


     total cpu time spent up to now is        5.2 secs

     total energy              =   -1248.82976528 Ry
     estimated scf accuracy    <       0.00006703 Ry

     iteration # 16     ecut=    70.00 Ry     beta= 0.70
     Davidson diagonalization with overlap

---- Real-time Memory Report at c_bands before calling an iterative solver
           161 MiB given to the printing process from OS
             0 MiB allocation reported by mallinfo(arena+hblkhd)
       1943226 MiB available memory on the node where the printing process lives
------------------
     ethr =  3.34E-09,  avg # of iterations =  4.0


     -----------------------------------------------
     Non-local corr. energy    =       2.11620950 Ry
     -----------------------------------------------


     total cpu time spent up to now is        5.5 secs

     total energy              =   -1248.82977531 Ry
     estimated scf accuracy    <       0.00001682 Ry

     iteration # 17     ecut=    70.00 Ry     beta= 0.70
     Davidson diagonalization with overlap

---- Real-time Memory Report at c_bands before calling an iterative solver
           161 MiB given to the printing process from OS
             0 MiB allocation reported by mallinfo(arena+hblkhd)
       1943160 MiB available memory on the node where the printing process lives
------------------
     ethr =  3.34E-09,  avg # of iterations =  4.0


     -----------------------------------------------
     Non-local corr. energy    =       2.11639285 Ry
     -----------------------------------------------


     total cpu time spent up to now is        5.8 secs

     total energy              =   -1248.82977684 Ry
     estimated scf accuracy    <       0.00000088 Ry

     iteration # 18     ecut=    70.00 Ry     beta= 0.70
     Davidson diagonalization with overlap

---- Real-time Memory Report at c_bands before calling an iterative solver
           161 MiB given to the printing process from OS
             0 MiB allocation reported by mallinfo(arena+hblkhd)
       1943155 MiB available memory on the node where the printing process lives
------------------
     ethr =  1.22E-09,  avg # of iterations =  3.5


     -----------------------------------------------
     Non-local corr. energy    =       2.11613297 Ry
     -----------------------------------------------


     total cpu time spent up to now is        6.0 secs

     total energy              =   -1248.82977595 Ry
     estimated scf accuracy    <       0.00000392 Ry

     iteration # 19     ecut=    70.00 Ry     beta= 0.70
     Davidson diagonalization with overlap

---- Real-time Memory Report at c_bands before calling an iterative solver
           161 MiB given to the printing process from OS
             0 MiB allocation reported by mallinfo(arena+hblkhd)
       1943174 MiB available memory on the node where the printing process lives
------------------
     ethr =  1.22E-09,  avg # of iterations =  4.0


     -----------------------------------------------
     Non-local corr. energy    =       2.11614063 Ry
     -----------------------------------------------


     total cpu time spent up to now is        6.3 secs

     total energy              =   -1248.82977614 Ry
     estimated scf accuracy    <       0.00000021 Ry

     iteration # 20     ecut=    70.00 Ry     beta= 0.70
     Davidson diagonalization with overlap

---- Real-time Memory Report at c_bands before calling an iterative solver
           161 MiB given to the printing process from OS
             0 MiB allocation reported by mallinfo(arena+hblkhd)
       1943171 MiB available memory on the node where the printing process lives
------------------
     ethr =  2.92E-10,  avg # of iterations =  1.0


     -----------------------------------------------
     Non-local corr. energy    =       2.11603362 Ry
     -----------------------------------------------


     total cpu time spent up to now is        6.5 secs

     total energy              =   -1248.82977606 Ry
     estimated scf accuracy    <       0.00000023 Ry

     iteration # 21     ecut=    70.00 Ry     beta= 0.70
     Davidson diagonalization with overlap

---- Real-time Memory Report at c_bands before calling an iterative solver
           161 MiB given to the printing process from OS
             0 MiB allocation reported by mallinfo(arena+hblkhd)
       1943141 MiB available memory on the node where the printing process lives
------------------
     ethr =  2.92E-10,  avg # of iterations =  3.8


     -----------------------------------------------
     Non-local corr. energy    =       2.11606868 Ry
     -----------------------------------------------


     total cpu time spent up to now is        6.8 secs

     total energy              =   -1248.82977611 Ry
     estimated scf accuracy    <       0.00000018 Ry

     iteration # 22     ecut=    70.00 Ry     beta= 0.70
     Davidson diagonalization with overlap

---- Real-time Memory Report at c_bands before calling an iterative solver
           161 MiB given to the printing process from OS
             0 MiB allocation reported by mallinfo(arena+hblkhd)
       1943138 MiB available memory on the node where the printing process lives
------------------
     ethr =  2.55E-10,  avg # of iterations =  1.0


     -----------------------------------------------
     Non-local corr. energy    =       2.11612269 Ry
     -----------------------------------------------


     total cpu time spent up to now is        6.9 secs

     End of self-consistent calculation

          k = 0.0000 0.0000 0.0000 (  5185 PWs)   bands (ev):

    -4.5527  -3.5663  -3.5663  -3.5663  -2.3532  -2.3532  -2.3532  -2.2025
    -2.2025  -2.2025  -2.1115  -2.1115  -2.0150  -2.0150  -2.0150  -1.9580
    -1.9580  -1.9580  -1.9580  -1.9580  -1.9580   1.0832   1.0832   1.0832
     5.6837   5.6837   5.6837   9.5665   9.5665   9.5665   9.5665   9.5665
     9.5665  11.9864  11.9864  11.9864  12.7814  12.7814  12.7814  14.2558
    20.9314  20.9314  20.9314

     occupation numbers 
     1.0000   1.0000   1.0000   1.0000   1.0000   1.0000   1.0000   1.0000
     1.0000   1.0000   1.0000   1.0000   1.0000   1.0000   1.0000   1.0000
     1.0000   1.0000   1.0000   1.0000   1.0000   1.0000   1.0000   1.0000
     1.0000   1.0000   1.0000   1.0000   1.0000   1.0000   1.0000   1.0000
     1.0000   1.0000   1.0000   1.0000   0.0505   0.0505   0.0505   0.0000
     0.0000   0.0000   0.0000

          k = 0.0000 0.0000 0.2500 (  5201 PWs)   bands (ev):

    -4.1849  -3.4869  -3.4337  -3.4337  -2.3310  -2.3095  -2.3095  -2.2244
    -2.1730  -2.1730  -2.1557  -2.0974  -2.0799  -2.0799  -2.0329  -2.0329
    -2.0292  -2.0007  -2.0007  -1.9580  -1.9580  -0.2215   0.9823   0.9823
     6.1540   6.1540   6.9453   8.5402   8.5402   8.8409   8.8409   9.9080
     9.9080  10.4789  11.6219  11.6219  13.9430  14.8921  14.8921  16.1462
    21.3759  21.6188  21.6188

     occupation numbers 
     1.0000   1.0000   1.0000   1.0000   1.0000   1.0000   1.0000   1.0000
     1.0000   1.0000   1.0000   1.0000   1.0000   1.0000   1.0000   1.0000
     1.0000   1.0000   1.0000   1.0000   1.0000   1.0000   1.0000   1.0000
     1.0000   1.0000   1.0000   1.0000   1.0000   1.0000   1.0000   1.0000
     1.0000   1.0000   1.0000   1.0000   0.0000   0.0000   0.0000   0.0000
     0.0000   0.0000   0.0000

          k = 0.0000 0.0000-0.5000 (  5230 PWs)   bands (ev):

    -3.5226  -3.5226  -3.2769  -3.2769  -2.2775  -2.2775  -2.1865  -2.1865
    -2.1865  -2.1865  -2.1672  -2.1672  -2.0934  -2.0934  -2.0934  -2.0934
    -2.0633  -2.0633  -1.9580  -1.9579  -1.8164  -1.8163   0.8764   0.8764
     7.3824   7.3824   7.3824   7.3824   7.9277   7.9277   8.6984   8.6984
    10.7523  10.7523  10.7523  10.7523  16.7929  16.7929  17.3068  17.3068
    21.3329  21.3329  22.0502

     occupation numbers 
     1.0000   1.0000   1.0000   1.0000   1.0000   1.0000   1.0000   1.0000
     1.0000   1.0000   1.0000   1.0000   1.0000   1.0000   1.0000   1.0000
     1.0000   1.0000   1.0000   1.0000   1.0000   1.0000   1.0000   1.0000
     1.0000   1.0000   1.0000   1.0000   1.0000   1.0000   1.0000   1.0000
     1.0000   1.0000   1.0000   1.0000   0.0000   0.0000   0.0000   0.0000
     0.0000   0.0000   0.0000

          k = 0.0000 0.2500 0.2500 (  5185 PWs)   bands (ev):

    -3.8217  -3.3269  -3.3269  -3.2982  -2.2928  -2.2928  -2.2815  -2.2228
    -2.2049  -2.1891  -2.1623  -2.1276  -2.1276  -2.1275  -2.0657  -2.0514
    -2.0348  -2.0348  -2.0011  -2.0011  -1.9894  -0.1463  -0.1463   0.7097
     6.6101   6.6175   6.6175   6.8879   9.0448   9.2136   9.2136   9.8128
     9.8128  10.4683  11.1753  12.3973  15.4414  15.6638  15.6638  16.9275
    21.5449  21.8536  21.8536

     occupation numbers 
     1.0000   1.0000   1.0000   1.0000   1.0000   1.0000   1.0000   1.0000
     1.0000   1.0000   1.0000   1.0000   1.0000   1.0000   1.0000   1.0000
     1.0000   1.0000   1.0000   1.0000   1.0000   1.0000   1.0000   1.0000
     1.0000   1.0000   1.0000   1.0000   1.0000   1.0000   1.0000   1.0000
     1.0000   1.0000   1.0000   0.9907   0.0000   0.0000   0.0000   0.0000
     0.0000   0.0000   0.0000

          k = 0.0000 0.2500-0.5000 (  5206 PWs)   bands (ev):

    -3.2425  -3.2425  -3.1337  -3.1337  -2.2538  -2.2538  -2.2305  -2.2305
    -2.1916  -2.1916  -2.1864  -2.1864  -2.1579  -2.1579  -2.1146  -2.1145
    -2.0927  -2.0926  -2.0010  -2.0010  -1.6811  -1.6810   0.1718   0.1718
     6.2786   6.2786   7.5748   7.5748   7.8032   7.8032  10.1569  10.1569
    10.3152  10.3152  11.7559  11.7559  17.5530  17.5530  17.7974  17.7974
    20.5500  20.5500  20.6559

     occupation numbers 
     1.0000   1.0000   1.0000   1.0000   1.0000   1.0000   1.0000   1.0000
     1.0000   1.0000   1.0000   1.0000   1.0000   1.0000   1.0000   1.0000
     1.0000   1.0000   1.0000   1.0000   1.0000   1.0000   1.0000   1.0000
     1.0000   1.0000   1.0000   1.0000   1.0000   1.0000   1.0000   1.0000
     1.0000   1.0000   1.0000   1.0000   0.0000   0.0000   0.0000   0.0000
     0.0000   0.0000   0.0000

          k = 0.0000-0.5000-0.5000 (  5216 PWs)   bands (ev):

    -2.9131  -2.9131  -2.9131  -2.9131  -2.2497  -2.2497  -2.2497  -2.2496
    -2.2199  -2.2199  -2.2199  -2.2199  -2.2047  -2.2047  -2.2047  -2.2047
    -2.0714  -2.0714  -2.0714  -2.0714  -1.0655  -1.0655  -1.0655  -1.0655
     6.4438   6.4438   6.4438   6.4438   8.8974   8.8974   8.8974   8.8974
    12.1769  12.1769  12.1769  12.1769  18.7008  18.7008  18.7008  18.7008
    19.7262  19.7262  19.7262

     occupation numbers 
     1.0000   1.0000   1.0000   1.0000   1.0000   1.0000   1.0000   1.0000
     1.0000   1.0000   1.0000   1.0000   1.0000   1.0000   1.0000   1.0000
     1.0000   1.0000   1.0000   1.0000   1.0000   1.0000   1.0000   1.0000
     1.0000   1.0000   1.0000   1.0000   1.0000   1.0000   1.0000   1.0000
     1.0000   1.0000   1.0000   1.0000   0.0000   0.0000   0.0000   0.0000
     0.0000   0.0000   0.0000

          k = 0.2500 0.2500 0.2500 (  5184 PWs)   bands (ev):

    -3.4553  -3.1657  -3.1657  -3.1657  -2.2766  -2.2766  -2.2766  -2.2315
    -2.2315  -2.2221  -2.1690  -2.1690  -2.1690  -2.0962  -2.0962  -2.0962
    -2.0897  -2.0897  -1.9865  -1.9865  -1.9865  -0.2021  -0.2021  -0.2021
     5.7848   5.7848   5.7848   7.7348   9.2409   9.2409   9.2409  10.7665
    10.7665  10.7665  12.1456  12.1456  16.2203  16.2203  16.2203  17.0693
    20.8853  20.8853  20.8853

     occupation numbers 
     1.0000   1.0000   1.0000   1.0000   1.0000   1.0000   1.0000   1.0000
     1.0000   1.0000   1.0000   1.0000   1.0000   1.0000   1.0000   1.0000
     1.0000   1.0000   1.0000   1.0000   1.0000   1.0000   1.0000   1.0000
     1.0000   1.0000   1.0000   1.0000   1.0000   1.0000   1.0000   1.0000
     1.0000   1.0000   1.0000   1.0000   0.0000   0.0000   0.0000   0.0000
     0.0000   0.0000   0.0000

          k = 0.2500 0.2500-0.5000 (  5184 PWs)   bands (ev):

    -2.9650  -2.9650  -2.9623  -2.9623  -2.2769  -2.2769  -2.2723  -2.2723
    -2.2256  -2.2256  -2.2095  -2.2095  -2.1613  -2.1613  -2.1435  -2.1435
    -2.0170  -2.0170  -2.0009  -2.0009  -1.6940  -1.6940  -0.2719  -0.2719
     5.1949   5.1949   6.3294   6.3294   9.5309   9.5309  10.9706  10.9706
    11.4770  11.4770  11.5816  11.5816  17.9378  17.9378  18.0366  18.0366
    19.5013  19.5013  19.9600

     occupation numbers 
     1.0000   1.0000   1.0000   1.0000   1.0000   1.0000   1.0000   1.0000
     1.0000   1.0000   1.0000   1.0000   1.0000   1.0000   1.0000   1.0000
     1.0000   1.0000   1.0000   1.0000   1.0000   1.0000   1.0000   1.0000
     1.0000   1.0000   1.0000   1.0000   1.0000   1.0000   1.0000   1.0000
     1.0000   1.0000   1.0000   1.0000   0.0000   0.0000   0.0000   0.0000
     0.0000   0.0000   0.0000

          k = 0.2500-0.5000-0.5000 (  5180 PWs)   bands (ev):

    -2.6661  -2.6661  -2.6661  -2.6661  -2.3008  -2.3008  -2.3008  -2.3008
    -2.2909  -2.2909  -2.2909  -2.2909  -2.1246  -2.1245  -2.1245  -2.1245
    -2.0323  -2.0323  -2.0323  -2.0323  -1.2477  -1.2477  -1.2477  -1.2477
     5.1546   5.1546   5.1546   5.1546  10.7878  10.7878  10.7878  10.7878
    12.2726  12.2726  12.2726  12.2726  18.2974  18.2974  18.2974  18.2974
    19.5539  19.5539  19.5539

     occupation numbers 
     1.0000   1.0000   1.0000   1.0000   1.0000   1.0000   1.0000   1.0000
     1.0000   1.0000   1.0000   1.0000   1.0000   1.0000   1.0000   1.0000
     1.0000   1.0000   1.0000   1.0000   1.0000   1.0000   1.0000   1.0000
     1.0000   1.0000   1.0000   1.0000   1.0000   1.0000   1.0000   1.0000
     0.9999   0.9999   0.9999   0.9999   0.0000   0.0000   0.0000   0.0000
     0.0000   0.0000   0.0000

          k =-0.5000-0.5000-0.5000 (  5232 PWs)   bands (ev):

    -2.3410  -2.3410  -2.3410  -2.3410  -2.3224  -2.3224  -2.3224  -2.3224
    -2.3224  -2.3224  -2.3224  -2.3224  -2.0031  -2.0031  -2.0031  -2.0031
    -2.0031  -2.0031  -2.0031  -2.0031  -1.6131  -1.6131  -1.6131  -1.6131
     4.4037   4.4037   4.4037   4.4037  12.3724  12.3724  12.3724  12.3724
    12.3724  12.3724  12.3724  12.3724  17.1715  17.1715  17.1715  17.1715
    21.3662  21.3662  21.3662

     occupation numbers 
     1.0000   1.0000   1.0000   1.0000   1.0000   1.0000   1.0000   1.0000
     1.0000   1.0000   1.0000   1.0000   1.0000   1.0000   1.0000   1.0000
     1.0000   1.0000   1.0000   1.0000   1.0000   1.0000   1.0000   1.0000
     1.0000   1.0000   1.0000   1.0000   0.9955   0.9955   0.9955   0.9955
     0.9955   0.9955   0.9955   0.9955   0.0000   0.0000   0.0000   0.0000
     0.0000   0.0000   0.0000

     the Fermi energy is    12.6236 ev

!    total energy              =   -1248.82977610 Ry
     total all-electron energy =    -16014.683613 Ry
     estimated scf accuracy    <       0.00000006 Ry
     smearing contrib. (-TS)   =      -0.00016161 Ry
     internal energy E=F+TS    =   -1248.82961449 Ry

     The total energy is F=E-TS. E is the sum of the following terms:
     one-electron contribution =    -285.12577399 Ry
     hartree contribution      =     227.09554656 Ry
     xc contribution           =    -182.35812211 Ry
     ewald contribution        =    -511.09101368 Ry
     one-center paw contrib.   =    -497.35025127 Ry
      -> PAW hartree energy AE =     142.06777572 Ry
      -> PAW hartree energy PS =    -140.75743535 Ry
      -> PAW xc energy AE      =    -156.77545984 Ry
      -> PAW xc energy PS      =      39.58521934 Ry
      -> total E_H with PAW    =     228.40588693 Ry
      -> total E_XC with PAW   =    -299.54836261 Ry

     convergence has been achieved in  22 iterations


     -----------------------------------------------
     Non-local corr. energy    =       2.11612269 Ry
     -----------------------------------------------


     Forces acting on atoms (cartesian axes, Ry/au):

     atom    1 type  1   force =     0.00000000    0.00000000    0.00000000
     atom    2 type  1   force =     0.00000000    0.00000000    0.00000000
     atom    3 type  1   force =     0.00000000    0.00000000    0.00000000
     atom    4 type  1   force =     0.00000000    0.00000000    0.00000000
     atom    5 type  2   force =     0.00000000    0.00000000    0.00000000
     atom    6 type  2   force =     0.00000000    0.00000000    0.00000000
     atom    7 type  2   force =     0.00000000    0.00000000    0.00000000
     atom    8 type  2   force =     0.00000000    0.00000000    0.00000000
     The non-local contrib.  to forces
     atom    1 type  1   force =     0.00000000    0.00000000    0.00000000
     atom    2 type  1   force =     0.00000000    0.00000000    0.00000000
     atom    3 type  1   force =     0.00000000    0.00000000    0.00000000
     atom    4 type  1   force =     0.00000000    0.00000000    0.00000000
     atom    5 type  2   force =     0.00000000    0.00000000    0.00000000
     atom    6 type  2   force =     0.00000000    0.00000000    0.00000000
     atom    7 type  2   force =     0.00000000    0.00000000    0.00000000
     atom    8 type  2   force =     0.00000000    0.00000000    0.00000000
     The ionic contribution  to forces
     atom    1 type  1   force =    -0.00000040   -0.00000040   -0.00000040
     atom    2 type  1   force =    -0.00000040    0.00000040    0.00000040
     atom    3 type  1   force =     0.00000040   -0.00000040    0.00000040
     atom    4 type  1   force =     0.00000040    0.00000040   -0.00000040
     atom    5 type  2   force =     0.00000022   -0.00000022   -0.00000022
     atom    6 type  2   force =     0.00000022    0.00000022    0.00000022
     atom    7 type  2   force =    -0.00000022   -0.00000022    0.00000022
     atom    8 type  2   force =    -0.00000022    0.00000022   -0.00000022
     The local contribution  to forces
     atom    1 type  1   force =    -0.00000000   -0.00000000    0.00000000
     atom    2 type  1   force =    -0.00000000    0.00000349    0.00000349
     atom    3 type  1   force =     0.00000349    0.00000000    0.00000349
     atom    4 type  1   force =     0.00000349    0.00000349    0.00000000
     atom    5 type  2   force =     0.00000027   -0.00000000   -0.00000000
     atom    6 type  2   force =     0.00000027    0.00000027    0.00000027
     atom    7 type  2   force =    -0.00000000   -0.00000000    0.00000027
     atom    8 type  2   force =    -0.00000000    0.00000027   -0.00000000
     The core correction contribution to forces
     atom    1 type  1   force =     0.00000000    0.00000000    0.00000000
     atom    2 type  1   force =     0.00000000    0.00000026    0.00000026
     atom    3 type  1   force =     0.00000026    0.00000000    0.00000026
     atom    4 type  1   force =     0.00000026    0.00000026    0.00000000
     atom    5 type  2   force =    -0.00000001    0.00000000    0.00000000
     atom    6 type  2   force =    -0.00000001   -0.00000001   -0.00000001
     atom    7 type  2   force =     0.00000000    0.00000000   -0.00000001
     atom    8 type  2   force =     0.00000000   -0.00000001    0.00000000
     The Hubbard contrib.    to forces
     atom    1 type  1   force =     0.00000000    0.00000000    0.00000000
     atom    2 type  1   force =     0.00000000    0.00000000    0.00000000
     atom    3 type  1   force =     0.00000000    0.00000000    0.00000000
     atom    4 type  1   force =     0.00000000    0.00000000    0.00000000
     atom    5 type  2   force =     0.00000000    0.00000000    0.00000000
     atom    6 type  2   force =     0.00000000    0.00000000    0.00000000
     atom    7 type  2   force =     0.00000000    0.00000000    0.00000000
     atom    8 type  2   force =     0.00000000    0.00000000    0.00000000
     The SCF correction term to forces
     atom    1 type  1   force =     0.00000000    0.00000000    0.00000000
     atom    2 type  1   force =     0.00000000   -0.00000000   -0.00000000
     atom    3 type  1   force =    -0.00000000    0.00000000   -0.00000000
     atom    4 type  1   force =    -0.00000000   -0.00000000    0.00000000
     atom    5 type  2   force =     0.00000000    0.00000000    0.00000000
     atom    6 type  2   force =     0.00000000    0.00000000    0.00000000
     atom    7 type  2   force =     0.00000000    0.00000000    0.00000000
     atom    8 type  2   force =     0.00000000    0.00000000    0.00000000

     Total force =     0.000000     Total SCF correction =     0.000000


     Computing stress (Cartesian axis) and pressure



     -----------------------------------------------
     Non-local corr. energy    =       2.11612269 Ry
     -----------------------------------------------

          total   stress  (Ry/bohr**3)                   (kbar)     P=       46.25
   0.00031443   0.00000000   0.00000000           46.25        0.00        0.00
   0.00000000   0.00031443   0.00000000            0.00       46.25        0.00
   0.00000000   0.00000000   0.00031443            0.00        0.00       46.25

     kinetic stress (kbar)  23287.66      0.00      0.00
                                0.00  23287.66      0.00
                                0.00      0.00  23287.66

     local   stress (kbar)  14495.33     -0.00     -0.00
                               -0.00  14495.33     -0.00
                               -0.00     -0.00  14495.33

     nonloc. stress (kbar)   -421.01      0.00      0.00
                                0.00   -421.01      0.00
                                0.00      0.00   -421.01

     hartree stress (kbar)  21188.07     -0.00     -0.00
                               -0.00  21188.07     -0.00
                               -0.00     -0.00  21188.07

     exc-cor stress (kbar)   6446.84      0.00      0.00
                                0.00   6446.84      0.00
                                0.00      0.00   6446.84

     corecor stress (kbar) -17460.07     -0.00     -0.00
                               -0.00 -17460.07     -0.00
                               -0.00     -0.00 -17460.07

     ewald   stress (kbar) -47684.92      0.00      0.00
                                0.00 -47684.92      0.00
                                0.00      0.00 -47684.92

     hubbard stress (kbar)      0.00      0.00      0.00
                                0.00      0.00      0.00
                                0.00      0.00      0.00

     DFT-D   stress (kbar)      0.00      0.00      0.00
                                0.00      0.00      0.00
                                0.00      0.00      0.00

     XDM     stress (kbar)      0.00      0.00      0.00
                                0.00      0.00      0.00
                                0.00      0.00      0.00

     dft-nl  stress (kbar)    194.34     -0.00     -0.00
                               -0.00    194.34     -0.00
                               -0.00     -0.00    194.34

     TS-vdW  stress (kbar)      0.00      0.00      0.00
                                0.00      0.00      0.00
                                0.00      0.00      0.00

     MDB     stress (kbar)      0.00      0.00      0.00
                                0.00      0.00      0.00
                                0.00      0.00      0.00

     3D-RISM stress (kbar)      0.00      0.00      0.00
                                0.00      0.00      0.00
                                0.00      0.00      0.00


     BFGS Geometry Optimization
     Energy error            =      0.0E+00 Ry
     Gradient error          =      0.0E+00 Ry/Bohr
     Cell gradient error     =      4.6E+01 kbar

     number of scf cycles    =   1
     number of bfgs steps    =   0

     enthalpy           new  =   -1248.8297760990 Ry

     new trust radius        =       0.0360412149 bohr
     new conv_thr            =       0.0000001000 Ry

     new unit-cell volume =    538.05303 a.u.^3 (    79.73123 Ang^3 )
     density =      6.97528 g/cm^3

CELL_PARAMETERS (alat=  8.07001876)
   1.007860635   0.000000000   0.000000000
   0.000000000   1.007860635   0.000000000
   0.000000000   0.000000000   1.007860635

ATOMIC_POSITIONS (angstrom)
Ga            0.0000000000        0.0000000000        0.0000000000
Ga            0.0000000000        2.1520193022        2.1520193022
Ga            2.1520193022        0.0000000000        2.1520193022
Ga            2.1520193022        2.1520193022        0.0000000000
N             2.1520193022        0.0000000000        0.0000000000
N             2.1520193022        2.1520193022        2.1520193022
N             0.0000000000        0.0000000000        2.1520193022
N             0.0000000000        2.1520193022        0.0000000000



     Writing config-only to output data dir ./PbI2.save/
     NEW-OLD atomic charge density approx. for the potential

     Check: negative core charge=   -0.000003


     -----------------------------------------------
     Non-local corr. energy    =       2.16843818 Ry
     -----------------------------------------------

     extrapolated charge   73.67127, renormalised to   72.00000

     total cpu time spent up to now is        7.9 secs

     Self-consistent Calculation

     iteration #  1     ecut=    70.00 Ry     beta= 0.70
     Davidson diagonalization with overlap

---- Real-time Memory Report at c_bands before calling an iterative solver
           161 MiB given to the printing process from OS
             0 MiB allocation reported by mallinfo(arena+hblkhd)
       1943085 MiB available memory on the node where the printing process lives
------------------
     ethr =  1.00E-06,  avg # of iterations =  5.6


     -----------------------------------------------
     Non-local corr. energy    =       2.02704918 Ry
     -----------------------------------------------


     total cpu time spent up to now is        8.3 secs

     total energy              =   -1248.43511891 Ry
     estimated scf accuracy    <       0.40460171 Ry

     iteration #  2     ecut=    70.00 Ry     beta= 0.70
     Davidson diagonalization with overlap

---- Real-time Memory Report at c_bands before calling an iterative solver
           162 MiB given to the printing process from OS
             0 MiB allocation reported by mallinfo(arena+hblkhd)
       1943126 MiB available memory on the node where the printing process lives
------------------
     ethr =  5.62E-04,  avg # of iterations =  4.1


     -----------------------------------------------
     Non-local corr. energy    =       2.07888939 Ry
     -----------------------------------------------


     total cpu time spent up to now is        8.6 secs

     total energy              =   -1248.81709801 Ry
     estimated scf accuracy    <       0.99682358 Ry

     iteration #  3     ecut=    70.00 Ry     beta= 0.70
     Davidson diagonalization with overlap

---- Real-time Memory Report at c_bands before calling an iterative solver
           162 MiB given to the printing process from OS
             0 MiB allocation reported by mallinfo(arena+hblkhd)
       1943078 MiB available memory on the node where the printing process lives
------------------
     ethr =  5.62E-04,  avg # of iterations =  1.4


     -----------------------------------------------
     Non-local corr. energy    =       2.09234685 Ry
     -----------------------------------------------


     total cpu time spent up to now is        8.8 secs

     total energy              =   -1248.81920204 Ry
     estimated scf accuracy    <       0.37364970 Ry

     iteration #  4     ecut=    70.00 Ry     beta= 0.70
     Davidson diagonalization with overlap

---- Real-time Memory Report at c_bands before calling an iterative solver
           162 MiB given to the printing process from OS
             0 MiB allocation reported by mallinfo(arena+hblkhd)
       1943067 MiB available memory on the node where the printing process lives
------------------
     ethr =  5.19E-04,  avg # of iterations =  1.5


     -----------------------------------------------
     Non-local corr. energy    =       2.10371031 Ry
     -----------------------------------------------


     total cpu time spent up to now is        9.0 secs

     total energy              =   -1248.80960610 Ry
     estimated scf accuracy    <       0.20852190 Ry

     iteration #  5     ecut=    70.00 Ry     beta= 0.70
     Davidson diagonalization with overlap

---- Real-time Memory Report at c_bands before calling an iterative solver
           162 MiB given to the printing process from OS
             0 MiB allocation reported by mallinfo(arena+hblkhd)
       1943038 MiB available memory on the node where the printing process lives
------------------
     ethr =  2.90E-04,  avg # of iterations =  2.9


     -----------------------------------------------
     Non-local corr. energy    =       2.11173493 Ry
     -----------------------------------------------


     total cpu time spent up to now is        9.3 secs

     total energy              =   -1248.82128247 Ry
     estimated scf accuracy    <       0.06369877 Ry

     iteration #  6     ecut=    70.00 Ry     beta= 0.70
     Davidson diagonalization with overlap

---- Real-time Memory Report at c_bands before calling an iterative solver
           162 MiB given to the printing process from OS
             0 MiB allocation reported by mallinfo(arena+hblkhd)
       1943036 MiB available memory on the node where the printing process lives
------------------
     ethr =  8.85E-05,  avg # of iterations =  3.3


     -----------------------------------------------
     Non-local corr. energy    =       2.11117404 Ry
     -----------------------------------------------


     total cpu time spent up to now is        9.5 secs

     total energy              =   -1248.83263450 Ry
     estimated scf accuracy    <       0.01204395 Ry

     iteration #  7     ecut=    70.00 Ry     beta= 0.70
     Davidson diagonalization with overlap

---- Real-time Memory Report at c_bands before calling an iterative solver
           162 MiB given to the printing process from OS
             0 MiB allocation reported by mallinfo(arena+hblkhd)
       1943097 MiB available memory on the node where the printing process lives
------------------
     ethr =  1.67E-05,  avg # of iterations =  3.2


     -----------------------------------------------
     Non-local corr. energy    =       2.10697564 Ry
     -----------------------------------------------


     total cpu time spent up to now is        9.8 secs

     total energy              =   -1248.83551432 Ry
     estimated scf accuracy    <       0.00918859 Ry

     iteration #  8     ecut=    70.00 Ry     beta= 0.70
     Davidson diagonalization with overlap

---- Real-time Memory Report at c_bands before calling an iterative solver
           162 MiB given to the printing process from OS
             0 MiB allocation reported by mallinfo(arena+hblkhd)
       1943103 MiB available memory on the node where the printing process lives
------------------
     ethr =  1.28E-05,  avg # of iterations =  1.0


     -----------------------------------------------
     Non-local corr. energy    =       2.09715584 Ry
     -----------------------------------------------


     total cpu time spent up to now is       10.0 secs

     total energy              =   -1248.83969287 Ry
     estimated scf accuracy    <       0.01382481 Ry

     iteration #  9     ecut=    70.00 Ry     beta= 0.70
     Davidson diagonalization with overlap

---- Real-time Memory Report at c_bands before calling an iterative solver
           162 MiB given to the printing process from OS
             0 MiB allocation reported by mallinfo(arena+hblkhd)
       1943071 MiB available memory on the node where the printing process lives
------------------
     ethr =  1.28E-05,  avg # of iterations =  1.0


     -----------------------------------------------
     Non-local corr. energy    =       2.09906253 Ry
     -----------------------------------------------


     total cpu time spent up to now is       10.2 secs

     total energy              =   -1248.83731716 Ry
     estimated scf accuracy    <       0.02961998 Ry

     iteration # 10     ecut=    70.00 Ry     beta= 0.70
     Davidson diagonalization with overlap

---- Real-time Memory Report at c_bands before calling an iterative solver
           162 MiB given to the printing process from OS
             0 MiB allocation reported by mallinfo(arena+hblkhd)
       1942855 MiB available memory on the node where the printing process lives
------------------
     ethr =  1.28E-05,  avg # of iterations =  1.0


     -----------------------------------------------
     Non-local corr. energy    =       2.10740078 Ry
     -----------------------------------------------


     total cpu time spent up to now is       10.4 secs

     total energy              =   -1248.83277775 Ry
     estimated scf accuracy    <       0.02520356 Ry

     iteration # 11     ecut=    70.00 Ry     beta= 0.70
     Davidson diagonalization with overlap

---- Real-time Memory Report at c_bands before calling an iterative solver
           162 MiB given to the printing process from OS
             0 MiB allocation reported by mallinfo(arena+hblkhd)
       1942836 MiB available memory on the node where the printing process lives
------------------
     ethr =  1.28E-05,  avg # of iterations =  1.0


     -----------------------------------------------
     Non-local corr. energy    =       2.11456673 Ry
     -----------------------------------------------


     total cpu time spent up to now is       10.6 secs

     total energy              =   -1248.83061584 Ry
     estimated scf accuracy    <       0.01268811 Ry

     iteration # 12     ecut=    70.00 Ry     beta= 0.70
     Davidson diagonalization with overlap

---- Real-time Memory Report at c_bands before calling an iterative solver
           162 MiB given to the printing process from OS
             0 MiB allocation reported by mallinfo(arena+hblkhd)
       1942845 MiB available memory on the node where the printing process lives
------------------
     ethr =  1.28E-05,  avg # of iterations =  2.7


     -----------------------------------------------
     Non-local corr. energy    =       2.11533811 Ry
[...]
     1.0000   1.0000   1.0000   1.0000   0.0000   0.0000   0.0000   0.0000
     0.0000   0.0000   0.0000

          k = 0.0000 0.0000-0.4962 (  5358 PWs)   bands (ev):

    -3.7675  -3.7675  -3.5900  -3.5900  -2.6640  -2.6640  -2.5770  -2.5770
    -2.5770  -2.5770  -2.5578  -2.5578  -2.4916  -2.4916  -2.4916  -2.4916
    -2.4628  -2.4628  -2.3650  -2.3650  -2.1667  -2.1667   0.4581   0.4581
     7.1215   7.1215   7.1215   7.1215   7.5878   7.5878   8.2985   8.2985
    10.4104  10.4104  10.4104  10.4104  16.2165  16.2165  16.7357  16.7357
    20.7568  20.7568  21.4556

     occupation numbers 
     1.0000   1.0000   1.0000   1.0000   1.0000   1.0000   1.0000   1.0000
     1.0000   1.0000   1.0000   1.0000   1.0000   1.0000   1.0000   1.0000
     1.0000   1.0000   1.0000   1.0000   1.0000   1.0000   1.0000   1.0000
     1.0000   1.0000   1.0000   1.0000   1.0000   1.0000   1.0000   1.0000
     1.0000   1.0000   1.0000   1.0000   0.0000   0.0000   0.0000   0.0000
     0.0000   0.0000   0.0000

          k = 0.0000 0.2481 0.2481 (  5343 PWs)   bands (ev):

    -4.0165  -3.6299  -3.6299  -3.6094  -2.6773  -2.6773  -2.6658  -2.6125
    -2.5950  -2.5796  -2.5567  -2.5218  -2.5218  -2.5213  -2.4641  -2.4485
    -2.4352  -2.4352  -2.4052  -2.4052  -2.3946  -0.5097  -0.5097   0.3012
     6.3060   6.3060   6.3676   6.5875   8.6547   8.9098   8.9098   9.4761
     9.4761  10.1301  10.8228  12.0091  14.9118  15.1226  15.1226  16.3214
    21.0206  21.3863  21.3863

     occupation numbers 
     1.0000   1.0000   1.0000   1.0000   1.0000   1.0000   1.0000   1.0000
     1.0000   1.0000   1.0000   1.0000   1.0000   1.0000   1.0000   1.0000
     1.0000   1.0000   1.0000   1.0000   1.0000   1.0000   1.0000   1.0000
     1.0000   1.0000   1.0000   1.0000   1.0000   1.0000   1.0000   1.0000
     1.0000   1.0000   1.0000   0.9593   0.0000   0.0000   0.0000   0.0000
     0.0000   0.0000   0.0000

          k = 0.0000 0.2481-0.4962 (  5320 PWs)   bands (ev):

    -3.5055  -3.5055  -3.4508  -3.4508  -2.6411  -2.6411  -2.6167  -2.6167
    -2.5808  -2.5808  -2.5769  -2.5769  -2.5492  -2.5492  -2.5045  -2.5045
    -2.4911  -2.4911  -2.4053  -2.4053  -2.0381  -2.0381  -0.2078  -0.2078
     5.9756   5.9756   7.2110   7.2110   7.5315   7.5315   9.8291   9.8291
     9.9668   9.9668  11.3784  11.3784  16.9877  16.9877  17.2007  17.2007
    20.0023  20.0023  20.1006

     occupation numbers 
     1.0000   1.0000   1.0000   1.0000   1.0000   1.0000   1.0000   1.0000
     1.0000   1.0000   1.0000   1.0000   1.0000   1.0000   1.0000   1.0000
     1.0000   1.0000   1.0000   1.0000   1.0000   1.0000   1.0000   1.0000
     1.0000   1.0000   1.0000   1.0000   1.0000   1.0000   1.0000   1.0000
     1.0000   1.0000   1.0000   1.0000   0.0000   0.0000   0.0000   0.0000
     0.0000   0.0000   0.0000

          k = 0.0000-0.4962-0.4962 (  5280 PWs)   bands (ev):

    -3.2236  -3.2236  -3.2236  -3.2236  -2.6350  -2.6350  -2.6350  -2.6350
    -2.6022  -2.6022  -2.6022  -2.6022  -2.5938  -2.5938  -2.5938  -2.5938
    -2.4715  -2.4715  -2.4715  -2.4715  -1.4104  -1.4104  -1.4104  -1.4104
     6.1092   6.1092   6.1092   6.1092   8.5992   8.5992   8.5992   8.5992
    11.7888  11.7888  11.7888  11.7888  18.1594  18.1594  18.1594  18.1594
    19.1179  19.1179  19.1179

     occupation numbers 
     1.0000   1.0000   1.0000   1.0000   1.0000   1.0000   1.0000   1.0000
     1.0000   1.0000   1.0000   1.0000   1.0000   1.0000   1.0000   1.0000
     1.0000   1.0000   1.0000   1.0000   1.0000   1.0000   1.0000   1.0000
     1.0000   1.0000   1.0000   1.0000   1.0000   1.0000   1.0000   1.0000
     1.0000   1.0000   1.0000   1.0000   0.0000   0.0000   0.0000   0.0000
     0.0000   0.0000   0.0000

          k = 0.2481 0.2481 0.2481 (  5323 PWs)   bands (ev):

    -3.6591  -3.4778  -3.4778  -3.4778  -2.6609  -2.6609  -2.6609  -2.6197
    -2.6197  -2.6090  -2.5605  -2.5605  -2.5605  -2.4919  -2.4919  -2.4919
    -2.4881  -2.4881  -2.3917  -2.3917  -2.3917  -0.5647  -0.5647  -0.5647
     5.5012   5.5012   5.5012   7.3806   8.9158   8.9158   8.9158  10.4198
    10.4198  10.4198  11.7631  11.7631  15.6808  15.6808  15.6808  16.4831
    20.3532  20.3532  20.3532

     occupation numbers 
     1.0000   1.0000   1.0000   1.0000   1.0000   1.0000   1.0000   1.0000
     1.0000   1.0000   1.0000   1.0000   1.0000   1.0000   1.0000   1.0000
     1.0000   1.0000   1.0000   1.0000   1.0000   1.0000   1.0000   1.0000
     1.0000   1.0000   1.0000   1.0000   1.0000   1.0000   1.0000   1.0000
     1.0000   1.0000   1.0000   1.0000   0.0000   0.0000   0.0000   0.0000
     0.0000   0.0000   0.0000

          k = 0.2481 0.2481-0.4962 (  5302 PWs)   bands (ev):

    -3.2894  -3.2894  -3.2458  -3.2458  -2.6594  -2.6594  -2.6556  -2.6556
    -2.6138  -2.6138  -2.5972  -2.5972  -2.5492  -2.5492  -2.5363  -2.5363
    -2.4201  -2.4201  -2.4051  -2.4051  -2.0398  -2.0398  -0.6324  -0.6324
     4.9259   4.9259   6.0087   6.0087   9.1999   9.1999  10.6104  10.6104
    11.1112  11.1112  11.2021  11.2021  17.3640  17.3640  17.4650  17.4650
    18.9823  18.9823  19.4245

     occupation numbers 
     1.0000   1.0000   1.0000   1.0000   1.0000   1.0000   1.0000   1.0000
     1.0000   1.0000   1.0000   1.0000   1.0000   1.0000   1.0000   1.0000
     1.0000   1.0000   1.0000   1.0000   1.0000   1.0000   1.0000   1.0000
     1.0000   1.0000   1.0000   1.0000   1.0000   1.0000   1.0000   1.0000
     1.0000   1.0000   1.0000   1.0000   0.0000   0.0000   0.0000   0.0000
     0.0000   0.0000   0.0000

          k = 0.2481-0.4962-0.4962 (  5304 PWs)   bands (ev):

    -2.9969  -2.9969  -2.9969  -2.9969  -2.6794  -2.6794  -2.6794  -2.6794
    -2.6740  -2.6740  -2.6740  -2.6740  -2.5150  -2.5150  -2.5150  -2.5150
    -2.4346  -2.4346  -2.4346  -2.4346  -1.5771  -1.5771  -1.5771  -1.5771
     4.8691   4.8691   4.8691   4.8691  10.4290  10.4290  10.4290  10.4290
    11.8804  11.8804  11.8804  11.8804  17.7903  17.7903  17.7903  17.7904
    18.9531  18.9531  18.9531

     occupation numbers 
     1.0000   1.0000   1.0000   1.0000   1.0000   1.0000   1.0000   1.0000
     1.0000   1.0000   1.0000   1.0000   1.0000   1.0000   1.0000   1.0000
     1.0000   1.0000   1.0000   1.0000   1.0000   1.0000   1.0000   1.0000
     1.0000   1.0000   1.0000   1.0000   1.0000   1.0000   1.0000   1.0000
     0.9990   0.9990   0.9990   0.9990   0.0000   0.0000   0.0000   0.0000
     0.0000   0.0000   0.0000

          k =-0.4962-0.4962-0.4962 (  5400 PWs)   bands (ev):

    -2.7161  -2.7161  -2.7161  -2.7161  -2.7035  -2.7035  -2.7035  -2.7035
    -2.7035  -2.7035  -2.7035  -2.7035  -2.4071  -2.4071  -2.4071  -2.4071
    -2.4071  -2.4071  -2.4071  -2.4071  -1.8834  -1.8834  -1.8834  -1.8834
     4.1375   4.1375   4.1375   4.1375  11.9760  11.9760  11.9760  11.9760
    11.9760  11.9760  11.9760  11.9760  16.6847  16.6847  16.6847  16.6847
    20.6783  20.6783  20.6783

     occupation numbers 
     1.0000   1.0000   1.0000   1.0000   1.0000   1.0000   1.0000   1.0000
     1.0000   1.0000   1.0000   1.0000   1.0000   1.0000   1.0000   1.0000
     1.0000   1.0000   1.0000   1.0000   1.0000   1.0000   1.0000   1.0000
     1.0000   1.0000   1.0000   1.0000   0.9815   0.9815   0.9815   0.9815
     0.9815   0.9815   0.9815   0.9815   0.0000   0.0000   0.0000   0.0000
     0.0000   0.0000   0.0000

     the Fermi energy is    12.1768 ev

!    total energy              =   -1248.83223316 Ry
     total all-electron energy =    -16014.686070 Ry
     estimated scf accuracy    <          5.1E-11 Ry
     smearing contrib. (-TS)   =      -0.00052688 Ry
     internal energy E=F+TS    =   -1248.83170628 Ry

     The total energy is F=E-TS. E is the sum of the following terms:
     one-electron contribution =    -291.12188622 Ry
     hartree contribution      =     228.81652865 Ry
     xc contribution           =    -182.17817180 Ry
     ewald contribution        =    -507.19020687 Ry
     one-center paw contrib.   =    -497.15797005 Ry
      -> PAW hartree energy AE =     141.51128878 Ry
      -> PAW hartree energy PS =    -140.14286214 Ry
      -> PAW xc energy AE      =    -156.73635634 Ry
      -> PAW xc energy PS      =      39.53663401 Ry
      -> total E_H with PAW    =     230.18495529 Ry
      -> total E_XC with PAW   =    -299.37789413 Ry

     convergence has been achieved in  19 iterations


     -----------------------------------------------
     Non-local corr. energy    =       2.11843831 Ry
     -----------------------------------------------


     Forces acting on atoms (cartesian axes, Ry/au):

     atom    1 type  1   force =     0.00000000    0.00000000    0.00000000
     atom    2 type  1   force =     0.00000000    0.00000000    0.00000000
     atom    3 type  1   force =     0.00000000    0.00000000    0.00000000
     atom    4 type  1   force =     0.00000000    0.00000000    0.00000000
     atom    5 type  2   force =     0.00000000    0.00000000    0.00000000
     atom    6 type  2   force =     0.00000000    0.00000000    0.00000000
     atom    7 type  2   force =     0.00000000    0.00000000    0.00000000
     atom    8 type  2   force =     0.00000000    0.00000000    0.00000000
     The non-local contrib.  to forces
     atom    1 type  1   force =     0.00000000    0.00000000    0.00000000
     atom    2 type  1   force =     0.00000000    0.00000000    0.00000000
     atom    3 type  1   force =     0.00000000    0.00000000    0.00000000
     atom    4 type  1   force =     0.00000000    0.00000000    0.00000000
     atom    5 type  2   force =     0.00000000    0.00000000    0.00000000
     atom    6 type  2   force =     0.00000000    0.00000000    0.00000000
     atom    7 type  2   force =     0.00000000    0.00000000    0.00000000
     atom    8 type  2   force =     0.00000000    0.00000000    0.00000000
     The ionic contribution  to forces
     atom    1 type  1   force =    -0.00000039   -0.00000039   -0.00000039
     atom    2 type  1   force =    -0.00000039    0.00000039    0.00000039
     atom    3 type  1   force =     0.00000039   -0.00000039    0.00000039
     atom    4 type  1   force =     0.00000039    0.00000039   -0.00000039
     atom    5 type  2   force =     0.00000021   -0.00000021   -0.00000021
     atom    6 type  2   force =     0.00000021    0.00000021    0.00000021
     atom    7 type  2   force =    -0.00000021   -0.00000021    0.00000021
     atom    8 type  2   force =    -0.00000021    0.00000021   -0.00000021
     The local contribution  to forces
     atom    1 type  1   force =    -0.00000000   -0.00000000    0.00000000
     atom    2 type  1   force =    -0.00000000    0.00000351    0.00000351
     atom    3 type  1   force =     0.00000351   -0.00000000    0.00000351
     atom    4 type  1   force =     0.00000351    0.00000351    0.00000000
     atom    5 type  2   force =     0.00000027   -0.00000000    0.00000000
     atom    6 type  2   force =     0.00000027    0.00000027    0.00000027
     atom    7 type  2   force =    -0.00000000   -0.00000000    0.00000027
     atom    8 type  2   force =    -0.00000000    0.00000027    0.00000000
     The core correction contribution to forces
     atom    1 type  1   force =     0.00000000    0.00000000    0.00000000
     atom    2 type  1   force =     0.00000000    0.00000026    0.00000026
     atom    3 type  1   force =     0.00000026    0.00000000    0.00000026
     atom    4 type  1   force =     0.00000026    0.00000026    0.00000000
     atom    5 type  2   force =    -0.00000001    0.00000000    0.00000000
     atom    6 type  2   force =    -0.00000001   -0.00000001   -0.00000001
     atom    7 type  2   force =     0.00000000    0.00000000   -0.00000001
     atom    8 type  2   force =     0.00000000   -0.00000001    0.00000000
     The Hubbard contrib.    to forces
     atom    1 type  1   force =     0.00000000    0.00000000    0.00000000
     atom    2 type  1   force =     0.00000000    0.00000000    0.00000000
     atom    3 type  1   force =     0.00000000    0.00000000    0.00000000
     atom    4 type  1   force =     0.00000000    0.00000000    0.00000000
     atom    5 type  2   force =     0.00000000    0.00000000    0.00000000
     atom    6 type  2   force =     0.00000000    0.00000000    0.00000000
     atom    7 type  2   force =     0.00000000    0.00000000    0.00000000
     atom    8 type  2   force =     0.00000000    0.00000000    0.00000000
     The SCF correction term to forces
     atom    1 type  1   force =     0.00000000    0.00000000    0.00000000
     atom    2 type  1   force =     0.00000000   -0.00000000   -0.00000000
     atom    3 type  1   force =    -0.00000000    0.00000000   -0.00000000
     atom    4 type  1   force =    -0.00000000   -0.00000000    0.00000000
     atom    5 type  2   force =    -0.00000000    0.00000000    0.00000000
     atom    6 type  2   force =     0.00000000    0.00000000    0.00000000
     atom    7 type  2   force =     0.00000000    0.00000000   -0.00000000
     atom    8 type  2   force =     0.00000000   -0.00000000    0.00000000

     Total force =     0.000000     Total SCF correction =     0.000000


     Computing stress (Cartesian axis) and pressure



     -----------------------------------------------
     Non-local corr. energy    =       2.11843831 Ry
     -----------------------------------------------

          total   stress  (Ry/bohr**3)                   (kbar)     P=        0.75
   0.00000511   0.00000000   0.00000000            0.75        0.00        0.00
   0.00000000   0.00000511   0.00000000            0.00        0.75        0.00
   0.00000000   0.00000000   0.00000511            0.00        0.00        0.75

     kinetic stress (kbar)  22498.71      0.00      0.00
                                0.00  22498.71      0.00
                                0.00      0.00  22498.71

     local   stress (kbar)  13609.71      0.00     -0.00
                                0.00  13609.71     -0.00
                               -0.00     -0.00  13609.71

     nonloc. stress (kbar)   -163.79      0.00      0.00
                                0.00   -163.79      0.00
                                0.00      0.00   -163.79

     hartree stress (kbar)  20863.54      0.00     -0.00
                                0.00  20863.54     -0.00
                               -0.00     -0.00  20863.54

     exc-cor stress (kbar)   6312.73      0.00      0.00
                                0.00   6312.73      0.00
                                0.00      0.00   6312.73

     corecor stress (kbar) -17064.52     -0.00     -0.00
                               -0.00 -17064.52     -0.00
                               -0.00     -0.00 -17064.52

     ewald   stress (kbar) -46245.71      0.00      0.00
                                0.00 -46245.71     -0.00
                                0.00     -0.00 -46245.71

     hubbard stress (kbar)      0.00      0.00      0.00
                                0.00      0.00      0.00
                                0.00      0.00      0.00

     DFT-D   stress (kbar)      0.00      0.00      0.00
                                0.00      0.00      0.00
                                0.00      0.00      0.00

     XDM     stress (kbar)      0.00      0.00      0.00
                                0.00      0.00      0.00
                                0.00      0.00      0.00

     dft-nl  stress (kbar)    190.08      0.00     -0.00
                                0.00    190.08     -0.00
                               -0.00     -0.00    190.08

     TS-vdW  stress (kbar)      0.00      0.00      0.00
                                0.00      0.00      0.00
                                0.00      0.00      0.00

     MDB     stress (kbar)      0.00      0.00      0.00
                                0.00      0.00      0.00
                                0.00      0.00      0.00

     3D-RISM stress (kbar)      0.00      0.00      0.00
                                0.00      0.00      0.00
                                0.00      0.00      0.00


     Writing all to output data dir ./PbI2.save/
 
     init_run     :      1.32s CPU      1.40s WALL (       2 calls)
     electrons    :     34.32s CPU     36.42s WALL (       4 calls)
     update_pot   :      1.04s CPU      1.06s WALL (       2 calls)
     forces       :      0.96s CPU      0.99s WALL (       4 calls)
     stress       :      4.86s CPU      4.91s WALL (       4 calls)

     Called by init_run:
     wfcinit      :      0.08s CPU      0.09s WALL (       2 calls)
     wfcinit:atom :      0.00s CPU      0.00s WALL (       4 calls)
     wfcinit:wfcr :      0.07s CPU      0.08s WALL (       4 calls)
     potinit      :      0.90s CPU      0.94s WALL (       2 calls)
     hinit0       :      0.27s CPU      0.29s WALL (       2 calls)

     Called by electrons:
     c_bands      :     14.48s CPU     14.87s WALL (      89 calls)
     sum_band     :      4.44s CPU      4.51s WALL (      89 calls)
     v_of_rho     :      4.65s CPU      4.94s WALL (      93 calls)
     v_h          :      0.06s CPU      0.06s WALL (      93 calls)
     v_xc         :      5.07s CPU      5.37s WALL (     101 calls)
     newd         :      0.40s CPU      0.60s WALL (      93 calls)
     PAW_pot      :      9.86s CPU     10.47s WALL (      95 calls)
     mix_rho      :      0.24s CPU      0.25s WALL (      89 calls)
     vdW_kernel   :      0.26s CPU      0.27s WALL (       1 calls)

     Called by c_bands:
     init_us_2    :      0.08s CPU      0.08s WALL (     380 calls)
     init_us_2:cp :      0.08s CPU      0.08s WALL (     380 calls)
     cegterg      :     11.00s CPU     11.23s WALL (     178 calls)

     Called by sum_band:
     sum_band:wei :      0.11s CPU      0.11s WALL (      89 calls)
     sum_band:loo :      1.25s CPU      1.28s WALL (      89 calls)
     sum_band:buf :      0.01s CPU      0.01s WALL (     178 calls)
     sum_band:ini :      0.04s CPU      0.04s WALL (     178 calls)
     sum_band:cal :      0.41s CPU      0.41s WALL (     182 calls)
     sum_band:bec :      0.01s CPU      0.01s WALL (     182 calls)
     addusdens    :      0.31s CPU      0.32s WALL (      89 calls)
     addusd:skk   :      0.00s CPU      0.00s WALL (     178 calls)
     addusd:dgemm :      0.07s CPU      0.07s WALL (     178 calls)
     addusd:qvan2 :      0.08s CPU      0.09s WALL (     178 calls)

     Called by *egterg:
     cdiaghg      :      2.22s CPU      2.25s WALL (     702 calls)
     cegterg:over :      1.21s CPU      1.24s WALL (     528 calls)
     cegterg:upda :      0.23s CPU      0.24s WALL (     528 calls)
     cegterg:last :      0.13s CPU      0.13s WALL (     198 calls)
     h_psi        :      6.05s CPU      6.20s WALL (     710 calls)
     s_psi        :      0.28s CPU      0.29s WALL (     710 calls)
     g_psi        :      0.01s CPU      0.01s WALL (     528 calls)

     Called by h_psi:
     h_psi:calbec :      0.41s CPU      0.41s WALL (     710 calls)
     vloc_psi     :      5.30s CPU      5.43s WALL (     710 calls)
     add_vuspsi   :      0.31s CPU      0.32s WALL (     710 calls)

     General routines
     calbec       :      0.95s CPU      0.97s WALL (     932 calls)
     fft          :      2.52s CPU      2.57s WALL (    6529 calls)
     ffts         :      0.32s CPU      0.32s WALL (     182 calls)
     fftw         :      5.78s CPU      5.93s WALL (   49818 calls)
     interpolate  :      0.08s CPU      0.08s WALL (      93 calls)
 
     Parallel routines

     PAW routines
     PAW_pot      :      9.86s CPU     10.47s WALL (      95 calls)
     PAW_symme    :      0.59s CPU      0.60s WALL (     184 calls)
 
     PWSCF        :     43.97s CPU     47.27s WALL

 
   This run was terminated on:   8:34:35  21Feb2024            

=------------------------------------------------------------------------------=
   JOB DONE.
=------------------------------------------------------------------------------=
