
     Program PWSCF v.7.2 starts on 17Mar2024 at 21:17: 3 

     This program is part of the open-source Quantum ESPRESSO suite
     for quantum simulation of materials; please cite
         "P. Giannozzi et al., J. Phys.:Condens. Matter 21 395502 (2009);
         "P. Giannozzi et al., J. Phys.:Condens. Matter 29 465901 (2017);
         "P. Giannozzi et al., J. Chem. Phys. 152 154105 (2020);
          URL http://www.quantum-espresso.org", 
     in publications or presentations arising from this work. More details at
     http://www.quantum-espresso.org/quote

     Parallel version (MPI & OpenMP), running on     128 processor cores
     Number of MPI processes:               128
     Threads/MPI process:                     1

     MPI processes distributed on     1 nodes
     1999925 MiB available memory on the printing compute node when the environment starts
 
     Reading input from espresso.pwi
Warning: card &CELL ignored
Warning: card    CELL_DYNAMICS    = 'BFGS' ignored
Warning: card / ignored

     Current dimensions of program PWSCF are:
     Max number of different atomic species (ntypx) = 10
     Max number of k-points (npk) =  40000
     Max angular momentum in pseudopotentials (lmaxx) =  4
     file C.pbe-n-kjpaw_psl.1.0.0.UPF: wavefunction(s)  2S 2P renormalized

     **************************************************************************
     Initializing libbeef V0.1.2 with the BEEF-vdW functional.
     Citation: Wellendorff et al., PRB 85, 235149 (2012).
     **************************************************************************


     IMPORTANT: XC functional enforced from input :
     Exchange-correlation= BEEF-VDW
                           (   1   4  43  14   2   0   0)
     Any further DFT definition will be discarded
     Please, verify this is what you really want

 
     K-points division:     npool     =       4
     R & G space division:  proc/nbgrp/npool/nimage =      32
     Subspace diagonalization in iterative solution of the eigenvalue problem:
     a serial algorithm will be used

 
     Parallelization info
     --------------------
     sticks:   dense  smooth     PW     G-vecs:    dense   smooth      PW
     Min         158     126     34                 8504     6078     876
     Max         160     127     35                 8506     6081     881
     Sum        5073    4049   1109               272153   194543   28113
 
     Using Slab Decomposition
 


     bravais-lattice index     =            1
     lattice parameter (alat)  =      13.5013  a.u.
     unit-cell volume          =    2461.1121 (a.u.)^3
     number of atoms/cell      =           63
     number of atomic types    =            1
     number of electrons       =       251.00
     number of Kohn-Sham states=          151
     kinetic-energy cutoff     =      70.0000  Ry
     charge density cutoff     =     350.0000  Ry
     scf convergence threshold =      1.0E-07
     mixing beta               =       0.7000
     number of iterations used =            8  plain     mixing
     Exchange-correlation= BEEF-VDW
                           (   1   4  43  14   2   0   0)

     celldm(1)=  13.501348  celldm(2)=   0.000000  celldm(3)=   0.000000
     celldm(4)=   0.000000  celldm(5)=   0.000000  celldm(6)=   0.000000

     crystal axes: (cart. coord. in units of alat)
               a(1) = (   1.000000   0.000000   0.000000 )  
               a(2) = (   0.000000   1.000000   0.000000 )  
               a(3) = (   0.000000   0.000000   1.000000 )  

     reciprocal axes: (cart. coord. in units 2 pi/alat)
               b(1) = (  1.000000  0.000000  0.000000 )  
               b(2) = (  0.000000  1.000000  0.000000 )  
               b(3) = (  0.000000  0.000000  1.000000 )  


     PseudoPot. # 1 for C  read from file:
     //group///packages/espresso/pseudo/psl_1.0.0/pslibrary.1.0.0/pbe/PSEUDOPOTENTIALS/C.pbe-n-kjpaw_psl.1.0.0.UPF
     MD5 check sum: 5459cf7f2c8c37df2f7cde8914797f4d
     Pseudo is Projector augmented-wave + core cor, Zval =  4.0
     Generated using 'atomic' code by A. Dal Corso  v.7.1
     Shape of augmentation charge: PSQ
     Using radial grid of 1073 points,  4 beta functions with: 
                l(1) =   0
                l(2) =   0
                l(3) =   1
                l(4) =   1
     Q(r) pseudized with 0 coefficients 


     atomic species   valence    mass     pseudopotential
        C              4.00    12.01100     C ( 1.00)

      6 Sym. Ops. (no inversion) found ( 4 have fractional translation)


                                    s                        frac. trans.

      isym =  1     identity                                     

 cryst.   s( 1) = (     1          0          0      )
                  (     0          1          0      )
                  (     0          0          1      )

 cart.    s( 1) = (  1.0000000  0.0000000  0.0000000 )
                  (  0.0000000  1.0000000  0.0000000 )
                  (  0.0000000  0.0000000  1.0000000 )


      isym =  2     120 deg rotation - cart. axis [1,-1,1]       

 cryst.   s( 2) = (     0          0          1      )    f =( -0.5000000 )
                  (    -1          0          0      )       ( -0.5000000 )
                  (     0         -1          0      )       (  0.0000000 )

 cart.    s( 2) = (  0.0000000 -1.0000000  0.0000000 )    f =( -0.5000000 )
                  (  0.0000000  0.0000000 -1.0000000 )       ( -0.5000000 )
                  (  1.0000000  0.0000000  0.0000000 )       (  0.0000000 )


      isym =  3     120 deg rotation - cart. axis [-1,1,-1]      

 cryst.   s( 3) = (     0         -1          0      )    f =(  0.0000000 )
                  (     0          0         -1      )       ( -0.5000000 )
                  (     1          0          0      )       ( -0.5000000 )

 cart.    s( 3) = (  0.0000000  0.0000000  1.0000000 )    f =(  0.0000000 )
                  ( -1.0000000  0.0000000  0.0000000 )       ( -0.5000000 )
                  (  0.0000000 -1.0000000  0.0000000 )       ( -0.5000000 )


      isym =  4     inv. 180 deg rotation - cart. axis [1,1,0]   

 cryst.   s( 4) = (     0         -1          0      )    f =( -0.5000000 )
                  (    -1          0          0      )       ( -0.5000000 )
                  (     0          0          1      )       (  0.0000000 )

 cart.    s( 4) = (  0.0000000 -1.0000000  0.0000000 )    f =( -0.5000000 )
                  ( -1.0000000  0.0000000  0.0000000 )       ( -0.5000000 )
                  (  0.0000000  0.0000000  1.0000000 )       (  0.0000000 )


      isym =  5     inv. 180 deg rotation - cart. axis [-1,0,1]  

 cryst.   s( 5) = (     0          0          1      )
                  (     0          1          0      )
                  (     1          0          0      )

 cart.    s( 5) = (  0.0000000  0.0000000  1.0000000 )
                  (  0.0000000  1.0000000  0.0000000 )
                  (  1.0000000  0.0000000  0.0000000 )


      isym =  6     inv. 180 deg rotation - cart. axis [0,1,1]   

 cryst.   s( 6) = (     1          0          0      )    f =(  0.0000000 )
                  (     0          0         -1      )       ( -0.5000000 )
                  (     0         -1          0      )       ( -0.5000000 )

 cart.    s( 6) = (  1.0000000  0.0000000  0.0000000 )    f =(  0.0000000 )
                  (  0.0000000  0.0000000 -1.0000000 )       ( -0.5000000 )
                  (  0.0000000 -1.0000000  0.0000000 )       ( -0.5000000 )


     point group C_3v (3m)  
     there are  3 classes
     the character table:

       E     2C3   3s_v 
A_1    1.00  1.00  1.00
A_2    1.00  1.00 -1.00
E      2.00 -1.00  0.00

     the symmetry operations in each class and the name of the first element:

     E        1
          identity                                               
     2C3      2    3
          120 deg rotation - cart. axis [1,-1,1]                 
     3s_v     4    5    6
          inv. 180 deg rotation - cart. axis [1,1,0]             

   Cartesian axes

     site n.     atom                  positions (alat units)
         1           C   tau(   1) = (   0.1250031   0.3749969   0.6250031  )
         2           C   tau(   2) = (   0.1250031   0.8749969   0.1250031  )
         3           C   tau(   3) = (   0.1250031   0.8749969   0.6250031  )
         4           C   tau(   4) = (   0.6250031   0.3749969   0.1250031  )
         5           C   tau(   5) = (   0.6250031   0.3749969   0.6250031  )
         6           C   tau(   6) = (   0.6250031   0.8749969   0.1250031  )
         7           C   tau(   7) = (   0.6250031   0.8749969   0.6250031  )
         8           C   tau(   8) = (   0.0000000   0.0000000   0.2500000  )
         9           C   tau(   9) = (   0.0000000   0.0000000   0.7500000  )
        10           C   tau(  10) = (   0.0000000   0.5000000   0.2500000  )
        11           C   tau(  11) = (   0.0000000   0.5000000   0.7500000  )
        12           C   tau(  12) = (   0.5000000   0.0000000   0.2500000  )
        13           C   tau(  13) = (   0.5000000   0.0000000   0.7500000  )
        14           C   tau(  14) = (   0.5000000   0.5000000   0.2500000  )
        15           C   tau(  15) = (   0.5000000   0.5000000   0.7500000  )
        16           C   tau(  16) = (   0.1250031   0.1250031   0.3749969  )
        17           C   tau(  17) = (   0.1250031   0.1250031   0.8749969  )
        18           C   tau(  18) = (   0.1250031   0.6250031   0.3749969  )
        19           C   tau(  19) = (   0.1250031   0.6250031   0.8749969  )
        20           C   tau(  20) = (   0.6250031   0.1250031   0.3749969  )
        21           C   tau(  21) = (   0.6250031   0.1250031   0.8749969  )
        22           C   tau(  22) = (   0.6250031   0.6250031   0.3749969  )
        23           C   tau(  23) = (   0.6250031   0.6250031   0.8749969  )
        24           C   tau(  24) = (   0.0000000   0.2500000   0.0000000  )
        25           C   tau(  25) = (   0.0000000   0.2500000   0.5000000  )
        26           C   tau(  26) = (   0.0000000   0.7500000   0.0000000  )
        27           C   tau(  27) = (   0.0000000   0.7500000   0.5000000  )
        28           C   tau(  28) = (   0.5000000   0.2500000   0.0000000  )
        29           C   tau(  29) = (   0.5000000   0.2500000   0.5000000  )
        30           C   tau(  30) = (   0.5000000   0.7500000   0.0000000  )
        31           C   tau(  31) = (   0.5000000   0.7500000   0.5000000  )
        32           C   tau(  32) = (   0.3749969   0.3749969   0.3749969  )
        33           C   tau(  33) = (   0.3749969   0.3749969   0.8749969  )
        34           C   tau(  34) = (   0.3749969   0.8749969   0.3749969  )
        35           C   tau(  35) = (   0.3749969   0.8749969   0.8749969  )
        36           C   tau(  36) = (   0.8749969   0.3749969   0.3749969  )
        37           C   tau(  37) = (   0.8749969   0.3749969   0.8749969  )
        38           C   tau(  38) = (   0.8749969   0.8749969   0.3749969  )
        39           C   tau(  39) = (   0.8749969   0.8749969   0.8749969  )
        40           C   tau(  40) = (   0.2500000   0.0000000   0.0000000  )
        41           C   tau(  41) = (   0.2500000   0.0000000   0.5000000  )
        42           C   tau(  42) = (   0.2500000   0.5000000   0.0000000  )
        43           C   tau(  43) = (   0.2500000   0.5000000   0.5000000  )
        44           C   tau(  44) = (   0.7500000   0.0000000   0.0000000  )
        45           C   tau(  45) = (   0.7500000   0.0000000   0.5000000  )
        46           C   tau(  46) = (   0.7500000   0.5000000   0.0000000  )
        47           C   tau(  47) = (   0.7500000   0.5000000   0.5000000  )
        48           C   tau(  48) = (   0.3749969   0.1250031   0.1250031  )
        49           C   tau(  49) = (   0.3749969   0.1250031   0.6250031  )
        50           C   tau(  50) = (   0.3749969   0.6250031   0.1250031  )
        51           C   tau(  51) = (   0.3749969   0.6250031   0.6250031  )
        52           C   tau(  52) = (   0.8749969   0.1250031   0.1250031  )
        53           C   tau(  53) = (   0.8749969   0.1250031   0.6250031  )
        54           C   tau(  54) = (   0.8749969   0.6250031   0.1250031  )
        55           C   tau(  55) = (   0.8749969   0.6250031   0.6250031  )
        56           C   tau(  56) = (   0.2500000   0.2500000   0.2500000  )
        57           C   tau(  57) = (   0.2500000   0.2500000   0.7500000  )
        58           C   tau(  58) = (   0.2500000   0.7500000   0.2500000  )
        59           C   tau(  59) = (   0.2500000   0.7500000   0.7500000  )
        60           C   tau(  60) = (   0.7500000   0.2500000   0.2500000  )
        61           C   tau(  61) = (   0.7500000   0.2500000   0.7500000  )
        62           C   tau(  62) = (   0.7500000   0.7500000   0.2500000  )
        63           C   tau(  63) = (   0.7500000   0.7500000   0.7500000  )

   Crystallographic axes

     site n.     atom                  positions (cryst. coord.)
         1           C   tau(   1) = (  0.1250031  0.3749969  0.6250031  )
         2           C   tau(   2) = (  0.1250031  0.8749969  0.1250031  )
         3           C   tau(   3) = (  0.1250031  0.8749969  0.6250031  )
         4           C   tau(   4) = (  0.6250031  0.3749969  0.1250031  )
         5           C   tau(   5) = (  0.6250031  0.3749969  0.6250031  )
         6           C   tau(   6) = (  0.6250031  0.8749969  0.1250031  )
         7           C   tau(   7) = (  0.6250031  0.8749969  0.6250031  )
         8           C   tau(   8) = (  0.0000000  0.0000000  0.2500000  )
         9           C   tau(   9) = (  0.0000000  0.0000000  0.7500000  )
        10           C   tau(  10) = (  0.0000000  0.5000000  0.2500000  )
        11           C   tau(  11) = (  0.0000000  0.5000000  0.7500000  )
        12           C   tau(  12) = (  0.5000000  0.0000000  0.2500000  )
        13           C   tau(  13) = (  0.5000000  0.0000000  0.7500000  )
        14           C   tau(  14) = (  0.5000000  0.5000000  0.2500000  )
        15           C   tau(  15) = (  0.5000000  0.5000000  0.7500000  )
        16           C   tau(  16) = (  0.1250031  0.1250031  0.3749969  )
        17           C   tau(  17) = (  0.1250031  0.1250031  0.8749969  )
        18           C   tau(  18) = (  0.1250031  0.6250031  0.3749969  )
        19           C   tau(  19) = (  0.1250031  0.6250031  0.8749969  )
        20           C   tau(  20) = (  0.6250031  0.1250031  0.3749969  )
        21           C   tau(  21) = (  0.6250031  0.1250031  0.8749969  )
        22           C   tau(  22) = (  0.6250031  0.6250031  0.3749969  )
        23           C   tau(  23) = (  0.6250031  0.6250031  0.8749969  )
        24           C   tau(  24) = (  0.0000000  0.2500000  0.0000000  )
        25           C   tau(  25) = (  0.0000000  0.2500000  0.5000000  )
        26           C   tau(  26) = (  0.0000000  0.7500000  0.0000000  )
        27           C   tau(  27) = (  0.0000000  0.7500000  0.5000000  )
        28           C   tau(  28) = (  0.5000000  0.2500000  0.0000000  )
        29           C   tau(  29) = (  0.5000000  0.2500000  0.5000000  )
        30           C   tau(  30) = (  0.5000000  0.7500000  0.0000000  )
        31           C   tau(  31) = (  0.5000000  0.7500000  0.5000000  )
        32           C   tau(  32) = (  0.3749969  0.3749969  0.3749969  )
        33           C   tau(  33) = (  0.3749969  0.3749969  0.8749969  )
        34           C   tau(  34) = (  0.3749969  0.8749969  0.3749969  )
        35           C   tau(  35) = (  0.3749969  0.8749969  0.8749969  )
        36           C   tau(  36) = (  0.8749969  0.3749969  0.3749969  )
        37           C   tau(  37) = (  0.8749969  0.3749969  0.8749969  )
        38           C   tau(  38) = (  0.8749969  0.8749969  0.3749969  )
        39           C   tau(  39) = (  0.8749969  0.8749969  0.8749969  )
        40           C   tau(  40) = (  0.2500000  0.0000000  0.0000000  )
        41           C   tau(  41) = (  0.2500000  0.0000000  0.5000000  )
        42           C   tau(  42) = (  0.2500000  0.5000000  0.0000000  )
        43           C   tau(  43) = (  0.2500000  0.5000000  0.5000000  )
        44           C   tau(  44) = (  0.7500000  0.0000000  0.0000000  )
        45           C   tau(  45) = (  0.7500000  0.0000000  0.5000000  )
        46           C   tau(  46) = (  0.7500000  0.5000000  0.0000000  )
        47           C   tau(  47) = (  0.7500000  0.5000000  0.5000000  )
        48           C   tau(  48) = (  0.3749969  0.1250031  0.1250031  )
        49           C   tau(  49) = (  0.3749969  0.1250031  0.6250031  )
        50           C   tau(  50) = (  0.3749969  0.6250031  0.1250031  )
        51           C   tau(  51) = (  0.3749969  0.6250031  0.6250031  )
        52           C   tau(  52) = (  0.8749969  0.1250031  0.1250031  )
        53           C   tau(  53) = (  0.8749969  0.1250031  0.6250031  )
        54           C   tau(  54) = (  0.8749969  0.6250031  0.1250031  )
        55           C   tau(  55) = (  0.8749969  0.6250031  0.6250031  )
        56           C   tau(  56) = (  0.2500000  0.2500000  0.2500000  )
        57           C   tau(  57) = (  0.2500000  0.2500000  0.7500000  )
        58           C   tau(  58) = (  0.2500000  0.7500000  0.2500000  )
        59           C   tau(  59) = (  0.2500000  0.7500000  0.7500000  )
        60           C   tau(  60) = (  0.7500000  0.2500000  0.2500000  )
        61           C   tau(  61) = (  0.7500000  0.2500000  0.7500000  )
        62           C   tau(  62) = (  0.7500000  0.7500000  0.2500000  )
        63           C   tau(  63) = (  0.7500000  0.7500000  0.7500000  )

     number of k points=     4  Gaussian smearing, width (Ry)=  0.0100
                       cart. coord. in units 2pi/alat
        k(    1) = (   0.0000000   0.0000000   0.0000000), wk =   0.2500000
        k(    2) = (   0.0000000   0.0000000  -0.5000000), wk =   0.7500000
        k(    3) = (   0.0000000  -0.5000000  -0.5000000), wk =   0.7500000
        k(    4) = (  -0.5000000  -0.5000000  -0.5000000), wk =   0.2500000

                       cryst. coord.
        k(    1) = (   0.0000000   0.0000000   0.0000000), wk =   0.2500000
        k(    2) = (   0.0000000   0.0000000  -0.5000000), wk =   0.7500000
        k(    3) = (   0.0000000  -0.5000000  -0.5000000), wk =   0.7500000
        k(    4) = (  -0.5000000  -0.5000000  -0.5000000), wk =   0.2500000

     Dense  grid:   272153 G-vectors     FFT dimensions: (  90,  90,  90)

     Smooth grid:   194543 G-vectors     FFT dimensions: (  72,  72,  72)

     Dynamical RAM for                 wfc:       1.75 MB

     Dynamical RAM for     wfc (w. buffer):       1.75 MB

     Dynamical RAM for           str. fact:       0.13 MB

     Dynamical RAM for           local pot:       0.00 MB

     Dynamical RAM for          nlocal pot:       5.84 MB

     Dynamical RAM for                qrad:       0.43 MB

     Dynamical RAM for          rho,v,vnew:       0.95 MB

     Dynamical RAM for               rhoin:       0.32 MB

     Dynamical RAM for            rho*nmix:       2.08 MB

     Dynamical RAM for           G-vectors:       0.53 MB

     Dynamical RAM for          h,s,v(r/c):      16.70 MB

     Dynamical RAM for          <psi|beta>:       1.16 MB

     Dynamical RAM for                 psi:       7.00 MB

     Dynamical RAM for                hpsi:       7.00 MB

     Dynamical RAM for                spsi:       7.00 MB

     Dynamical RAM for      wfcinit/wfcrot:       4.03 MB

     Dynamical RAM for           addusdens:       3.54 MB

     Dynamical RAM for          addusforce:       7.58 MB

     Dynamical RAM for         addusstress:       1.67 MB

     Estimated static dynamical RAM per process >      11.13 MB

     Estimated max dynamical RAM per process >      52.09 MB

     Estimated total dynamical RAM >       6.32 GB

     Atomic positions and unit cell read from directory:
     ./diamond.save/
     Atomic positions from file used, from input discarded
 

     Check: negative core charge=   -0.000014

     The initial density is read from file :
     ./diamond.save/charge-density



     %%%%%%%%%%%%%%%%%%%%%%%%%%%%%%%%%%%%%%%%%%%%%%%%%%%%%%%%%%%%%%%%%%%%%%%%
     %                                                                      %
     % You are using vdW-DF, which was implemented by the Thonhauser group. %
     % Please cite the following two papers that made this development      %
     % possible and the two reviews that describe the various versions:     %
     %                                                                      %
     %   T. Thonhauser et al., PRL 115, 136402 (2015).                      %
     %   T. Thonhauser et al., PRB 76, 125112 (2007).                       %
     %   K. Berland et al., Rep. Prog. Phys. 78, 066501 (2015).             %
     %   D.C. Langreth et al., J. Phys.: Condens. Matter 21, 084203 (2009). %
     %                                                                      %
     % If you are calculating stress with vdW-DF, please also cite:         %
     %                                                                      %
     %   R. Sabatini et al., J. Phys.: Condens. Matter 24, 424209 (2012).   %
     %                                                                      %
     %%%%%%%%%%%%%%%%%%%%%%%%%%%%%%%%%%%%%%%%%%%%%%%%%%%%%%%%%%%%%%%%%%%%%%%%

     %%%%%%%%%%%%%%%%%%%%%%%%%%%%%%%%%%%%%%%%%%%%%%%%%%%%%%%%%%%%%%%%%%%%%%%%
     %                                                                      %
     %  vdW-DF NEWS:                                                        %
     %                                                                      %
     %  * vdW-DF3 is now available. DOI: 10.1021/acs.jctc.0c00471           %
     %    use with input_dft = 'vdW-DF3-opt1' or 'vdW-DF3-opt2'             %
     %                                                                      %
     %  * Unscreened and range-separated hybrid vdW-DF-cx functionals       %
     %    DOI: 10.1063/1.4986522 and 10.1088/1361-648X/ac2ad2               %
     %    use with input_dft = 'vdW-DF-cx0'    and 'vdW-DF-ahcx'            %
     %  * Unscreened and range-separated hybrid vdW-DF2-b86r functionals    %
     %    DOI: 10.1063/1.4986522 and DOI: 10.1103/PhysRevX.12.041003        %
     %    use with input_dft = 'vdW-DF2-br0' and 'vdW-DF2-ahbr'             %
     %                                                                      %
     %%%%%%%%%%%%%%%%%%%%%%%%%%%%%%%%%%%%%%%%%%%%%%%%%%%%%%%%%%%%%%%%%%%%%%%%


     Carrying out vdW-DF run using the following parameters:
     Nqs    =  20  Npoints =  1024  r_max =  100.000
     q_mesh =  0.00001000  0.04494208  0.09755937  0.15916263
               0.23128650  0.31572767  0.41458969  0.53033537
               0.66584808  0.82450364  1.01025438  1.22772762
               1.48234092  1.78043706  2.12944203  2.53805004
               3.01644009  3.57652955  4.23227104  5.00000000


     -----------------------------------------------
     Non-local corr. energy    =       2.16556179 Ry
     -----------------------------------------------

     Starting wfcs from file
     Checking if some PAW data can be deallocated... 

     total cpu time spent up to now is        2.2 secs

     Self-consistent Calculation

     iteration #  1     ecut=    70.00 Ry     beta= 0.70
     Davidson diagonalization with overlap

---- Real-time Memory Report at c_bands before calling an iterative solver
           168 MiB given to the printing process from OS
             0 MiB allocation reported by mallinfo(arena+hblkhd)
       1996130 MiB available memory on the node where the printing process lives
------------------
     ethr =  1.00E-05,  avg # of iterations =  1.0

     Threshold (ethr) on eigenvalues was too large:
     Diagonalizing with lowered threshold

     Davidson diagonalization with overlap

---- Real-time Memory Report at c_bands before calling an iterative solver
           208 MiB given to the printing process from OS
             0 MiB allocation reported by mallinfo(arena+hblkhd)
       1991545 MiB available memory on the node where the printing process lives
------------------
     ethr =  7.77E-13,  avg # of iterations = 16.5


     -----------------------------------------------
     Non-local corr. energy    =       2.16556184 Ry
     -----------------------------------------------


     total cpu time spent up to now is        7.7 secs

     End of self-consistent calculation

          k = 0.0000 0.0000 0.0000 ( 24303 PWs)   bands (ev):

    -8.6897  -6.5108  -6.5108  -6.5097  -6.4850  -6.4850  -6.0969  -4.4340
    -4.4340  -4.4333  -4.3532  -4.3532  -4.3085  -4.3084  -4.3084  -4.2588
    -4.2588  -4.2577  -3.5772  -3.1012  -3.1008  -3.1008  -2.3850  -0.5567
    -0.5002  -0.5002  -0.5001  -0.1449  -0.1449  -0.0178  -0.0173  -0.0173
     0.0976   0.5570   0.5573   0.5573   0.5581   0.5581   0.6349   0.6350
     0.6350   0.7690   0.7690   0.7691   2.8322   3.8258   3.8267   3.8267
     3.8590   3.8590   3.8594   3.9505   3.9505   4.1022   4.1027   4.1027
     4.3935   4.3935   4.3935   4.4608   4.4608   4.4620   4.5377   4.5731
     4.5731   4.7658   4.8031   4.8031   4.8038   5.0435   5.0435   5.1370
     5.1370   5.1372   5.1536   5.1536   5.1542   5.8200   5.8200   5.8207
     6.4259   6.4260   6.4260   6.7317   6.7318   6.7318   7.1625   8.0243
     8.0243   8.1324   8.1324   8.1326   8.4534   8.4543   8.4543   8.5027
     8.5029   8.5029   8.6109   8.6109   8.6116   9.0106   9.0112   9.0112
     9.4557   9.4565   9.4565   9.5758   9.5758   9.5772   9.6930   9.6930
     9.6933   9.7502   9.7507   9.7507   9.9008   9.9008   9.9525   9.9526
     9.9526  10.7333  12.0184  12.0184  12.0185  14.2381  14.2384  14.2384
    17.2947  17.2981  17.2981  17.4368  17.4368  17.4377  17.8241  17.8241
    17.8246  17.8246  17.8246  18.1477  18.7279  18.7279  18.7287  20.6966
    20.6976  20.6976  20.7105  20.7108  20.7108  20.8945  20.8945

     occupation numbers 
     1.0000   1.0000   1.0000   1.0000   1.0000   1.0000   1.0000   1.0000
     1.0000   1.0000   1.0000   1.0000   1.0000   1.0000   1.0000   1.0000
     1.0000   1.0000   1.0000   1.0000   1.0000   1.0000   1.0000   1.0000
     1.0000   1.0000   1.0000   1.0000   1.0000   1.0000   1.0000   1.0000
     1.0000   1.0000   1.0000   1.0000   1.0000   1.0000   1.0000   1.0000
     1.0000   1.0000   1.0000   1.0000   1.0000   1.0000   1.0000   1.0000
     1.0000   1.0000   1.0000   1.0000   1.0000   1.0000   1.0000   1.0000
     1.0000   1.0000   1.0000   1.0000   1.0000   1.0000   1.0000   1.0000
     1.0000   1.0000   1.0000   1.0000   1.0000   1.0000   1.0000   1.0000
     1.0000   1.0000   1.0000   1.0000   1.0000   1.0000   1.0000   1.0000
     1.0000   1.0000   1.0000   1.0000   1.0000   1.0000   1.0000   1.0000
     1.0000   1.0000   1.0000   1.0000   1.0000   1.0000   1.0000   1.0000
     1.0000   1.0000   1.0000   1.0000   1.0000   1.0000   1.0000   1.0000
     1.0000   1.0000   1.0000   1.0000   1.0000   1.0000   1.0000   1.0000
     1.0000   1.0000   1.0000   1.0000   1.0000   1.0000   1.0000   1.0000
     1.0000   1.0000   1.0000   1.0000   1.0000   0.0000   0.0000   0.0000
     0.0000   0.0000   0.0000   0.0000   0.0000   0.0000   0.0000   0.0000
     0.0000   0.0000   0.0000   0.0000   0.0000   0.0000   0.0000   0.0000
     0.0000   0.0000   0.0000   0.0000   0.0000   0.0000   0.0000

          k = 0.0000 0.0000-0.5000 ( 24268 PWs)   bands (ev):

    -8.1945  -8.0489  -6.0327  -6.0318  -5.9441  -5.9265  -5.9126  -5.8864
    -5.8858  -5.4210  -4.0224  -3.9029  -3.8829  -3.8827  -3.8541  -3.7926
    -3.7925  -3.7835  -3.7112  -3.0314  -1.9472  -1.9466  -1.9091  -1.8575
    -1.8567  -1.8567  -1.7453  -1.0495   0.1589   0.1683   0.1910   0.2077
     0.2081   0.2750   0.2753   0.7573   1.0684   1.1251   1.1543   1.1544
     1.4078   1.4080   1.4249   1.7061   2.1171   2.1689   2.1694   2.2525
     2.3999   2.4000   2.4133   3.6313   3.8415   3.8854   3.8905   3.8907
     3.9065   3.9347   4.2571   4.2577   4.3214   5.1158   5.4281   5.4282
     5.4299   5.5324   5.5463   5.5464   5.5623   5.5658   6.0118   6.0121
     6.0464   6.1418   6.3021   6.3023   6.4045   6.8890   6.8891   6.9492
     7.0309   7.0309   7.0976   7.1540   7.1575   7.1614   7.1618   7.2379
     7.2384   7.2439   7.2602   7.2831   7.2833   7.2979   7.6530   7.7982
     7.7985   7.8026   7.9143   8.0449   8.1279   8.1282   8.6321   8.6323
     9.1328   9.4843   9.5289   9.5452   9.6415   9.6415   9.7190   9.7388
     9.7392   9.7442   9.7995   9.7996   9.8764   9.9984  10.6121  10.6123
    10.6150  10.7369  10.8671  10.8674  11.8565  13.6114  13.9712  13.9713
    17.1265  17.1434  17.9647  18.3673  19.3220  19.3578  19.3845  19.3861
    19.3866  19.4787  19.5441  19.5445  19.6664  19.6676  19.7191  19.7197
    19.8280  19.9885  20.0103  20.0108  20.0341  20.0754  20.6033

     occupation numbers 
     1.0000   1.0000   1.0000   1.0000   1.0000   1.0000   1.0000   1.0000
     1.0000   1.0000   1.0000   1.0000   1.0000   1.0000   1.0000   1.0000
     1.0000   1.0000   1.0000   1.0000   1.0000   1.0000   1.0000   1.0000
     1.0000   1.0000   1.0000   1.0000   1.0000   1.0000   1.0000   1.0000
     1.0000   1.0000   1.0000   1.0000   1.0000   1.0000   1.0000   1.0000
     1.0000   1.0000   1.0000   1.0000   1.0000   1.0000   1.0000   1.0000
     1.0000   1.0000   1.0000   1.0000   1.0000   1.0000   1.0000   1.0000
     1.0000   1.0000   1.0000   1.0000   1.0000   1.0000   1.0000   1.0000
     1.0000   1.0000   1.0000   1.0000   1.0000   1.0000   1.0000   1.0000
     1.0000   1.0000   1.0000   1.0000   1.0000   1.0000   1.0000   1.0000
     1.0000   1.0000   1.0000   1.0000   1.0000   1.0000   1.0000   1.0000
     1.0000   1.0000   1.0000   1.0000   1.0000   1.0000   1.0000   1.0000
     1.0000   1.0000   1.0000   1.0000   1.0000   1.0000   1.0000   1.0000
     1.0000   1.0000   1.0000   1.0000   1.0000   1.0000   1.0000   1.0000
     1.0000   1.0000   1.0000   1.0000   1.0000   1.0000   1.0000   1.0000
     1.0000   1.0000   1.0000   1.0000   1.0000   0.3996   0.0000   0.0000
     0.0000   0.0000   0.0000   0.0000   0.0000   0.0000   0.0000   0.0000
     0.0000   0.0000   0.0000   0.0000   0.0000   0.0000   0.0000   0.0000
     0.0000   0.0000   0.0000   0.0000   0.0000   0.0000   0.0000

          k = 0.0000-0.5000-0.5000 ( 24324 PWs)   bands (ev):

    -7.6335  -7.6229  -7.6225  -7.3442  -5.4417  -5.4415  -5.4295  -5.4115
    -5.3812  -5.3806  -5.3773  -4.8325  -3.3240  -3.2651  -3.2649  -3.2524
    -3.2466  -3.1693  -3.1690  -2.7882  -2.1131  -2.1126  -2.1085  -2.0985
    -2.0983  -2.0695  -2.0693  -1.2133  -0.4065  -0.4064  -0.4059  -0.0782
     0.3350   0.3656   0.3662   0.4254   0.5051   0.6777   0.6783   0.6893
     0.9235   0.9238   1.1824   2.2491   3.4044   3.4046   3.4284   3.4412
     3.4991   3.4992   3.5099   3.5117   3.5596   3.5596   3.5657   3.5825
     3.5826   3.5876   3.6090   3.6241   4.0765   4.2205   4.2207   5.3714
     5.6536   5.6545   5.7418   5.7750   5.8670   5.8673   6.0049   6.1449
     6.2061   6.2655   6.3342   6.3342   6.3954   6.5504   6.5507   6.6435
     6.7913   6.7916   6.8558   6.8834   7.0854   7.0854   7.1028   7.2469
     7.3669   7.5333   7.5334   7.8507   7.9942   8.0494   8.0496   8.1459
     8.1652   8.2338   8.2338   8.3670   8.6076   8.7819   8.7819   8.9763
     9.0042   9.0801   9.0997   9.1001   9.1379   9.2120   9.3222   9.3327
     9.3329   9.3984   9.4451   9.4452   9.4838   9.4912   9.4914   9.5069
    11.1296  11.1298  11.4033  11.7846  11.8682  13.4422  14.0988  14.0990
    18.5274  18.5278  18.6140  18.9266  19.1071  19.1072  19.2071  19.2330
    19.2331  19.2445  19.2844  19.3770  19.4779  19.5473  19.6922  19.6924
    19.7105  19.7846  19.7849  19.7927  20.1195  20.1199  20.3670

     occupation numbers 
     1.0000   1.0000   1.0000   1.0000   1.0000   1.0000   1.0000   1.0000
     1.0000   1.0000   1.0000   1.0000   1.0000   1.0000   1.0000   1.0000
     1.0000   1.0000   1.0000   1.0000   1.0000   1.0000   1.0000   1.0000
     1.0000   1.0000   1.0000   1.0000   1.0000   1.0000   1.0000   1.0000
     1.0000   1.0000   1.0000   1.0000   1.0000   1.0000   1.0000   1.0000
     1.0000   1.0000   1.0000   1.0000   1.0000   1.0000   1.0000   1.0000
     1.0000   1.0000   1.0000   1.0000   1.0000   1.0000   1.0000   1.0000
     1.0000   1.0000   1.0000   1.0000   1.0000   1.0000   1.0000   1.0000
     1.0000   1.0000   1.0000   1.0000   1.0000   1.0000   1.0000   1.0000
     1.0000   1.0000   1.0000   1.0000   1.0000   1.0000   1.0000   1.0000
     1.0000   1.0000   1.0000   1.0000   1.0000   1.0000   1.0000   1.0000
     1.0000   1.0000   1.0000   1.0000   1.0000   1.0000   1.0000   1.0000
     1.0000   1.0000   1.0000   1.0000   1.0000   1.0000   1.0000   1.0000
     1.0000   1.0000   1.0000   1.0000   1.0000   1.0000   1.0000   1.0000
     1.0000   1.0000   1.0000   1.0000   1.0000   1.0000   1.0000   1.0000
     1.0000   1.0000   1.0000   1.0000   1.0000   0.9337   0.0000   0.0000
     0.0000   0.0000   0.0000   0.0000   0.0000   0.0000   0.0000   0.0000
     0.0000   0.0000   0.0000   0.0000   0.0000   0.0000   0.0000   0.0000
     0.0000   0.0000   0.0000   0.0000   0.0000   0.0000   0.0000

          k =-0.5000-0.5000-0.5000 ( 24464 PWs)   bands (ev):

    -7.1003  -7.1003  -7.0995  -7.0681  -7.0226  -7.0226  -7.0223  -6.4454
    -2.9762  -2.9762  -2.9754  -2.8555  -2.8555  -2.8065  -2.8065  -2.8064
    -2.8046  -2.8046  -2.8042  -2.8040  -2.8017  -2.8017  -2.7988  -2.7988
    -2.7984  -2.7624  -2.7617  -2.7617  -2.6248  -2.6248  -2.6241  -0.3008
     1.7362   1.8020   1.8025   1.8025   1.8215   1.8215   1.8223   1.8400
     1.8400   1.8455   1.8455   1.8457   1.9060   1.9065   1.9065   1.9608
     1.9609   1.9609   1.9734   1.9734   2.5863   2.5865   2.5865   4.4681
     5.7511   5.7514   5.7514   5.8340   5.8340   5.8730   5.8731   5.8731
     5.8735   5.8959   5.8959   5.8960   5.9778   6.0027   6.0027   6.0028
     6.0286   6.0286   6.0288   6.0520   6.0521   6.0521   6.0820   6.0977
     6.0977   6.1206   6.1210   6.1210   6.7947   6.7947   6.7951   7.5636
     7.5638   7.5638   7.6317   7.6317   7.7644   7.8041   7.8041   7.8041
     7.8132   7.8132   7.8135   7.8274   7.8274   7.8274   7.8588   7.9042
     7.9042   7.9954   7.9957   7.9957   9.4602   9.4602   9.4606  10.4926
    10.7027  10.7027  10.8191  10.8192  10.8192  10.8729  10.8729  10.8729
    10.9470  10.9470  10.9507  10.9508  10.9508  14.0871  14.0872  14.0872
    18.7675  18.7675  18.7680  18.8433  18.8436  18.8436  18.8442  18.8442
    18.9559  18.9559  18.9566  19.0041  19.0041  19.0048  19.0161  19.0637
    19.0643  19.0643  19.3435  19.3435  19.3441  19.6010  19.6010

     occupation numbers 
     1.0000   1.0000   1.0000   1.0000   1.0000   1.0000   1.0000   1.0000
     1.0000   1.0000   1.0000   1.0000   1.0000   1.0000   1.0000   1.0000
     1.0000   1.0000   1.0000   1.0000   1.0000   1.0000   1.0000   1.0000
     1.0000   1.0000   1.0000   1.0000   1.0000   1.0000   1.0000   1.0000
     1.0000   1.0000   1.0000   1.0000   1.0000   1.0000   1.0000   1.0000
     1.0000   1.0000   1.0000   1.0000   1.0000   1.0000   1.0000   1.0000
     1.0000   1.0000   1.0000   1.0000   1.0000   1.0000   1.0000   1.0000
     1.0000   1.0000   1.0000   1.0000   1.0000   1.0000   1.0000   1.0000
     1.0000   1.0000   1.0000   1.0000   1.0000   1.0000   1.0000   1.0000
     1.0000   1.0000   1.0000   1.0000   1.0000   1.0000   1.0000   1.0000
     1.0000   1.0000   1.0000   1.0000   1.0000   1.0000   1.0000   1.0000
     1.0000   1.0000   1.0000   1.0000   1.0000   1.0000   1.0000   1.0000
     1.0000   1.0000   1.0000   1.0000   1.0000   1.0000   1.0000   1.0000
     1.0000   1.0000   1.0000   1.0000   1.0000   1.0000   1.0000   1.0000
     1.0000   1.0000   1.0000   1.0000   1.0000   1.0000   1.0000   1.0000
     1.0000   1.0000   1.0000   1.0000   1.0000   0.0000   0.0000   0.0000
     0.0000   0.0000   0.0000   0.0000   0.0000   0.0000   0.0000   0.0000
     0.0000   0.0000   0.0000   0.0000   0.0000   0.0000   0.0000   0.0000
     0.0000   0.0000   0.0000   0.0000   0.0000   0.0000   0.0000

     the Fermi energy is    13.5869 ev

!    total energy              =   -1197.08211333 Ry
     total all-electron energy =     -4836.220232 Ry
     estimated scf accuracy    <          2.9E-09 Ry
     smearing contrib. (-TS)   =      -0.00273266 Ry
     internal energy E=F+TS    =   -1197.07938067 Ry

     The total energy is F=E-TS. E is the sum of the following terms:
     one-electron contribution =     242.64517082 Ry
     hartree contribution      =      69.57922678 Ry
     xc contribution           =    -305.59843521 Ry
     ewald contribution        =    -791.58167757 Ry
     one-center paw contrib.   =    -412.12366549 Ry
      -> PAW hartree energy AE =       8.99043209 Ry
      -> PAW hartree energy PS =      -8.98214424 Ry
      -> PAW xc energy AE      =     -11.11323696 Ry
      -> PAW xc energy PS      =       4.56404935 Ry
      -> total E_H with PAW    =      69.58751464 Ry
      -> total E_XC with PAW   =    -312.14762283 Ry

     convergence has been achieved in   1 iterations


     -----------------------------------------------
     Non-local corr. energy    =       2.16556184 Ry
     -----------------------------------------------


     Forces acting on atoms (cartesian axes, Ry/au):

     atom    1 type  1   force =    -0.00000368    0.00000368    0.00002038
     atom    2 type  1   force =    -0.00000368   -0.00002038   -0.00000368
     atom    3 type  1   force =    -0.00002565    0.00001242   -0.00001242
     atom    4 type  1   force =     0.00002038    0.00000368   -0.00000368
     atom    5 type  1   force =    -0.00001242    0.00002565   -0.00001242
     atom    6 type  1   force =    -0.00001242    0.00001242   -0.00002565
     atom    7 type  1   force =     0.00001011   -0.00001011    0.00001011
     atom    8 type  1   force =    -0.00009633   -0.00002701    0.00012246
     atom    9 type  1   force =    -0.00028737   -0.00010911   -0.00010050
     atom   10 type  1   force =     0.00007050   -0.00007050   -0.00002894
     atom   11 type  1   force =    -0.00008464    0.00008464   -0.00002202
     atom   12 type  1   force =     0.00010741   -0.00010741    0.00027955
     atom   13 type  1   force =     0.00017028   -0.00017028   -0.00014823
     atom   14 type  1   force =     0.00002701    0.00009633    0.00012246
     atom   15 type  1   force =     0.00010911    0.00028737   -0.00010050
     atom   16 type  1   force =    -0.00017553   -0.00001101    0.00001101
     atom   17 type  1   force =     0.00018201    0.00000913   -0.00002321
     atom   18 type  1   force =     0.00018201    0.00002321   -0.00000913
     atom   19 type  1   force =    -0.00022823    0.00005107   -0.00005107
     atom   20 type  1   force =    -0.00018869   -0.00036720    0.00036720
     atom   21 type  1   force =     0.00016987   -0.00037609   -0.00039200
     atom   22 type  1   force =     0.00016987    0.00039200    0.00037609
     atom   23 type  1   force =    -0.00013617    0.00034297   -0.00034297
     atom   24 type  1   force =     0.00007050    0.00002894    0.00007050
     atom   25 type  1   force =    -0.00009633   -0.00012246    0.00002701
     atom   26 type  1   force =    -0.00008464    0.00002202   -0.00008464
     atom   27 type  1   force =    -0.00028737    0.00010050    0.00010911
     atom   28 type  1   force =     0.00002701   -0.00012246   -0.00009633
     atom   29 type  1   force =     0.00010741   -0.00027955    0.00010741
     atom   30 type  1   force =     0.00010911    0.00010050   -0.00028737
     atom   31 type  1   force =     0.00017028    0.00014823    0.00017028
     atom   32 type  1   force =     0.00001101    0.00017553    0.00001101
     atom   33 type  1   force =    -0.00000913   -0.00018201   -0.00002321
     atom   34 type  1   force =     0.00036720    0.00018869    0.00036720
     atom   35 type  1   force =     0.00037609   -0.00016987   -0.00039200
     atom   36 type  1   force =    -0.00002321   -0.00018201   -0.00000913
     atom   37 type  1   force =    -0.00005107    0.00022823   -0.00005107
     atom   38 type  1   force =    -0.00039200   -0.00016987    0.00037609
     atom   39 type  1   force =    -0.00034297    0.00013617   -0.00034297
     atom   40 type  1   force =     0.00012246   -0.00002701   -0.00009633
     atom   41 type  1   force =     0.00027955   -0.00010741    0.00010741
     atom   42 type  1   force =    -0.00002894   -0.00007050    0.00007050
     atom   43 type  1   force =     0.00012246    0.00009633    0.00002701
     atom   44 type  1   force =    -0.00010050   -0.00010911   -0.00028737
     atom   45 type  1   force =    -0.00014823   -0.00017028    0.00017028
     atom   46 type  1   force =    -0.00002202    0.00008464   -0.00008464
     atom   47 type  1   force =    -0.00010050    0.00028737    0.00010911
     atom   48 type  1   force =     0.00001101   -0.00001101   -0.00017553
     atom   49 type  1   force =     0.00036720   -0.00036720   -0.00018869
     atom   50 type  1   force =    -0.00000913    0.00002321    0.00018201
     atom   51 type  1   force =     0.00037609    0.00039200    0.00016987
     atom   52 type  1   force =    -0.00002321    0.00000913    0.00018201
     atom   53 type  1   force =    -0.00039200   -0.00037609    0.00016987
     atom   54 type  1   force =    -0.00005107    0.00005107   -0.00022823
     atom   55 type  1   force =    -0.00034297    0.00034297   -0.00013617
     atom   56 type  1   force =    -0.00009632    0.00009632   -0.00009632
     atom   57 type  1   force =     0.00013689   -0.00013689   -0.00002310
     atom   58 type  1   force =     0.00013689    0.00002310    0.00013689
     atom   59 type  1   force =     0.00030286    0.00013832   -0.00013832
     atom   60 type  1   force =    -0.00002310   -0.00013689    0.00013689
     atom   61 type  1   force =    -0.00013832   -0.00030286   -0.00013832
     atom   62 type  1   force =    -0.00013832    0.00013832    0.00030286
     atom   63 type  1   force =    -0.00015648    0.00015648   -0.00015648
     The non-local contrib.  to forces
     atom    1 type  1   force =     0.00010779   -0.00010779    0.00005492
     atom    2 type  1   force =     0.00010779   -0.00005492    0.00010779
     atom    3 type  1   force =     0.00006897   -0.00008026    0.00008026
     atom    4 type  1   force =     0.00005492   -0.00010779    0.00010779
     atom    5 type  1   force =     0.00008026   -0.00006897    0.00008026
     atom    6 type  1   force =     0.00008026   -0.00008026    0.00006897
     atom    7 type  1   force =     0.00011241   -0.00011241    0.00011241
     atom    8 type  1   force =    -0.00486192    0.00511064    0.00484871
     atom    9 type  1   force =     0.01725627    0.01853476    0.01849557
     atom   10 type  1   force =    -0.05266405    0.05266405    0.05264886
     atom   11 type  1   force =    -0.00482709    0.00482709    0.00514477
     atom   12 type  1   force =    -0.01845274    0.01845274   -0.01723510
     atom   13 type  1   force =    -0.00306351    0.00306351    0.00311343
     atom   14 type  1   force =    -0.00511064    0.00486192    0.00484871
     atom   15 type  1   force =    -0.01853476   -0.01725627    0.01849557
     atom   16 type  1   force =     0.02750959   -0.01026528    0.01026528
     atom   17 type  1   force =    -0.02730424   -0.01035347   -0.01051524
     atom   18 type  1   force =    -0.02730424    0.01051524    0.01035347
     atom   19 type  1   force =     0.02729851    0.01037442   -0.01037442
     atom   20 type  1   force =    -0.00225629   -0.00035675    0.00035675
     atom   21 type  1   force =     0.00241433   -0.00036557   -0.00044582
     atom   22 type  1   force =     0.00241433    0.00044582    0.00036557
     atom   23 type  1   force =    -0.00223689    0.00044948   -0.00044948
     atom   24 type  1   force =    -0.05266405   -0.05264886   -0.05266405
     atom   25 type  1   force =    -0.00486192   -0.00484871   -0.00511064
     atom   26 type  1   force =    -0.00482709   -0.00514477   -0.00482709
     atom   27 type  1   force =     0.01725627   -0.01849557   -0.01853476
     atom   28 type  1   force =    -0.00511064   -0.00484871   -0.00486192
     atom   29 type  1   force =    -0.01845274    0.01723510   -0.01845274
     atom   30 type  1   force =    -0.01853476   -0.01849557    0.01725627
     atom   31 type  1   force =    -0.00306351   -0.00311343   -0.00306351
     atom   32 type  1   force =     0.01026528   -0.02750959    0.01026528
     atom   33 type  1   force =     0.01035347    0.02730424   -0.01051524
     atom   34 type  1   force =     0.00035675    0.00225629    0.00035675
     atom   35 type  1   force =     0.00036557   -0.00241433   -0.00044582
     atom   36 type  1   force =    -0.01051524    0.02730424    0.01035347
     atom   37 type  1   force =    -0.01037442   -0.02729851   -0.01037442
     atom   38 type  1   force =    -0.00044582   -0.00241433    0.00036557
     atom   39 type  1   force =    -0.00044948    0.00223689   -0.00044948
     atom   40 type  1   force =     0.00484871    0.00511064   -0.00486192
     atom   41 type  1   force =    -0.01723510    0.01845274   -0.01845274
     atom   42 type  1   force =     0.05264886    0.05266405   -0.05266405
     atom   43 type  1   force =     0.00484871    0.00486192   -0.00511064
     atom   44 type  1   force =     0.01849557    0.01853476    0.01725627
     atom   45 type  1   force =     0.00311343    0.00306351   -0.00306351
     atom   46 type  1   force =     0.00514477    0.00482709   -0.00482709
     atom   47 type  1   force =     0.01849557   -0.01725627   -0.01853476
     atom   48 type  1   force =     0.01026528   -0.01026528    0.02750959
     atom   49 type  1   force =     0.00035675   -0.00035675   -0.00225629
     atom   50 type  1   force =     0.01035347    0.01051524   -0.02730424
     atom   51 type  1   force =     0.00036557    0.00044582    0.00241433
     atom   52 type  1   force =    -0.01051524   -0.01035347   -0.02730424
     atom   53 type  1   force =    -0.00044582   -0.00036557    0.00241433
     atom   54 type  1   force =    -0.01037442    0.01037442    0.02729851
     atom   55 type  1   force =    -0.00044948    0.00044948   -0.00223689
     atom   56 type  1   force =     0.05278178   -0.05278178    0.05278178
     atom   57 type  1   force =     0.00503259   -0.00503259    0.00515408
     atom   58 type  1   force =     0.00503259   -0.00515408    0.00503259
     atom   59 type  1   force =    -0.01748422   -0.01869706    0.01869706
     atom   60 type  1   force =     0.00515408   -0.00503259    0.00503259
     atom   61 type  1   force =     0.01869706    0.01748422    0.01869706
     atom   62 type  1   force =     0.01869706   -0.01869706   -0.01748422
     atom   63 type  1   force =     0.00308111   -0.00308111    0.00308111
     The ionic contribution  to forces
     atom    1 type  1   force =    -0.00022549    0.00022526   -0.00074375
     atom    2 type  1   force =    -0.00022549    0.00074400   -0.00022549
     atom    3 type  1   force =    -0.00085474    0.00048507   -0.00048479
     atom    4 type  1   force =    -0.00074375    0.00022526   -0.00022549
     atom    5 type  1   force =    -0.00048479    0.00085451   -0.00048479
     atom    6 type  1   force =    -0.00048479    0.00048507   -0.00085474
     atom    7 type  1   force =    -0.00029667    0.00029695   -0.00029667
     atom    8 type  1   force =     0.26000005    0.61927760   -0.25977506
     atom    9 type  1   force =     0.25463215    0.22223155    0.22129556
     atom   10 type  1   force =     2.24356213   -2.24356223   -2.24528719
     atom   11 type  1   force =     0.25928428   -0.25928440    0.62192015
     atom   12 type  1   force =    -0.22244340    0.22244328   -0.25283219
     atom   13 type  1   force =    -0.12933682    0.12933670    0.12838829
     atom   14 type  1   force =    -0.61927772   -0.26000017   -0.25977506
     atom   15 type  1   force =    -0.22223166   -0.25463226    0.22129556
     atom   16 type  1   force =    -0.30210778    0.80691605   -0.80691628
     atom   17 type  1   force =     0.30450342    0.80618025    0.80589491
     atom   18 type  1   force =     0.30450344   -0.80589466   -0.80618051
     atom   19 type  1   force =    -0.30563882   -0.80656141    0.80656170
     atom   20 type  1   force =     0.07796670    0.24033226   -0.24033249
     atom   21 type  1   force =    -0.07946581    0.23958463    0.24142676
     atom   22 type  1   force =    -0.07946581   -0.24142647   -0.23958486
     atom   23 type  1   force =     0.08009634   -0.24081743    0.24081772
     atom   24 type  1   force =     2.24356215    2.24528695    2.24356215
     atom   25 type  1   force =     0.26000005    0.25977480   -0.61927772
     atom   26 type  1   force =     0.25928429   -0.62191981    0.25928429
     atom   27 type  1   force =     0.25463215   -0.22129520   -0.22223166
     atom   28 type  1   force =    -0.61927772    0.25977480    0.26000005
     atom   29 type  1   force =    -0.22244340    0.25283193   -0.22244340
     atom   30 type  1   force =    -0.22223166   -0.22129520    0.25463215
     atom   31 type  1   force =    -0.12933682   -0.12838792   -0.12933682
     atom   32 type  1   force =    -0.80691628    0.30210755   -0.80691628
     atom   33 type  1   force =    -0.80618048   -0.30450365    0.80589491
     atom   34 type  1   force =    -0.24033249   -0.07796643   -0.24033249
     atom   35 type  1   force =    -0.23958485    0.07946608    0.24142675
     atom   36 type  1   force =     0.80589491   -0.30450365   -0.80618048
     atom   37 type  1   force =     0.80656167    0.30563857    0.80656167
     atom   38 type  1   force =     0.24142675    0.07946608   -0.23958485
     atom   39 type  1   force =     0.24081771   -0.08009606    0.24081771
     atom   40 type  1   force =    -0.25977506    0.61927760    0.26000005
     atom   41 type  1   force =    -0.25283219    0.22244328   -0.22244340
     atom   42 type  1   force =    -2.24528719   -2.24356223    2.24356213
     atom   43 type  1   force =    -0.25977506   -0.26000017   -0.61927772
     atom   44 type  1   force =     0.22129556    0.22223155    0.25463215
     atom   45 type  1   force =     0.12838829    0.12933670   -0.12933682
     atom   46 type  1   force =     0.62192015   -0.25928440    0.25928428
     atom   47 type  1   force =     0.22129556   -0.25463226   -0.22223166
     atom   48 type  1   force =    -0.80691628    0.80691605   -0.30210778
     atom   49 type  1   force =    -0.24033249    0.24033226    0.07796670
     atom   50 type  1   force =    -0.80618051   -0.80589466    0.30450344
     atom   51 type  1   force =    -0.23958486   -0.24142647   -0.07946581
     atom   52 type  1   force =     0.80589491    0.80618025    0.30450342
     atom   53 type  1   force =     0.24142676    0.23958463   -0.07946581
     atom   54 type  1   force =     0.80656170   -0.80656141   -0.30563882
     atom   55 type  1   force =     0.24081772   -0.24081743    0.08009634
     atom   56 type  1   force =    -2.24346372    2.24346347   -2.24346372
     atom   57 type  1   force =    -0.25925256    0.25925230    0.61996345
     atom   58 type  1   force =    -0.25925257   -0.61996311   -0.25925257
     atom   59 type  1   force =    -0.25513250   -0.22211830    0.22211866
     atom   60 type  1   force =     0.61996345    0.25925230   -0.25925256
     atom   61 type  1   force =     0.22211867    0.25513225    0.22211867
     atom   62 type  1   force =     0.22211866   -0.22211830   -0.25513250
     atom   63 type  1   force =     0.12884256   -0.12884218    0.12884256
     The local contribution  to forces
     atom    1 type  1   force =     0.00000310   -0.00000316    0.00060164
     atom    2 type  1   force =     0.00000308   -0.00060147    0.00000302
     atom    3 type  1   force =     0.00062944   -0.00030477    0.00030498
     atom    4 type  1   force =     0.00060173   -0.00000313    0.00000301
     atom    5 type  1   force =     0.00030499   -0.00062951    0.00030497
     atom    6 type  1   force =     0.00030503   -0.00030479    0.00062936
     atom    7 type  1   force =     0.00010807   -0.00010783    0.00010803
     atom    8 type  1   force =    -0.25528189   -0.62436949    0.25493726
     atom    9 type  1   force =    -0.27193491   -0.24065734   -0.23987342
     atom   10 type  1   force =    -2.19190438    2.19190432    2.19354028
     atom   11 type  1   force =    -0.25460572    0.25460565   -0.62694556
     atom   12 type  1   force =     0.24075022   -0.24075029    0.27036991
     atom   13 type  1   force =     0.13253920   -0.13253926   -0.13155804
     atom   14 type  1   force =     0.62436942    0.25528183    0.25493725
     atom   15 type  1   force =     0.24065726    0.27193484   -0.23987343
     atom   16 type  1   force =     0.27489883   -0.79687742    0.79687732
     atom   17 type  1   force =    -0.27739969   -0.79617629   -0.79572968
     atom   18 type  1   force =    -0.27739970    0.79572987    0.79617620
     atom   19 type  1   force =     0.27804863    0.79636525   -0.79636508
     atom   20 type  1   force =    -0.07596601   -0.24038466    0.24038456
     atom   21 type  1   force =     0.07714602   -0.23975494   -0.24122892
     atom   22 type  1   force =     0.07714602    0.24122910    0.23975482
     atom   23 type  1   force =    -0.07812525    0.24060728   -0.24060709
     atom   24 type  1   force =    -2.19190448   -2.19354043   -2.19190449
     atom   25 type  1   force =    -0.25528186   -0.25493738    0.62436937
     atom   26 type  1   force =    -0.25460572    0.62694578   -0.25460576
     atom   27 type  1   force =    -0.27193491    0.23987359    0.24065720
     atom   28 type  1   force =     0.62436942   -0.25493738   -0.25528191
     atom   29 type  1   force =     0.24075022   -0.27036999    0.24075020
     atom   30 type  1   force =     0.24065728    0.23987361   -0.27193496
     atom   31 type  1   force =     0.13253920    0.13155821    0.13253914
     atom   32 type  1   force =     0.79687735   -0.27489889    0.79687732
     atom   33 type  1   force =     0.79617621    0.27739963   -0.79572970
     atom   34 type  1   force =     0.24038460    0.07596625    0.24038455
     atom   35 type  1   force =     0.23975488   -0.07714578   -0.24122891
     atom   36 type  1   force =    -0.79572962    0.27739961    0.79617615
     atom   37 type  1   force =    -0.79636500   -0.27804867   -0.79636503
     atom   38 type  1   force =    -0.24122887   -0.07714579    0.23975483
     atom   39 type  1   force =    -0.24060704    0.07812548   -0.24060709
     atom   40 type  1   force =     0.25493731   -0.62436949   -0.25528191
     atom   41 type  1   force =     0.27036992   -0.24075029    0.24075019
     atom   42 type  1   force =     2.19354035    2.19190442   -2.19190449
     atom   43 type  1   force =     0.25493730    0.25528180    0.62436937
     atom   44 type  1   force =    -0.23987338   -0.24065735   -0.27193494
     atom   45 type  1   force =    -0.13155798   -0.13253927    0.13253915
     atom   46 type  1   force =    -0.62694553    0.25460564   -0.25460575
     atom   47 type  1   force =    -0.23987336    0.27193482    0.24065718
     atom   48 type  1   force =     0.79687735   -0.79687742    0.27489876
     atom   49 type  1   force =     0.24038460   -0.24038466   -0.07596605
     atom   50 type  1   force =     0.79617626    0.79572989   -0.27739972
     atom   51 type  1   force =     0.23975488    0.24122909    0.07714598
     atom   52 type  1   force =    -0.79572963   -0.79617628   -0.27739970
     atom   53 type  1   force =    -0.24122887   -0.23975495    0.07714598
     atom   54 type  1   force =    -0.79636503    0.79636523    0.27804856
     atom   55 type  1   force =    -0.24060705    0.24060728   -0.07812529
     atom   56 type  1   force =     2.19175884   -2.19175890    2.19175883
     atom   57 type  1   force =     0.25455054   -0.25455060   -0.62514292
     atom   58 type  1   force =     0.25455055    0.62514308    0.25455050
     atom   59 type  1   force =     0.27245651    0.24048103   -0.24048084
     atom   60 type  1   force =    -0.62514282   -0.25455061    0.25455050
     atom   61 type  1   force =    -0.24048080   -0.27245658   -0.24048083
     atom   62 type  1   force =    -0.24048080    0.24048101    0.27245647
     atom   63 type  1   force =    -0.13203621    0.13203644   -0.13203626
     The core correction contribution to forces
     atom    1 type  1   force =     0.00010612   -0.00010612    0.00011527
     atom    2 type  1   force =     0.00010611   -0.00011528    0.00010612
     atom    3 type  1   force =     0.00012109   -0.00010657    0.00010656
     atom    4 type  1   force =     0.00011526   -0.00010612    0.00010612
     atom    5 type  1   force =     0.00010656   -0.00012109    0.00010656
     atom    6 type  1   force =     0.00010655   -0.00010657    0.00012110
     atom    7 type  1   force =     0.00010985   -0.00010987    0.00010986
     atom    8 type  1   force =     0.00005906   -0.00005949    0.00010705
     atom    9 type  1   force =    -0.00024524   -0.00024058   -0.00000264
     atom   10 type  1   force =     0.00107916   -0.00107916   -0.00092394
     atom   11 type  1   force =     0.00005567   -0.00005567   -0.00013918
     atom   12 type  1   force =     0.00025488   -0.00025488   -0.00002625
     atom   13 type  1   force =     0.00004659   -0.00004659   -0.00007376
     atom   14 type  1   force =     0.00005949   -0.00005906    0.00010705
     atom   15 type  1   force =     0.00024058    0.00024524   -0.00000264
     atom   16 type  1   force =    -0.00045575    0.00022728   -0.00022727
     atom   17 type  1   force =     0.00038283    0.00034435    0.00033522
     atom   18 type  1   force =     0.00038283   -0.00033523   -0.00034434
     atom   19 type  1   force =     0.00004783   -0.00012253    0.00012252
     atom   20 type  1   force =     0.00007540    0.00004274   -0.00004274
     atom   21 type  1   force =     0.00009197    0.00015526   -0.00013262
     atom   22 type  1   force =     0.00009197    0.00013261   -0.00015525
     atom   23 type  1   force =     0.00015735    0.00009642   -0.00009643
     atom   24 type  1   force =     0.00107916    0.00092395    0.00107917
     atom   25 type  1   force =     0.00005906   -0.00010704    0.00005950
     atom   26 type  1   force =     0.00005567    0.00013917    0.00005567
     atom   27 type  1   force =    -0.00024524    0.00000263    0.00024059
     atom   28 type  1   force =     0.00005949   -0.00010704    0.00005906
     atom   29 type  1   force =     0.00025488    0.00002625    0.00025489
     atom   30 type  1   force =     0.00024058    0.00000263   -0.00024523
     atom   31 type  1   force =     0.00004659    0.00007375    0.00004659
     atom   32 type  1   force =    -0.00022728    0.00045575   -0.00022727
     atom   33 type  1   force =    -0.00034435   -0.00038283    0.00033522
     atom   34 type  1   force =    -0.00004274   -0.00007542   -0.00004274
     atom   35 type  1   force =    -0.00015526   -0.00009199   -0.00013262
     atom   36 type  1   force =     0.00033521   -0.00038283   -0.00034435
     atom   37 type  1   force =     0.00012251   -0.00004783    0.00012252
     atom   38 type  1   force =    -0.00013262   -0.00009199   -0.00015525
     atom   39 type  1   force =    -0.00009644   -0.00015736   -0.00009643
     atom   40 type  1   force =     0.00010704   -0.00005949    0.00005906
     atom   41 type  1   force =    -0.00002625   -0.00025488    0.00025489
     atom   42 type  1   force =    -0.00092395   -0.00107916    0.00107917
     atom   43 type  1   force =     0.00010704   -0.00005906    0.00005950
     atom   44 type  1   force =    -0.00000265   -0.00024058   -0.00024523
     atom   45 type  1   force =    -0.00007377   -0.00004659    0.00004660
     atom   46 type  1   force =    -0.00013919   -0.00005567    0.00005567
     atom   47 type  1   force =    -0.00000265    0.00024524    0.00024059
     atom   48 type  1   force =    -0.00022728    0.00022728   -0.00045574
     atom   49 type  1   force =    -0.00004274    0.00004274    0.00007541
     atom   50 type  1   force =    -0.00034435   -0.00033523    0.00038284
     atom   51 type  1   force =    -0.00015526    0.00013261    0.00009198
     atom   52 type  1   force =     0.00033521    0.00034435    0.00038284
     atom   53 type  1   force =    -0.00013263    0.00015526    0.00009198
     atom   54 type  1   force =     0.00012251   -0.00012253    0.00004783
     atom   55 type  1   force =    -0.00009644    0.00009642    0.00015735
     atom   56 type  1   force =    -0.00117404    0.00117404   -0.00117403
     atom   57 type  1   force =    -0.00019603    0.00019603    0.00000489
     atom   58 type  1   force =    -0.00019603   -0.00000490   -0.00019603
     atom   59 type  1   force =     0.00045643    0.00045887   -0.00045889
     atom   60 type  1   force =     0.00000488    0.00019603   -0.00019603
     atom   61 type  1   force =    -0.00045889   -0.00045643   -0.00045888
     atom   62 type  1   force =    -0.00045889    0.00045887    0.00045644
     atom   63 type  1   force =    -0.00002313    0.00002311   -0.00002312
     The Hubbard contrib.    to forces
     atom    1 type  1   force =     0.00000000    0.00000000    0.00000000
     atom    2 type  1   force =     0.00000000    0.00000000    0.00000000
     atom    3 type  1   force =     0.00000000    0.00000000    0.00000000
     atom    4 type  1   force =     0.00000000    0.00000000    0.00000000
     atom    5 type  1   force =     0.00000000    0.00000000    0.00000000
     atom    6 type  1   force =     0.00000000    0.00000000    0.00000000
     atom    7 type  1   force =     0.00000000    0.00000000    0.00000000
     atom    8 type  1   force =     0.00000000    0.00000000    0.00000000
     atom    9 type  1   force =     0.00000000    0.00000000    0.00000000
     atom   10 type  1   force =     0.00000000    0.00000000    0.00000000
     atom   11 type  1   force =     0.00000000    0.00000000    0.00000000
     atom   12 type  1   force =     0.00000000    0.00000000    0.00000000
     atom   13 type  1   force =     0.00000000    0.00000000    0.00000000
     atom   14 type  1   force =     0.00000000    0.00000000    0.00000000
     atom   15 type  1   force =     0.00000000    0.00000000    0.00000000
     atom   16 type  1   force =     0.00000000    0.00000000    0.00000000
     atom   17 type  1   force =     0.00000000    0.00000000    0.00000000
     atom   18 type  1   force =     0.00000000    0.00000000    0.00000000
     atom   19 type  1   force =     0.00000000    0.00000000    0.00000000
     atom   20 type  1   force =     0.00000000    0.00000000    0.00000000
     atom   21 type  1   force =     0.00000000    0.00000000    0.00000000
     atom   22 type  1   force =     0.00000000    0.00000000    0.00000000
     atom   23 type  1   force =     0.00000000    0.00000000    0.00000000
     atom   24 type  1   force =     0.00000000    0.00000000    0.00000000
     atom   25 type  1   force =     0.00000000    0.00000000    0.00000000
     atom   26 type  1   force =     0.00000000    0.00000000    0.00000000
     atom   27 type  1   force =     0.00000000    0.00000000    0.00000000
     atom   28 type  1   force =     0.00000000    0.00000000    0.00000000
     atom   29 type  1   force =     0.00000000    0.00000000    0.00000000
     atom   30 type  1   force =     0.00000000    0.00000000    0.00000000
     atom   31 type  1   force =     0.00000000    0.00000000    0.00000000
     atom   32 type  1   force =     0.00000000    0.00000000    0.00000000
     atom   33 type  1   force =     0.00000000    0.00000000    0.00000000
     atom   34 type  1   force =     0.00000000    0.00000000    0.00000000
     atom   35 type  1   force =     0.00000000    0.00000000    0.00000000
     atom   36 type  1   force =     0.00000000    0.00000000    0.00000000
     atom   37 type  1   force =     0.00000000    0.00000000    0.00000000
     atom   38 type  1   force =     0.00000000    0.00000000    0.00000000
     atom   39 type  1   force =     0.00000000    0.00000000    0.00000000
     atom   40 type  1   force =     0.00000000    0.00000000    0.00000000
     atom   41 type  1   force =     0.00000000    0.00000000    0.00000000
     atom   42 type  1   force =     0.00000000    0.00000000    0.00000000
     atom   43 type  1   force =     0.00000000    0.00000000    0.00000000
     atom   44 type  1   force =     0.00000000    0.00000000    0.00000000
     atom   45 type  1   force =     0.00000000    0.00000000    0.00000000
     atom   46 type  1   force =     0.00000000    0.00000000    0.00000000
     atom   47 type  1   force =     0.00000000    0.00000000    0.00000000
     atom   48 type  1   force =     0.00000000    0.00000000    0.00000000
     atom   49 type  1   force =     0.00000000    0.00000000    0.00000000
     atom   50 type  1   force =     0.00000000    0.00000000    0.00000000
     atom   51 type  1   force =     0.00000000    0.00000000    0.00000000
     atom   52 type  1   force =     0.00000000    0.00000000    0.00000000
     atom   53 type  1   force =     0.00000000    0.00000000    0.00000000
     atom   54 type  1   force =     0.00000000    0.00000000    0.00000000
     atom   55 type  1   force =     0.00000000    0.00000000    0.00000000
     atom   56 type  1   force =     0.00000000    0.00000000    0.00000000
     atom   57 type  1   force =     0.00000000    0.00000000    0.00000000
     atom   58 type  1   force =     0.00000000    0.00000000    0.00000000
     atom   59 type  1   force =     0.00000000    0.00000000    0.00000000
     atom   60 type  1   force =     0.00000000    0.00000000    0.00000000
     atom   61 type  1   force =     0.00000000    0.00000000    0.00000000
     atom   62 type  1   force =     0.00000000    0.00000000    0.00000000
     atom   63 type  1   force =     0.00000000    0.00000000    0.00000000
     The SCF correction term to forces
     atom    1 type  1   force =     0.00001110   -0.00001110   -0.00000123
     atom    2 type  1   force =     0.00001110    0.00000123    0.00001110
     atom    3 type  1   force =     0.00001587    0.00001291   -0.00001291
     atom    4 type  1   force =    -0.00000123   -0.00001110    0.00001110
     atom    5 type  1   force =    -0.00001291   -0.00001587   -0.00001291
     atom    6 type  1   force =    -0.00001291    0.00001291    0.00001587
     atom    7 type  1   force =    -0.00001701    0.00001701   -0.00001701
     atom    8 type  1   force =    -0.00000533    0.00000723    0.00001073
     atom    9 type  1   force =     0.00001066    0.00001600   -0.00000905
     atom   10 type  1   force =     0.00000401   -0.00000401   -0.00000074
     atom   11 type  1   force =     0.00001453   -0.00001453    0.00000433
     atom   12 type  1   force =     0.00000475   -0.00000475    0.00000942
     atom   13 type  1   force =    -0.00000886    0.00000886   -0.00001163
     atom   14 type  1   force =    -0.00000723    0.00000533    0.00001073
     atom   15 type  1   force =    -0.00001600   -0.00001066   -0.00000905
     atom   16 type  1   force =    -0.00001412   -0.00001821    0.00001821
     atom   17 type  1   force =     0.00000595    0.00000771   -0.00000192
     atom   18 type  1   force =     0.00000595    0.00000192   -0.00000771
     atom   19 type  1   force =     0.00002191   -0.00001070    0.00001070
     atom   20 type  1   force =    -0.00000197   -0.00000736    0.00000736
     atom   21 type  1   force =    -0.00001011   -0.00000203   -0.00000490
     atom   22 type  1   force =    -0.00001011    0.00000490    0.00000203
     atom   23 type  1   force =    -0.00002118    0.00000119   -0.00000119
     atom   24 type  1   force =     0.00000401    0.00000074    0.00000401
     atom   25 type  1   force =    -0.00000533   -0.00001073   -0.00000723
     atom   26 type  1   force =     0.00001453   -0.00000433    0.00001453
     atom   27 type  1   force =     0.00001066    0.00000905   -0.00001600
     atom   28 type  1   force =    -0.00000723   -0.00001073   -0.00000533
     atom   29 type  1   force =     0.00000475   -0.00000942    0.00000475
     atom   30 type  1   force =    -0.00001600    0.00000905    0.00001066
     atom   31 type  1   force =    -0.00000886    0.00001163   -0.00000886
     atom   32 type  1   force =     0.00001821    0.00001412    0.00001821
     atom   33 type  1   force =    -0.00000771   -0.00000595   -0.00000192
     atom   34 type  1   force =     0.00000736    0.00000197    0.00000736
     atom   35 type  1   force =     0.00000203    0.00001011   -0.00000490
     atom   36 type  1   force =    -0.00000192   -0.00000595   -0.00000771
     atom   37 type  1   force =     0.00001070   -0.00002191    0.00001070
     atom   38 type  1   force =    -0.00000490    0.00001011    0.00000203
     atom   39 type  1   force =    -0.00000119    0.00002118   -0.00000119
     atom   40 type  1   force =     0.00001073    0.00000723   -0.00000533
     atom   41 type  1   force =     0.00000942   -0.00000475    0.00000475
     atom   42 type  1   force =    -0.00000074   -0.00000401    0.00000401
     atom   43 type  1   force =     0.00001073    0.00000533   -0.00000723
     atom   44 type  1   force =    -0.00000905    0.00001600    0.00001066
     atom   45 type  1   force =    -0.00001163    0.00000886   -0.00000886
     atom   46 type  1   force =     0.00000433   -0.00001453    0.00001453
     atom   47 type  1   force =    -0.00000905   -0.00001066   -0.00001600
     atom   48 type  1   force =     0.00001821   -0.00001821   -0.00001412
     atom   49 type  1   force =     0.00000736   -0.00000736   -0.00000197
     atom   50 type  1   force =    -0.00000771    0.00000192    0.00000595
     atom   51 type  1   force =     0.00000203    0.00000490   -0.00001011
     atom   52 type  1   force =    -0.00000192    0.00000771    0.00000595
     atom   53 type  1   force =    -0.00000490   -0.00000203   -0.00001011
     atom   54 type  1   force =     0.00001070   -0.00001070    0.00002191
     atom   55 type  1   force =    -0.00000119    0.00000119   -0.00002118
     atom   56 type  1   force =     0.00000708   -0.00000708    0.00000708
     atom   57 type  1   force =     0.00000862   -0.00000862    0.00000389
     atom   58 type  1   force =     0.00000862   -0.00000389    0.00000862
     atom   59 type  1   force =     0.00001291    0.00000780   -0.00000780
     atom   60 type  1   force =     0.00000389   -0.00000862    0.00000862
     atom   61 type  1   force =    -0.00000780   -0.00001291   -0.00000780
     atom   62 type  1   force =    -0.00000780    0.00000780    0.00001291
     atom   63 type  1   force =    -0.00001424    0.00001424   -0.00001424

     Total force =     0.002469     Total SCF correction =     0.000141


     Computing stress (Cartesian axis) and pressure



     -----------------------------------------------
     Non-local corr. energy    =       2.16556184 Ry
     -----------------------------------------------

          total   stress  (Ry/bohr**3)                   (kbar)     P=      -70.78
  -0.00048115   0.00000018  -0.00000018          -70.78        0.03       -0.03
   0.00000018  -0.00048115   0.00000018            0.03      -70.78        0.03
  -0.00000018   0.00000018  -0.00048115           -0.03        0.03      -70.78

     kinetic stress (kbar)  18563.81      0.05     -0.05
                                0.05  18563.81      0.05
                               -0.05      0.05  18563.81

     local   stress (kbar)  -3809.76      0.56     -0.56
                                0.56  -3809.77      0.56
                               -0.56      0.56  -3809.76

     nonloc. stress (kbar)   4279.59     -0.01      0.01
                               -0.01   4279.59     -0.01
                                0.01     -0.01   4279.59

     hartree stress (kbar)   1386.29     -0.15      0.15
                               -0.15   1386.29     -0.15
                                0.15     -0.15   1386.29

     exc-cor stress (kbar)   -380.85     -0.01      0.01
                               -0.01   -380.85     -0.01
                                0.01     -0.01   -380.85

     corecor stress (kbar)  -4363.07      0.02     -0.02
                                0.02  -4363.07      0.02
                               -0.02      0.02  -4363.07

     ewald   stress (kbar) -15771.42     -0.43      0.43
                               -0.43 -15771.42     -0.43
                                0.43     -0.43 -15771.42

     hubbard stress (kbar)      0.00      0.00      0.00
                                0.00      0.00      0.00
                                0.00      0.00      0.00

     DFT-D   stress (kbar)      0.00      0.00      0.00
                                0.00      0.00      0.00
                                0.00      0.00      0.00

     XDM     stress (kbar)      0.00      0.00      0.00
                                0.00      0.00      0.00
                                0.00      0.00      0.00

     dft-nl  stress (kbar)     24.63      0.00     -0.00
                                0.00     24.63      0.00
                               -0.00      0.00     24.63

     TS-vdW  stress (kbar)      0.00      0.00      0.00
                                0.00      0.00      0.00
                                0.00      0.00      0.00

     MDB     stress (kbar)      0.00      0.00      0.00
                                0.00      0.00      0.00
                                0.00      0.00      0.00

     3D-RISM stress (kbar)      0.00      0.00      0.00
                                0.00      0.00      0.00
                                0.00      0.00      0.00



     -----------------------------------------------
     Non-local corr. energy    =       2.16556184 Ry
     -----------------------------------------------



     -----------------------------------------------
     Non-local corr. energy    =       2.16556184 Ry
     -----------------------------------------------



     -----------------------------------------------
     Non-local corr. energy    =       2.16556184 Ry
     -----------------------------------------------



     -----------------------------------------------
     Non-local corr. energy    =       2.16556184 Ry
     -----------------------------------------------



     -----------------------------------------------
     Non-local corr. energy    =       2.16556184 Ry
     -----------------------------------------------



     -----------------------------------------------
     Non-local corr. energy    =       2.16556184 Ry
     -----------------------------------------------



     -----------------------------------------------
     Non-local corr. energy    =       2.16556184 Ry
     -----------------------------------------------



     -----------------------------------------------
     Non-local corr. energy    =       2.16556184 Ry
     -----------------------------------------------



     -----------------------------------------------
     Non-local corr. energy    =       2.16556184 Ry
     -----------------------------------------------



     -----------------------------------------------
     Non-local corr. energy    =       2.16556184 Ry
     -----------------------------------------------



     -----------------------------------------------
     Non-local corr. energy    =       2.16556184 Ry
     -----------------------------------------------



     -----------------------------------------------
     Non-local corr. energy    =       2.16556184 Ry
     -----------------------------------------------



     -----------------------------------------------
     Non-local corr. energy    =       2.16556184 Ry
     -----------------------------------------------



     -----------------------------------------------
     Non-local corr. energy    =       2.16556184 Ry
     -----------------------------------------------



     -----------------------------------------------
     Non-local corr. energy    =       2.16556184 Ry
     -----------------------------------------------



     -----------------------------------------------
     Non-local corr. energy    =       2.16556184 Ry
     -----------------------------------------------



     -----------------------------------------------
     Non-local corr. energy    =       2.16556184 Ry
     -----------------------------------------------



     -----------------------------------------------
     Non-local corr. energy    =       2.16556184 Ry
     -----------------------------------------------



     -----------------------------------------------
     Non-local corr. energy    =       2.16556184 Ry
     -----------------------------------------------



     -----------------------------------------------
     Non-local corr. energy    =       2.16556184 Ry
     -----------------------------------------------



     -----------------------------------------------
     Non-local corr. energy    =       2.16556184 Ry
     -----------------------------------------------



     -----------------------------------------------
     Non-local corr. energy    =       2.16556184 Ry
     -----------------------------------------------



     -----------------------------------------------
     Non-local corr. energy    =       2.16556184 Ry
     -----------------------------------------------



     -----------------------------------------------
     Non-local corr. energy    =       2.16556184 Ry
     -----------------------------------------------



     -----------------------------------------------
     Non-local corr. energy    =       2.16556184 Ry
     -----------------------------------------------



     -----------------------------------------------
     Non-local corr. energy    =       2.16556184 Ry
     -----------------------------------------------



     -----------------------------------------------
     Non-local corr. energy    =       2.16556184 Ry
     -----------------------------------------------



     -----------------------------------------------
     Non-local corr. energy    =       2.16556184 Ry
     -----------------------------------------------



     -----------------------------------------------
     Non-local corr. energy    =       2.16556184 Ry
     -----------------------------------------------



     -----------------------------------------------
     Non-local corr. energy    =       2.16556184 Ry
     -----------------------------------------------



     -----------------------------------------------
     Non-local corr. energy    =       2.16556184 Ry
     -----------------------------------------------



     -----------------------------------------------
     Non-local corr. energy    =       2.16556184 Ry
     -----------------------------------------------



     -----------------------------------------------
     Non-local corr. energy    =       2.16556184 Ry
     -----------------------------------------------



     -----------------------------------------------
     Non-local corr. energy    =       2.16556184 Ry
     -----------------------------------------------

 BEEFens 2000 ensemble energies
             -0.222962972917992E+02
[...]
             -0.827668052141020E+01
              0.181967191542183E+02
              0.473153017584500E+01
             -0.283578391686420E+02
              0.110246174664127E+02
              0.207689375143615E+01
              0.319821986708320E+01
             -0.167464949131646E+02
              0.265284449614873E+01
              0.120954104949057E+02
              0.160302107915531E+02
              0.225804250440174E+02
              0.112563280984445E+02
              0.318635549169760E+01
             -0.187682338948633E+02
             -0.147658406775451E+02
             -0.231369403170456E+02
             -0.433410915846542E+01
              0.111006243437230E+02
              0.713754373089422E+00
              0.181387015213050E+02
             -0.110765684221689E+02
              0.677417785008666E+01
             -0.676114828934436E+01
             -0.913597621642352E+01
              0.201967167582144E+02
              0.190353691163315E+01
              0.215716811942531E+02
              0.158851460630822E+01
              0.692850764189465E+01
             -0.628234500589627E+01
              0.213306847535266E+02
             -0.492317498002124E+01
             -0.534066131726271E+00
             -0.271854575777923E+02
             -0.249218816825065E+01
              0.242753347550590E+02
              0.223146026753046E+02
              0.918338107942432E+01
             -0.644770533401450E+01
              0.158428340680614E+01
             -0.794280038817668E+01
             -0.628410179502851E+01
              0.313795567954308E+02
              0.239548296077464E+01
             -0.100401195133729E+02
             -0.373976370691773E+02
             -0.156218869752376E+02
             -0.129346008555041E+02
             -0.221657564817921E+02
             -0.198708768886357E+02
             -0.243292370977204E+02
             -0.153510446713082E+02
             -0.101424535051966E+02
             -0.172062160165219E+02
              0.151902097105072E+02
             -0.654982636919775E+01
             -0.302272019721371E+02
              0.137731297787089E+02
             -0.107390539545277E+02
             -0.281891900249335E+02
              0.346971824479474E+02
             -0.865512138880819E+01
              0.565019980587898E+01
              0.130707685332627E+02
              0.325726227389474E+01
              0.921196111488587E+01
              0.618523027528916E+00
              0.582165951724115E+00
             -0.382653034560263E+01
             -0.248161460362993E+02
              0.366436990792726E+01
             -0.419308556656338E+02
              0.242949424519839E+02
             -0.140612619371558E+02
             -0.706654815395325E+01
             -0.787939694245776E+01
              0.651192846946581E+01
             -0.547944537302033E+01
              0.102349494157786E+02
             -0.207059837014024E+02
              0.120697776135502E+02
              0.138005628062104E+02
              0.365906396369346E+01
              0.243093362423934E+01
              0.741329567235253E+01
              0.363497542940522E+01
              0.102802887852731E+02
             -0.119772812082239E+01
             -0.251787909983677E+02
              0.307564662223612E+01
             -0.108442272548896E+02
             -0.102497950948280E+01
              0.187259451609222E+02
             -0.272012987030199E+02
             -0.294050663701597E+00
              0.125258840327953E+01
              0.323677142290984E+01
              0.108997149424965E+02
             -0.396759308595550E+01
              0.296704936655152E+02
              0.135009720433840E+02
             -0.565566900287824E+01
             -0.351831501233679E+01
              0.203283248954112E+01
              0.273889075003826E+02
             -0.180542697275071E+02
             -0.352263873886475E+02
              0.952321623938249E+01
             -0.309889402497579E+01
             -0.438367920672984E+01
              0.681412689512059E+01
              0.265283821748573E+02
              0.147249834022990E+02
             -0.572975057230673E+01
             -0.185272123623618E+02
             -0.409949401070779E+01
              0.971728896275118E+01
             -0.589361690775820E+01
             -0.265110897892274E+02
             -0.275324238939117E+01
             -0.337940796204808E+02
             -0.185163461990794E+02
              0.295911716366018E+02
             -0.178316940139724E+02
             -0.245093555634925E+02
             -0.175717159035608E+02
             -0.135979208839813E+02
              0.109559145011299E+02
              0.295976200941133E+02
             -0.267065461075232E+01
              0.934400196571995E+01
             -0.707973363115963E+01
             -0.241578210518799E+02
              0.167388161965865E+02
             -0.165426100128247E+02
              0.876979044939787E+01
              0.108402671238301E+02
             -0.517463724313140E+01
              0.132032912405148E+02
              0.138833988469623E+02
              0.410301952010350E+02
             -0.356484190705280E+01
             -0.191761117646742E+02
             -0.230672398328379E+02
             -0.719379494576835E+01
             -0.133814756180560E+02
              0.321647769389866E+02
             -0.145119515481188E+02
              0.421211641028505E+01
              0.129259692354827E+01
             -0.706363858961284E+01
             -0.294098468747192E+02
             -0.190804782225364E+01
              0.346390514718569E+02
              0.735978385064367E+01
              0.275289050450871E+01
             -0.205505438579901E+02
             -0.200711618827557E+02
             -0.617916814250154E+01
              0.160835035031320E+02
             -0.873961264940935E+01
              0.355303362630255E+02
             -0.155274502935501E+02
              0.703170060278403E+01
             -0.523285906108532E+01
             -0.219474384479078E+02
              0.232371779399315E+01
             -0.193103017261867E+02
             -0.261121517715973E+02
              0.385706463402482E+01
              0.100424566369713E+01
              0.173742076783817E+02
              0.929302616937703E+01
             -0.115988288900037E+02
              0.753945255157620E+01
             -0.303625356975534E+02
             -0.170593625396010E+02
              0.319820810075583E+02
              0.264663012951795E+01
             -0.214839650905077E+01
             -0.930617214365387E+01
             -0.270385907354608E+00
             -0.425448869305941E+01
              0.304438174051245E+02
              0.136771501749541E+02
             -0.359180081066503E+01
             -0.297919032427359E+00
             -0.134324879668261E+02
             -0.515449891955447E+01
             -0.222161675833503E+02
              0.169021418983741E+02
              0.184772373755041E+01
              0.275551784149752E+01
              0.663840422334079E+01
             -0.416345079323070E+01
             -0.759252262981353E+01
              0.272916446525300E+01
             -0.388199878970366E+02
             -0.371614646816133E+01
             -0.282161254522926E+01
             -0.227355841304790E+01
              0.179164302984443E+02
              0.221994126716283E+02
              0.638249374391052E+01
             -0.327431591272444E+02
              0.226378248851352E+02
             -0.816624602220395E+01
             -0.132431805219861E+02
             -0.307241056254173E+02
             -0.940962412191041E+01
              0.217167952267263E+02
              0.102544003697680E+02
              0.424196870427792E+01
              0.121524924638164E+02
             -0.195831449826820E+02
             -0.172789017807870E+02
              0.207215503668125E+02
              0.145784543428671E+02
              0.168978473597923E+02
              0.207357472200650E+01
              0.294825344158923E+01
              0.187301180752685E+02
              0.344267406761432E+02
             -0.661573993413041E+01
              0.136206347631350E+02
             -0.935036090714428E+01
             -0.150121128013328E+02
             -0.116535944983950E+02
             -0.113781637359395E+02
             -0.506303259969746E+01
             -0.175304449711845E+02
             -0.681308507268392E+01
             -0.455101094553090E+02
              0.101546535511774E+02
              0.984008971877162E+01
             -0.126740026284919E+01
             -0.133235607238886E+02
             -0.697030606240500E+01
             -0.196808807998219E+02
              0.158902831338744E+01
              0.276485209451838E+02
             -0.682371766251416E+01
             -0.626454461495329E+01
              0.734163811654605E+01
             -0.168472697057417E+02
              0.297016132265087E+02
              0.529167846612446E+01
              0.316732893246154E+01
              0.184468369974626E+02
             -0.116650449450182E+01
              0.207135589299616E+02
              0.683115377139379E+01
             -0.673620016772112E+00
              0.482318340930159E+01
             -0.199008511786187E+01
              0.235257809248095E+02
              0.200016660718424E+01
              0.678807469562636E+01
             -0.274351200962781E+01
              0.357234576086928E+01
             -0.329074637866334E+02
             -0.121569143226981E+02
             -0.173697540989106E+02
              0.176953459687080E+02
             -0.120179734919046E+02
             -0.198572332382359E+02
              0.210215047073663E+02
             -0.475366626716865E+01
              0.142274165747042E+02
             -0.314413716318336E+02
              0.592821165126403E+01
              0.215375256658059E+01
              0.251017501257456E+01
             -0.468530851039236E+01
             -0.246788178004294E+01
              0.170848351805864E+02
              0.962910996997223E+00
             -0.187249025536812E+02
             -0.676117017012595E+01
              0.733951267881149E+01
             -0.394472586866441E+02
             -0.303801539121939E+02
              0.340624683278648E+00
              0.577250760218525E+01
             -0.166522962718897E+02
              0.444905351276006E+00
              0.361665551916631E+02
              0.109386437107098E+02
             -0.185849376001271E+02
              0.317492696905005E+01
             -0.429140024932915E+01
              0.364126120994867E+01
             -0.121509929537567E+02
              0.767751787298018E+01
              0.852498627889608E+01
             -0.359895935761983E+01
              0.395613970473984E+02
             -0.113748547201860E+01
             -0.110035519310713E+02
              0.107457388877158E+02
              0.147971175247918E+02
             -0.108132053245574E+02
             -0.772148485687339E+00
              0.335706712391131E+02
             -0.686901964128310E+00
              0.189883986043440E+02
              0.543085607454351E+01
             -0.295013006872016E+01
             -0.621883475706758E+01
              0.176340937735968E+02
             -0.210613965086572E+02
             -0.354864598018480E+00
             -0.697590963032484E+01
             -0.137751145805949E+02
              0.402032897978370E+01
              0.807833922424364E+01
             -0.935678173109977E-01
             -0.278016210169881E+00
             -0.148912192748364E+02
              0.635274623827084E+01
             -0.333574436099255E+00
             -0.836951574309294E+01
             -0.714962362573849E+01
              0.626724661445485E+01
              0.636872824598839E+00
             -0.133192151540794E+02
             -0.370821757744266E+02
              0.280012114358441E+01
              0.518292916014489E+01
             -0.170101884638689E+02
             -0.843143233318369E+01
              0.284356326558755E+02
              0.426066180759952E+01
              0.153952208453318E+02
              0.389454423355124E+01
              0.143030848842490E+02
              0.658583688515165E+00
             -0.139842631917186E+02
             -0.358513670010328E+01
              0.198374844517701E+01
              0.111242010976024E+02
              0.266462621721217E+02
              0.175389807510474E+02
              0.112641718900998E+01
              0.349816397106899E+01
              0.209092062357834E+02
              0.100091547244192E+02
             -0.242806614373406E+02
             -0.959423072234719E+01
              0.324093225821053E+01
              0.362672665452905E+01
              0.936349536155265E+01
             -0.179710835735408E+02
              0.246536699403465E+01
              0.140830172743990E+02
              0.174660519237895E+02
             -0.154244618640338E+02
              0.937523620588877E+00
             -0.113658692889643E+01
             -0.738354274844046E+01
             -0.100361432907035E+02
             -0.456902203541615E+01
             -0.385060497024202E+01
              0.373202105026701E+01
              0.146325142026898E+02
             -0.122940657904776E+02
              0.279417077265982E+02
              0.123904118646065E+02
              0.874577098949332E+01
              0.119274308228547E+02
              0.891151455967143E+01
              0.118305651324441E+02
              0.194818082365644E+02
             -0.162625294827844E+02
              0.216138951473192E+02
             -0.392481824999714E+02
              0.111747125682094E+02
             -0.370715965454776E+02
              0.289484160094284E+02
              0.269294638962870E+02
             -0.326830001455710E+01
             -0.165972656065486E+02
             -0.145839271843176E+02
             -0.190020784194998E+02
             -0.227031103244717E+02
              0.190097701201010E+02
              0.150370414232197E+02
              0.895981620136769E+01
              0.921854082048398E+01
              0.160951865628940E+02
             -0.142782773279941E+02
             -0.555543573455722E+01
              0.179291506819128E+02
             -0.354706711712454E+01
              0.170102145417101E+02
              0.269307235537872E+02
             -0.103001650111804E+01
             -0.261158988695031E+02
              0.789548572521824E+00
              0.327392775137493E+00
             -0.390783343431093E+01
              0.170195849937971E+01
             -0.223966868702665E+02
             -0.371216828826771E+01
              0.398139820958229E+01
              0.430766706732524E+01
              0.175153745711231E+02
             -0.151943346029574E+02
              0.181951520348226E+02
             -0.135542274730934E+02
              0.910405889138413E+01
              0.150339415821631E+02
 
 BEEF-vdW xc energy contributions
            1 :    -256.5539665780543     
            2 :     226.1159111151158     
            3 :    -173.6926297139084     
            4 :     112.9759213814519     
            5 :    -57.89504937908146     
            6 :     17.98814947617166     
            7 :     3.986715593156134     
            8 :    -11.47159141396514     
            9 :     11.21662566863262     
           10 :    -9.682878583548700     
           11 :     10.43963489497702     
           12 :    -13.53193421189553     
           13 :     16.69968252493595     
           14 :    -17.45350858967612     
           15 :     14.76729451327049     
           16 :    -9.572348638118342     
           17 :     4.018324512270965     
           18 :   -0.1385119244248472     
           19 :    -1.222863275259726     
           20 :    0.6502687731309607     
           21 :    0.4456794250612575     
           22 :   -0.7982811753045098     
           23 :    5.2367044793300010E-003
           24 :     1.383614302757223     
           25 :    -2.369430149419827     
           26 :     2.212892353282484     
           27 :   -0.8917955856511526     
           28 :   -0.9387415232931744     
           29 :     2.398349132158842     
           30 :    -2.920457113442126     
           31 :    -33.59352706057643     
           32 :    -24.32140280297108     

     Writing all to output data dir ./diamond.save/
 
     init_run     :      1.05s CPU      1.13s WALL (       1 calls)
     electrons    :      4.60s CPU      5.55s WALL (       1 calls)
     forces       :      0.33s CPU      0.35s WALL (       1 calls)
     stress       :      2.24s CPU      2.27s WALL (       1 calls)

     Called by init_run:
     wfcinit      :      0.12s CPU      0.14s WALL (       1 calls)
     potinit      :      0.44s CPU      0.47s WALL (       1 calls)
     hinit0       :      0.13s CPU      0.14s WALL (       1 calls)

     Called by electrons:
     c_bands      :      4.13s CPU      4.94s WALL (       2 calls)
     sum_band     :      0.20s CPU      0.20s WALL (       2 calls)
     v_of_rho     :      0.51s CPU      0.54s WALL (       2 calls)
     v_h          :      0.00s CPU      0.00s WALL (       2 calls)
     v_xc         :      4.59s CPU      4.70s WALL (      38 calls)
     newd         :      0.01s CPU      0.01s WALL (       2 calls)
     PAW_pot      :      0.08s CPU      0.08s WALL (       2 calls)
     mix_rho      :      0.00s CPU      0.00s WALL (       2 calls)
     vdW_kernel   :      0.26s CPU      0.26s WALL (       1 calls)

     Called by c_bands:
     init_us_2    :      0.01s CPU      0.01s WALL (       4 calls)
     init_us_2:cp :      0.01s CPU      0.01s WALL (       4 calls)
     cegterg      :      3.63s CPU      3.69s WALL (       2 calls)

     Called by sum_band:
     sum_band:wei :      0.00s CPU      0.00s WALL (       2 calls)
     sum_band:loo :      0.15s CPU      0.16s WALL (       2 calls)
     sum_band:buf :      0.00s CPU      0.00s WALL (       2 calls)
     sum_band:ini :      0.01s CPU      0.01s WALL (       2 calls)
     sum_band:cal :      0.05s CPU      0.05s WALL (       2 calls)
     sum_band:bec :      0.00s CPU      0.00s WALL (       2 calls)
     addusdens    :      0.01s CPU      0.01s WALL (       2 calls)
                                        0.00s GPU  (       2 calls)
     addusd:skk   :      0.00s CPU      0.00s WALL (       2 calls)
                                        0.00s GPU  (       2 calls)

     Called by *egterg:
     cdiaghg      :      2.19s CPU      2.21s WALL (      20 calls)
     cegterg:over :      0.19s CPU      0.19s WALL (      20 calls)
     cegterg:upda :      0.18s CPU      0.19s WALL (      20 calls)
     cegterg:last :      0.03s CPU      0.03s WALL (       2 calls)
     h_psi        :      0.82s CPU      0.84s WALL (      22 calls)
     s_psi        :      0.13s CPU      0.13s WALL (      22 calls)
     g_psi        :      0.00s CPU      0.00s WALL (      20 calls)

     Called by h_psi:
     h_psi:calbec :      0.21s CPU      0.21s WALL (      22 calls)
     vloc_psi     :      0.43s CPU      0.44s WALL (      22 calls)
     add_vuspsi   :      0.17s CPU      0.18s WALL (      22 calls)

     General routines
     calbec       :      0.39s CPU      0.40s WALL (      29 calls)
     fft          :      1.89s CPU      1.92s WALL (    2232 calls)
     ffts         :      0.00s CPU      0.00s WALL (       4 calls)
     fftw         :      0.47s CPU      0.48s WALL (    1854 calls)
     interpolate  :      0.00s CPU      0.00s WALL (       2 calls)
 
     Parallel routines

     PAW routines
     PAW_pot      :      0.08s CPU      0.08s WALL (       2 calls)
     PAW_symme    :      0.00s CPU      0.00s WALL (       3 calls)
 
     PWSCF        :     12.35s CPU     15.06s WALL

 
   This run was terminated on:  21:17:18  17Mar2024            

=------------------------------------------------------------------------------=
   JOB DONE.
=------------------------------------------------------------------------------=
