
     Program PWSCF v.7.1 starts on  9Mar2024 at 10:24:40 

     This program is part of the open-source Quantum ESPRESSO suite
     for quantum simulation of materials; please cite
         "P. Giannozzi et al., J. Phys.:Condens. Matter 21 395502 (2009);
         "P. Giannozzi et al., J. Phys.:Condens. Matter 29 465901 (2017);
         "P. Giannozzi et al., J. Chem. Phys. 152 154105 (2020);
          URL http://www.quantum-espresso.org", 
     in publications or presentations arising from this work. More details at
     http://www.quantum-espresso.org/quote

     Parallel version (MPI & OpenMP), running on     256 processor cores
     Number of MPI processes:               256
     Threads/MPI process:                     1

     MPI processes distributed on     2 nodes
     1831867 MiB available memory on the printing compute node when the environment starts
 
     Reading input from espresso.pwi
Warning: card &CELL ignored
Warning: card    CELL_DYNAMICS    = 'BFGS' ignored
Warning: card / ignored

     Current dimensions of program PWSCF are:
     Max number of different atomic species (ntypx) = 10
     Max number of k-points (npk) =  40000
     Max angular momentum in pseudopotentials (lmaxx) =  4
     file Pb.pbe-dn-kjpaw_psl.1.0.0.UPF: wavefunction(s)  6S 6P 5D renormalized
     file I.pbe-dn-kjpaw_psl.1.0.0.UPF: wavefunction(s)  5S 5P renormalized

     **************************************************************************
     Initializing libbeef V0.1.2 with the BEEF-vdW functional.
     Citation: Wellendorff et al., PRB 85, 235149 (2012).
     **************************************************************************


     IMPORTANT: XC functional enforced from input :
     Exchange-correlation= BEEF-VDW
                           (   1   4  43  14   2   0   0)
     Any further DFT definition will be discarded
     Please, verify this is what you really want

 
     R & G space division:  proc/nbgrp/npool/nimage =     256
     WARNING: too many processors for an effective parallelization!
     wavefunctions fft division:  task group distribution
                                  #TG    x Z-proc =       8     32
     Subspace diagonalization in iterative solution of the eigenvalue problem:
     a serial algorithm will be used

 
     Parallelization info
     --------------------
     sticks:   dense  smooth     PW     G-vecs:    dense   smooth      PW
     Min         119      95     23                19837    14191    1763
     Max         120      96     24                19846    14206    1780
     Sum       30589   24439   6121              5079105  3634441  454335
 
     Using Pencil Decomposition
 


     bravais-lattice index     =            4
     lattice parameter (alat)  =      35.6120  a.u.
     unit-cell volume          =   45937.3577 (a.u.)^3
     number of atoms/cell      =          144
     number of atomic types    =            2
     number of electrons       =      2300.00
     number of Kohn-Sham states=         1380
     kinetic-energy cutoff     =      70.0000  Ry
     charge density cutoff     =     350.0000  Ry
     scf convergence threshold =      1.0E-07
     mixing beta               =       0.7000
     number of iterations used =            8  plain     mixing
     energy convergence thresh.=      1.0E-04
     force convergence thresh. =      1.0E-03
     Exchange-correlation= BEEF-VDW
                           (   1   4  43  14   2   0   0)
     nstep                     =           50


     celldm(1)=  35.612033  celldm(2)=   0.000000  celldm(3)=   1.174479
     celldm(4)=   0.000000  celldm(5)=   0.000000  celldm(6)=   0.000000

     crystal axes: (cart. coord. in units of alat)
               a(1) = (   1.000000   0.000000   0.000000 )  
               a(2) = (  -0.500000   0.866025   0.000000 )  
               a(3) = (   0.000000   0.000000   1.174479 )  

     reciprocal axes: (cart. coord. in units 2 pi/alat)
               b(1) = (  1.000000  0.577350 -0.000000 )  
               b(2) = (  0.000000  1.154701  0.000000 )  
               b(3) = (  0.000000 -0.000000  0.851442 )  


     PseudoPot. # 1 for Pb read from file:
     /trace/group/acmegroup/atimmins/packages/espresso/pseudo/psl_1.0.0/pslibrary.1.0.0/pbe/PSEUDOPOTENTIALS/Pb.pbe-dn-kjpaw_psl.1.0.0.UPF
     MD5 check sum: 39ab5b8a6bbd56b7735ad9f188aac93a
     Pseudo is Projector augmented-wave + core cor, Zval = 14.0
     Generated using 'atomic' code by A. Dal Corso  v.7.1
     Shape of augmentation charge: PSQ
     Using radial grid of 1281 points,  6 beta functions with: 
                l(1) =   0
                l(2) =   0
                l(3) =   1
                l(4) =   1
                l(5) =   2
                l(6) =   2
     Q(r) pseudized with 0 coefficients 


     PseudoPot. # 2 for I  read from file:
     /trace/group/acmegroup/atimmins/packages/espresso/pseudo/psl_1.0.0/pslibrary.1.0.0/pbe/PSEUDOPOTENTIALS/I.pbe-dn-kjpaw_psl.1.0.0.UPF
     MD5 check sum: bfa8781bc1224d19af3f3980e3fab11e
     Pseudo is Projector augmented-wave + core cor, Zval = 17.0
     Generated using 'atomic' code by A. Dal Corso  v.7.1
     Shape of augmentation charge: PSQ
     Using radial grid of 1247 points,  6 beta functions with: 
                l(1) =   0
                l(2) =   0
                l(3) =   1
                l(4) =   1
                l(5) =   2
                l(6) =   2
     Q(r) pseudized with 0 coefficients 


     atomic species   valence    mass     pseudopotential
        Pb            14.00   207.20000     Pb( 1.00)
        I             17.00   126.90447     I ( 1.00)

     No symmetry found


                                    s                        frac. trans.

      isym =  1     identity                                     

 cryst.   s( 1) = (     1          0          0      )
                  (     0          1          0      )
                  (     0          0          1      )

 cart.    s( 1) = (  1.0000000  0.0000000  0.0000000 )
                  (  0.0000000  1.0000000  0.0000000 )
                  (  0.0000000  0.0000000  1.0000000 )


     point group C_1 (1)    
     there are  1 classes
     the character table:

       E    
A      1.00

     the symmetry operations in each class and the name of the first element:

     E        1
          identity                                               

   Cartesian axes

     site n.     atom                  positions (alat units)
         1           Pb  tau(   1) = (   0.1250136   0.2164827   1.1744753  )
         2           Pb  tau(   2) = (   0.1250034   0.2164918   0.3914896  )
         3           Pb  tau(   3) = (   0.1250085   0.2164873   0.7829825  )
         4           Pb  tau(   4) = (   0.0000128   0.4329881   1.1744712  )
         5           Pb  tau(   5) = (   0.0000026   0.4329971   0.3914855  )
         6           Pb  tau(   6) = (   0.0000077   0.4329926   0.7829784  )
         7           Pb  tau(   7) = (  -0.1249881   0.6494934   1.1744671  )
         8           Pb  tau(   8) = (  -0.1249983   0.6495025   0.3914814  )
         9           Pb  tau(   9) = (  -0.1249932   0.6494980   0.7829742  )
        10           Pb  tau(  10) = (  -0.2499889   0.8659988   1.1744630  )
        11           Pb  tau(  11) = (  -0.2499991   0.8660078   0.3914773  )
        12           Pb  tau(  12) = (  -0.2499940   0.8660033   0.7829701  )
        13           Pb  tau(  13) = (   0.3750136   0.2164818   1.1744786  )
        14           Pb  tau(  14) = (   0.3750034   0.2164908   0.3914929  )
        15           Pb  tau(  15) = (   0.3750085   0.2164863   0.7829857  )
        16           Pb  tau(  16) = (   0.2500128   0.4329871   1.1744745  )
        17           Pb  tau(  17) = (   0.2500026   0.4329962   0.3914888  )
        18           Pb  tau(  18) = (   0.2500077   0.4329916   0.7829816  )
        19           Pb  tau(  19) = (   0.1250119   0.6494925   1.1744703  )
        20           Pb  tau(  20) = (   0.1250017   0.6495015   0.3914847  )
        21           Pb  tau(  21) = (   0.1250068   0.6494970   0.7829775  )
        22           Pb  tau(  22) = (   0.0000111   0.8659978   1.1744662  )
        23           Pb  tau(  23) = (   0.0000009   0.8660069   0.3914805  )
        24           Pb  tau(  24) = (   0.0000060   0.8660024   0.7829734  )
        25           Pb  tau(  25) = (   0.6250136   0.2164808   1.1744818  )
        26           Pb  tau(  26) = (   0.6250034   0.2164898   0.3914962  )
        27           Pb  tau(  27) = (   0.6250085   0.2164853   0.7829890  )
        28           Pb  tau(  28) = (   0.5000128   0.4329862   1.1744777  )
        29           Pb  tau(  29) = (   0.5000026   0.4329952   0.3914920  )
        30           Pb  tau(  30) = (   0.5000077   0.4329907   0.7829849  )
        31           Pb  tau(  31) = (   0.3750119   0.6494915   1.1744736  )
        32           Pb  tau(  32) = (   0.3750017   0.6495006   0.3914879  )
        33           Pb  tau(  33) = (   0.3750068   0.6494960   0.7829808  )
        34           Pb  tau(  34) = (   0.2500111   0.8659969   1.1744695  )
        35           Pb  tau(  35) = (   0.2500009   0.8660059   0.3914838  )
        36           Pb  tau(  36) = (   0.2500060   0.8660014   0.7829766  )
        37           Pb  tau(  37) = (   0.8750136   0.2164798   1.1744851  )
        38           Pb  tau(  38) = (   0.8750034   0.2164889   0.3914994  )
        39           Pb  tau(  39) = (   0.8750085   0.2164844   0.7829923  )
        40           Pb  tau(  40) = (   0.7500128   0.4329852   1.1744810  )
        41           Pb  tau(  41) = (   0.7500026   0.4329942   0.3914953  )
        42           Pb  tau(  42) = (   0.7500077   0.4329897   0.7829881  )
        43           Pb  tau(  43) = (   0.6250119   0.6494906   1.1744769  )
        44           Pb  tau(  44) = (   0.6250017   0.6494996   0.3914912  )
        45           Pb  tau(  45) = (   0.6250068   0.6494951   0.7829840  )
        46           Pb  tau(  46) = (   0.5000111   0.8659959   1.1744727  )
        47           Pb  tau(  47) = (   0.5000009   0.8660050   0.3914870  )
        48           Pb  tau(  48) = (   0.5000060   0.8660004   0.7829799  )
        49           I   tau(  49) = (   0.1250105   0.0721505   0.6824253  )
        50           I   tau(  50) = (   0.1250156   0.0721459   1.0739182  )
        51           I   tau(  51) = (   0.0000045   0.2886603   0.2909283  )
        52           I   tau(  52) = (   0.0000096   0.2886558   0.6824212  )
        53           I   tau(  53) = (   0.0000147   0.2886513   1.0739140  )
        54           I   tau(  54) = (  -0.1249963   0.5051657   0.2909242  )
        55           I   tau(  55) = (  -0.1249912   0.5051612   0.6824171  )
        56           I   tau(  56) = (  -0.1249861   0.5051566   1.0739099  )
        57           I   tau(  57) = (  -0.2499971   0.7216710   0.2909201  )
        58           I   tau(  58) = (  -0.2499920   0.7216665   0.6824129  )
        59           I   tau(  59) = (  -0.2499869   0.7216620   1.0739058  )
        60           I   tau(  60) = (   0.3750054   0.0721540   0.2909357  )
        61           I   tau(  61) = (   0.3750105   0.0721495   0.6824286  )
        62           I   tau(  62) = (   0.3750156   0.0721450   1.0739214  )
        63           I   tau(  63) = (   0.2500045   0.2886594   0.2909316  )
        64           I   tau(  64) = (   0.2500096   0.2886548   0.6824244  )
        65           I   tau(  65) = (   0.2500147   0.2886503   1.0739173  )
        66           I   tau(  66) = (   0.1250037   0.5051647   0.2909275  )
        67           I   tau(  67) = (   0.1250088   0.5051602   0.6824203  )
        68           I   tau(  68) = (   0.1250139   0.5051557   1.0739132  )
        69           I   tau(  69) = (   0.0000029   0.7216701   0.2909233  )
        70           I   tau(  70) = (   0.0000080   0.7216656   0.6824162  )
        71           I   tau(  71) = (   0.0000131   0.7216610   1.0739090  )
        72           I   tau(  72) = (   0.6250054   0.0721530   0.2909390  )
        73           I   tau(  73) = (   0.6250105   0.0721485   0.6824318  )
        74           I   tau(  74) = (   0.6250156   0.0721440   1.0739247  )
        75           I   tau(  75) = (   0.5000045   0.2886584   0.2909348  )
        76           I   tau(  76) = (   0.5000096   0.2886539   0.6824277  )
        77           I   tau(  77) = (   0.5000147   0.2886494   1.0739205  )
        78           I   tau(  78) = (   0.3750037   0.5051638   0.2909307  )
        79           I   tau(  79) = (   0.3750088   0.5051592   0.6824236  )
        80           I   tau(  80) = (   0.3750139   0.5051547   1.0739164  )
        81           I   tau(  81) = (   0.2500029   0.7216691   0.2909266  )
        82           I   tau(  82) = (   0.2500080   0.7216646   0.6824194  )
        83           I   tau(  83) = (   0.2500131   0.7216601   1.0739123  )
        84           I   tau(  84) = (   0.8750054   0.0721521   0.2909422  )
        85           I   tau(  85) = (   0.8750105   0.0721476   0.6824351  )
        86           I   tau(  86) = (   0.8750156   0.0721430   1.0739279  )
        87           I   tau(  87) = (   0.7500045   0.2886574   0.2909381  )
        88           I   tau(  88) = (   0.7500096   0.2886529   0.6824310  )
        89           I   tau(  89) = (   0.7500147   0.2886484   1.0739238  )
        90           I   tau(  90) = (   0.6250037   0.5051628   0.2909340  )
        91           I   tau(  91) = (   0.6250088   0.5051583   0.6824268  )
        92           I   tau(  92) = (   0.6250139   0.5051538   1.0739197  )
        93           I   tau(  93) = (   0.5000029   0.7216681   0.2909299  )
        94           I   tau(  94) = (   0.5000080   0.7216636   0.6824227  )
        95           I   tau(  95) = (   0.5000131   0.7216591   1.0739156  )
        96           I   tau(  96) = (  -0.0000017   0.1443297   0.1005555  )
        97           I   tau(  97) = (   0.0000034   0.1443252   0.4920483  )
        98           I   tau(  98) = (   0.0000085   0.1443207   0.8835412  )
        99           I   tau(  99) = (  -0.1250025   0.3608351   0.1005514  )
       100           I   tau( 100) = (  -0.1249974   0.3608306   0.4920442  )
       101           I   tau( 101) = (  -0.1249923   0.3608260   0.8835371  )
       102           I   tau( 102) = (  -0.2500034   0.5773404   0.1005472  )
       103           I   tau( 103) = (  -0.2499983   0.5773359   0.4920401  )
       104           I   tau( 104) = (  -0.2499932   0.5773314   0.8835329  )
       105           I   tau( 105) = (  -0.3750042   0.7938458   0.1005431  )
       106           I   tau( 106) = (  -0.3749991   0.7938413   0.4920360  )
       107           I   tau( 107) = (  -0.3749940   0.7938368   0.8835288  )
       108           I   tau( 108) = (   0.2499983   0.1443288   0.1005587  )
       109           I   tau( 109) = (   0.2500034   0.1443242   0.4920516  )
       110           I   tau( 110) = (   0.2500085   0.1443197   0.8835444  )
       111           I   tau( 111) = (   0.1249975   0.3608341   0.1005546  )
       112           I   tau( 112) = (   0.1250026   0.3608296   0.4920475  )
       113           I   tau( 113) = (   0.1250077   0.3608251   0.8835403  )
       114           I   tau( 114) = (  -0.0000034   0.5773395   0.1005505  )
       115           I   tau( 115) = (   0.0000017   0.5773350   0.4920433  )
       116           I   tau( 116) = (   0.0000068   0.5773304   0.8835362  )
       117           I   tau( 117) = (  -0.1250042   0.7938448   0.1005464  )
       118           I   tau( 118) = (  -0.1249991   0.7938403   0.4920392  )
       119           I   tau( 119) = (  -0.1249940   0.7938358   0.8835321  )
       120           I   tau( 120) = (   0.4999983   0.1443278   0.1005620  )
       121           I   tau( 121) = (   0.5000034   0.1443233   0.4920548  )
       122           I   tau( 122) = (   0.5000085   0.1443188   0.8835477  )
       123           I   tau( 123) = (   0.3749975   0.3608332   0.1005579  )
       124           I   tau( 124) = (   0.3750026   0.3608286   0.4920507  )
       125           I   tau( 125) = (   0.3750077   0.3608241   0.8835436  )
       126           I   tau( 126) = (   0.2499966   0.5773385   0.1005537  )
       127           I   tau( 127) = (   0.2500017   0.5773340   0.4920466  )
       128           I   tau( 128) = (   0.2500068   0.5773295   0.8835394  )
       129           I   tau( 129) = (   0.1249958   0.7938439   0.1005496  )
       130           I   tau( 130) = (   0.1250009   0.7938394   0.4920425  )
       131           I   tau( 131) = (   0.1250060   0.7938348   0.8835353  )
       132           I   tau( 132) = (   0.7499983   0.1443268   0.1005653  )
       133           I   tau( 133) = (   0.7500034   0.1443223   0.4920581  )
       134           I   tau( 134) = (   0.7500085   0.1443178   0.8835509  )
       135           I   tau( 135) = (   0.6249975   0.3608322   0.1005611  )
       136           I   tau( 136) = (   0.6250026   0.3608277   0.4920540  )
       137           I   tau( 137) = (   0.6250077   0.3608232   0.8835468  )
       138           I   tau( 138) = (   0.4999966   0.5773376   0.1005570  )
       139           I   tau( 139) = (   0.5000017   0.5773330   0.4920499  )
       140           I   tau( 140) = (   0.5000068   0.5773285   0.8835427  )
       141           I   tau( 141) = (   0.3749958   0.7938429   0.1005529  )
       142           I   tau( 142) = (   0.3750009   0.7938384   0.4920457  )
       143           I   tau( 143) = (   0.3750060   0.7938339   0.8835386  )
       144           Pb  tau( 144) = (   0.1250054   0.0721550   0.2909325  )

   Crystallographic axes

     site n.     atom                  positions (cryst. coord.)
         1           Pb  tau(   1) = (  0.2500000  0.2499727  0.9999973  )
         2           Pb  tau(   2) = (  0.2499950  0.2499832  0.3333306  )
         3           Pb  tau(   3) = (  0.2499975  0.2499780  0.6666639  )
         4           Pb  tau(   4) = (  0.2499986  0.4999716  0.9999938  )
         5           Pb  tau(   5) = (  0.2499936  0.4999820  0.3333271  )
         6           Pb  tau(   6) = (  0.2499961  0.4999768  0.6666604  )
         7           Pb  tau(   7) = (  0.2499972  0.7499704  0.9999902  )
         8           Pb  tau(   8) = (  0.2499922  0.7499809  0.3333236  )
         9           Pb  tau(   9) = (  0.2499947  0.7499757  0.6666569  )
        10           Pb  tau(  10) = (  0.2499957  0.9999693  0.9999867  )
        11           Pb  tau(  11) = (  0.2499908  0.9999797  0.3333201  )
        12           Pb  tau(  12) = (  0.2499932  0.9999745  0.6666534  )
        13           Pb  tau(  13) = (  0.4999994  0.2499716  1.0000000  )
        14           Pb  tau(  14) = (  0.4999944  0.2499821  0.3333334  )
        15           Pb  tau(  15) = (  0.4999969  0.2499768  0.6666667  )
        16           Pb  tau(  16) = (  0.4999980  0.4999705  0.9999965  )
        17           Pb  tau(  17) = (  0.4999930  0.4999809  0.3333299  )
        18           Pb  tau(  18) = (  0.4999955  0.4999757  0.6666632  )
        19           Pb  tau(  19) = (  0.4999966  0.7499693  0.9999930  )
        20           Pb  tau(  20) = (  0.4999916  0.7499798  0.3333264  )
        21           Pb  tau(  21) = (  0.4999941  0.7499745  0.6666597  )
        22           Pb  tau(  22) = (  0.4999952  0.9999682  0.9999895  )
        23           Pb  tau(  23) = (  0.4999902  0.9999786  0.3333228  )
        24           Pb  tau(  24) = (  0.4999927  0.9999734  0.6666562  )
        25           Pb  tau(  25) = (  0.7499989  0.2499705  1.0000028  )
        26           Pb  tau(  26) = (  0.7499939  0.2499809  0.3333362  )
        27           Pb  tau(  27) = (  0.7499964  0.2499757  0.6666695  )
        28           Pb  tau(  28) = (  0.7499975  0.4999694  0.9999993  )
        29           Pb  tau(  29) = (  0.7499925  0.4999798  0.3333326  )
        30           Pb  tau(  30) = (  0.7499950  0.4999746  0.6666660  )
        31           Pb  tau(  31) = (  0.7499960  0.7499682  0.9999958  )
        32           Pb  tau(  32) = (  0.7499910  0.7499786  0.3333291  )
        33           Pb  tau(  33) = (  0.7499935  0.7499734  0.6666625  )
        34           Pb  tau(  34) = (  0.7499946  0.9999671  0.9999923  )
        35           Pb  tau(  35) = (  0.7499896  0.9999775  0.3333256  )
        36           Pb  tau(  36) = (  0.7499921  0.9999723  0.6666590  )
        37           Pb  tau(  37) = (  0.9999983  0.2499694  1.0000056  )
        38           Pb  tau(  38) = (  0.9999933  0.2499798  0.3333389  )
        39           Pb  tau(  39) = (  0.9999958  0.2499746  0.6666723  )
        40           Pb  tau(  40) = (  0.9999969  0.4999682  1.0000021  )
        41           Pb  tau(  41) = (  0.9999919  0.4999787  0.3333354  )
        42           Pb  tau(  42) = (  0.9999944  0.4999735  0.6666687  )
        43           Pb  tau(  43) = (  0.9999955  0.7499671  0.9999986  )
        44           Pb  tau(  44) = (  0.9999905  0.7499775  0.3333319  )
        45           Pb  tau(  45) = (  0.9999930  0.7499723  0.6666652  )
        46           Pb  tau(  46) = (  0.9999941  0.9999659  0.9999951  )
        47           Pb  tau(  47) = (  0.9999891  0.9999764  0.3333284  )
        48           Pb  tau(  48) = (  0.9999916  0.9999712  0.6666617  )
        49           I   tau(  49) = (  0.1666666  0.0833122  0.5810454  )
        50           I   tau(  50) = (  0.1666691  0.0833070  0.9143787  )
        51           I   tau(  51) = (  0.1666626  0.3333162  0.2477085  )
        52           I   tau(  52) = (  0.1666651  0.3333110  0.5810418  )
        53           I   tau(  53) = (  0.1666676  0.3333058  0.9143752  )
        54           I   tau(  54) = (  0.1666612  0.5833151  0.2477050  )
        55           I   tau(  55) = (  0.1666637  0.5833099  0.5810383  )
        56           I   tau(  56) = (  0.1666662  0.5833047  0.9143717  )
        57           I   tau(  57) = (  0.1666598  0.8333139  0.2477015  )
        58           I   tau(  58) = (  0.1666623  0.8333087  0.5810348  )
        59           I   tau(  59) = (  0.1666648  0.8333035  0.9143682  )
        60           I   tau(  60) = (  0.4166635  0.0833163  0.2477148  )
        61           I   tau(  61) = (  0.4166660  0.0833111  0.5810481  )
        62           I   tau(  62) = (  0.4166685  0.0833058  0.9143815  )
        63           I   tau(  63) = (  0.4166621  0.3333151  0.2477113  )
        64           I   tau(  64) = (  0.4166646  0.3333099  0.5810446  )
        65           I   tau(  65) = (  0.4166671  0.3333047  0.9143780  )
        66           I   tau(  66) = (  0.4166607  0.5833140  0.2477078  )
        67           I   tau(  67) = (  0.4166632  0.5833088  0.5810411  )
        68           I   tau(  68) = (  0.4166657  0.5833035  0.9143744  )
        69           I   tau(  69) = (  0.4166593  0.8333128  0.2477043  )
        70           I   tau(  70) = (  0.4166618  0.8333076  0.5810376  )
        71           I   tau(  71) = (  0.4166643  0.8333024  0.9143709  )
        72           I   tau(  72) = (  0.6666629  0.0833152  0.2477176  )
        73           I   tau(  73) = (  0.6666654  0.0833099  0.5810509  )
        74           I   tau(  74) = (  0.6666679  0.0833047  0.9143842  )
        75           I   tau(  75) = (  0.6666615  0.3333140  0.2477141  )
        76           I   tau(  76) = (  0.6666640  0.3333088  0.5810474  )
        77           I   tau(  77) = (  0.6666665  0.3333036  0.9143807  )
        78           I   tau(  78) = (  0.6666601  0.5833129  0.2477106  )
        79           I   tau(  79) = (  0.6666626  0.5833076  0.5810439  )
        80           I   tau(  80) = (  0.6666651  0.5833024  0.9143772  )
        81           I   tau(  81) = (  0.6666587  0.8333117  0.2477070  )
        82           I   tau(  82) = (  0.6666612  0.8333065  0.5810404  )
        83           I   tau(  83) = (  0.6666637  0.8333013  0.9143737  )
        84           I   tau(  84) = (  0.9166624  0.0833141  0.2477203  )
        85           I   tau(  85) = (  0.9166649  0.0833088  0.5810537  )
        86           I   tau(  86) = (  0.9166674  0.0833036  0.9143870  )
        87           I   tau(  87) = (  0.9166610  0.3333129  0.2477168  )
        88           I   tau(  88) = (  0.9166635  0.3333077  0.5810502  )
        89           I   tau(  89) = (  0.9166660  0.3333025  0.9143835  )
        90           I   tau(  90) = (  0.9166596  0.5833118  0.2477133  )
        91           I   tau(  91) = (  0.9166621  0.5833065  0.5810467  )
        92           I   tau(  92) = (  0.9166646  0.5833013  0.9143800  )
        93           I   tau(  93) = (  0.9166582  0.8333106  0.2477098  )
        94           I   tau(  94) = (  0.9166607  0.8333054  0.5810431  )
        95           I   tau(  95) = (  0.9166632  0.8333002  0.9143765  )
        96           I   tau(  96) = (  0.0833271  0.1666576  0.0856171  )
        97           I   tau(  97) = (  0.0833296  0.1666524  0.4189505  )
        98           I   tau(  98) = (  0.0833321  0.1666472  0.7522838  )
        99           I   tau(  99) = (  0.0833257  0.4166565  0.0856136  )
       100           I   tau( 100) = (  0.0833282  0.4166513  0.4189470  )
       101           I   tau( 101) = (  0.0833307  0.4166460  0.7522803  )
       102           I   tau( 102) = (  0.0833243  0.6666553  0.0856101  )
       103           I   tau( 103) = (  0.0833268  0.6666501  0.4189434  )
       104           I   tau( 104) = (  0.0833293  0.6666449  0.7522768  )
       105           I   tau( 105) = (  0.0833229  0.9166542  0.0856066  )
       106           I   tau( 106) = (  0.0833254  0.9166489  0.4189399  )
       107           I   tau( 107) = (  0.0833279  0.9166437  0.7522733  )
       108           I   tau( 108) = (  0.3333265  0.1666565  0.0856199  )
       109           I   tau( 109) = (  0.3333290  0.1666513  0.4189532  )
       110           I   tau( 110) = (  0.3333315  0.1666461  0.7522866  )
       111           I   tau( 111) = (  0.3333251  0.4166554  0.0856164  )
       112           I   tau( 112) = (  0.3333276  0.4166501  0.4189497  )
       113           I   tau( 113) = (  0.3333301  0.4166449  0.7522831  )
       114           I   tau( 114) = (  0.3333237  0.6666542  0.0856129  )
       115           I   tau( 115) = (  0.3333262  0.6666490  0.4189462  )
       116           I   tau( 116) = (  0.3333287  0.6666438  0.7522795  )
       117           I   tau( 117) = (  0.3333223  0.9166531  0.0856094  )
       118           I   tau( 118) = (  0.3333248  0.9166478  0.4189427  )
       119           I   tau( 119) = (  0.3333273  0.9166426  0.7522760  )
       120           I   tau( 120) = (  0.5833260  0.1666554  0.0856227  )
       121           I   tau( 121) = (  0.5833285  0.1666502  0.4189560  )
       122           I   tau( 122) = (  0.5833310  0.1666450  0.7522893  )
       123           I   tau( 123) = (  0.5833246  0.4166542  0.0856192  )
       124           I   tau( 124) = (  0.5833271  0.4166490  0.4189525  )
       125           I   tau( 125) = (  0.5833296  0.4166438  0.7522858  )
       126           I   tau( 126) = (  0.5833232  0.6666531  0.0856157  )
       127           I   tau( 127) = (  0.5833257  0.6666479  0.4189490  )
       128           I   tau( 128) = (  0.5833282  0.6666427  0.7522823  )
       129           I   tau( 129) = (  0.5833218  0.9166519  0.0856121  )
       130           I   tau( 130) = (  0.5833243  0.9166467  0.4189455  )
       131           I   tau( 131) = (  0.5833268  0.9166415  0.7522788  )
       132           I   tau( 132) = (  0.8333254  0.1666543  0.0856254  )
       133           I   tau( 133) = (  0.8333279  0.1666491  0.4189588  )
       134           I   tau( 134) = (  0.8333304  0.1666438  0.7522921  )
       135           I   tau( 135) = (  0.8333240  0.4166531  0.0856219  )
       136           I   tau( 136) = (  0.8333265  0.4166479  0.4189553  )
       137           I   tau( 137) = (  0.8333290  0.4166427  0.7522886  )
       138           I   tau( 138) = (  0.8333226  0.6666520  0.0856184  )
       139           I   tau( 139) = (  0.8333251  0.6666468  0.4189518  )
       140           I   tau( 140) = (  0.8333276  0.6666415  0.7522851  )
       141           I   tau( 141) = (  0.8333212  0.9166508  0.0856149  )
       142           I   tau( 142) = (  0.8333237  0.9166456  0.4189482  )
       143           I   tau( 143) = (  0.8333262  0.9166404  0.7522816  )
       144           Pb  tau( 144) = (  0.1666641  0.0833174  0.2477120  )

     number of k points=     1  Gaussian smearing, width (Ry)=  0.0100
                       cart. coord. in units 2pi/alat
        k(    1) = (   0.0000000   0.0000000   0.0000000), wk =   2.0000000

                       cryst. coord.
        k(    1) = (   0.0000000   0.0000000   0.0000000), wk =   2.0000000

     Dense  grid:  5079105 G-vectors     FFT dimensions: ( 216, 216, 250)

     Smooth grid:  3634441 G-vectors     FFT dimensions: ( 192, 192, 225)

     Dynamical RAM for                 wfc:      37.36 MB

     Dynamical RAM for     wfc (w. buffer):      37.36 MB

     Dynamical RAM for           str. fact:       0.61 MB

     Dynamical RAM for           local pot:       0.00 MB

     Dynamical RAM for          nlocal pot:      70.16 MB

     Dynamical RAM for                qrad:       3.00 MB

     Dynamical RAM for          rho,v,vnew:       1.98 MB

     Dynamical RAM for               rhoin:       0.66 MB

     Dynamical RAM for            rho*nmix:       4.84 MB

     Dynamical RAM for           G-vectors:       1.24 MB

     Dynamical RAM for          h,s,v(r/c):    1394.82 MB

     Dynamical RAM for          <psi|beta>:      54.58 MB

     Dynamical RAM for                 psi:     149.42 MB

     Dynamical RAM for                hpsi:     149.42 MB

     Dynamical RAM for                spsi:     149.42 MB

     Dynamical RAM for      wfcinit/wfcrot:     118.31 MB

     Dynamical RAM for           addusdens:      85.07 MB

     Dynamical RAM for          addusforce:     142.51 MB

     Dynamical RAM for         addusstress:      60.85 MB

     Estimated static dynamical RAM per process >     117.69 MB

     Estimated max dynamical RAM per process >       1.97 GB

     Estimated total dynamical RAM >     505.05 GB

     Atomic positions and unit cell read from directory:
     ./PbI2.save/
     Atomic positions from file used, from input discarded
 

     Check: negative core charge=   -0.000001

     The initial density is read from file :
     ./PbI2.save/charge-density


     starting charge    2301.0000, renormalised to    2300.0000


     %%%%%%%%%%%%%%%%%%%%%%%%%%%%%%%%%%%%%%%%%%%%%%%%%%%%%%%%%%%%%%%%%%%%%%%%
     %                                                                      %
     % You are using vdW-DF, which was implemented by the Thonhauser group. %
     % Please cite the following two papers that made this development      %
     % possible and the two reviews that describe the various versions:     %
     %                                                                      %
     %   T. Thonhauser et al., PRL 115, 136402 (2015).                      %
     %   T. Thonhauser et al., PRB 76, 125112 (2007).                       %
     %   K. Berland et al., Rep. Prog. Phys. 78, 066501 (2015).             %
     %   D.C. Langreth et al., J. Phys.: Condens. Matter 21, 084203 (2009). %
     %                                                                      %
     % If you are calculating stress with vdW-DF, please also cite:         %
     %                                                                      %
     %   R. Sabatini et al., J. Phys.: Condens. Matter 24, 424209 (2012).   %
     %                                                                      %
     %%%%%%%%%%%%%%%%%%%%%%%%%%%%%%%%%%%%%%%%%%%%%%%%%%%%%%%%%%%%%%%%%%%%%%%%

     %%%%%%%%%%%%%%%%%%%%%%%%%%%%%%%%%%%%%%%%%%%%%%%%%%%%%%%%%%%%%%%%%%%%%%%%
     %                                                                      %
     %  vdW-DF NEWS:                                                        %
     %                                                                      %
     %  * vdW-DF3 is now available. DOI: 10.1021/acs.jctc.0c00471           %
     %    use with input_dft = 'vdW-DF3-opt1' or 'vdW-DF3-opt2'             %
     %                                                                      %
     %  * Unscreened and range-separated vdW-DF hybrid functionals          %
     %    DOI: 10.1063/1.4986522 and 10.1088/1361-648X/ac2ad2               %
     %    use with input_dft = 'vdW-DF-cx0' (etc) and 'vdW-DF-ahcx'         %
     %                                                                      %
     %%%%%%%%%%%%%%%%%%%%%%%%%%%%%%%%%%%%%%%%%%%%%%%%%%%%%%%%%%%%%%%%%%%%%%%%


     Carrying out vdW-DF run using the following parameters:
     Nqs    =  20  Npoints =  1024  r_max =  100.000
     q_mesh =  0.00001000  0.04494208  0.09755937  0.15916263
               0.23128650  0.31572767  0.41458969  0.53033537
               0.66584808  0.82450364  1.01025438  1.22772762
               1.48234092  1.78043706  2.12944203  2.53805004
               3.01644009  3.57652955  4.23227104  5.00000000


     -----------------------------------------------
     Non-local corr. energy    =      68.70674549 Ry
     -----------------------------------------------

     Wavefunctions not found or not readable, recomputing them from scratch
     Starting wfcs are 1296 randomized atomic wfcs +   84 random wfcs
     Checking if some PAW data can be deallocated... 
       PAW data deallocated on  159 nodes for type:  1
       PAW data deallocated on   97 nodes for type:  2

     total cpu time spent up to now is       33.6 secs

     Self-consistent Calculation

     iteration #  1     ecut=    70.00 Ry     beta= 0.70
     Davidson diagonalization with overlap

---- Real-time Memory Report at c_bands before calling an iterative solver
           626 MiB given to the printing process from OS
             0 MiB allocation reported by mallinfo(arena+hblkhd)
       1808442 MiB available memory on the node where the printing process lives
------------------
     ethr =  1.00E-05,  avg # of iterations = 22.0


     -----------------------------------------------
     Non-local corr. energy    =      68.77319940 Ry
     -----------------------------------------------


     total cpu time spent up to now is     1038.9 secs

     total energy              =  -97467.14702384 Ry
     estimated scf accuracy    <       0.12376728 Ry

     iteration #  2     ecut=    70.00 Ry     beta= 0.70
     Davidson diagonalization with overlap

---- Real-time Memory Report at c_bands before calling an iterative solver
          1917 MiB given to the printing process from OS
             0 MiB allocation reported by mallinfo(arena+hblkhd)
       1790386 MiB available memory on the node where the printing process lives
------------------
     ethr =  5.38E-06,  avg # of iterations = 12.0


     -----------------------------------------------
     Non-local corr. energy    =      68.76532387 Ry
     -----------------------------------------------


     total cpu time spent up to now is     1609.8 secs

     total energy              =  -97466.64712731 Ry
     estimated scf accuracy    <       5.61796781 Ry

     iteration #  3     ecut=    70.00 Ry     beta= 0.70
     Davidson diagonalization with overlap

---- Real-time Memory Report at c_bands before calling an iterative solver
          1917 MiB given to the printing process from OS
             0 MiB allocation reported by mallinfo(arena+hblkhd)
       1790153 MiB available memory on the node where the printing process lives
------------------
     ethr =  5.38E-06,  avg # of iterations = 18.0


     -----------------------------------------------
     Non-local corr. energy    =      68.75481386 Ry
     -----------------------------------------------


     total cpu time spent up to now is     2471.1 secs

     total energy              =  -97467.21747211 Ry
     estimated scf accuracy    <       0.12597018 Ry

     iteration #  4     ecut=    70.00 Ry     beta= 0.70
     Davidson diagonalization with overlap

---- Real-time Memory Report at c_bands before calling an iterative solver
          1917 MiB given to the printing process from OS
             0 MiB allocation reported by mallinfo(arena+hblkhd)
       1790132 MiB available memory on the node where the printing process lives
------------------
     ethr =  5.38E-06,  avg # of iterations = 18.0


     -----------------------------------------------
     Non-local corr. energy    =      68.74463531 Ry
     -----------------------------------------------


     total cpu time spent up to now is     3029.0 secs

     total energy              =  -97467.22424755 Ry
     estimated scf accuracy    <       0.04573953 Ry

     iteration #  5     ecut=    70.00 Ry     beta= 0.70
     Davidson diagonalization with overlap

---- Real-time Memory Report at c_bands before calling an iterative solver
          1917 MiB given to the printing process from OS
             0 MiB allocation reported by mallinfo(arena+hblkhd)
       1790039 MiB available memory on the node where the printing process lives
------------------
     ethr =  1.99E-06,  avg # of iterations = 19.0


     -----------------------------------------------
     Non-local corr. energy    =      68.74091063 Ry
     -----------------------------------------------


     total cpu time spent up to now is     3547.0 secs

     total energy              =  -97467.22431155 Ry
     estimated scf accuracy    <       0.02966718 Ry

     iteration #  6     ecut=    70.00 Ry     beta= 0.70
     Davidson diagonalization with overlap

---- Real-time Memory Report at c_bands before calling an iterative solver
          1917 MiB given to the printing process from OS
             0 MiB allocation reported by mallinfo(arena+hblkhd)
       1789942 MiB available memory on the node where the printing process lives
------------------
     ethr =  1.29E-06,  avg # of iterations = 13.0


     -----------------------------------------------
     Non-local corr. energy    =      68.73565951 Ry
     -----------------------------------------------


     total cpu time spent up to now is     3865.7 secs

     total energy              =  -97467.22211271 Ry
     estimated scf accuracy    <       0.02246863 Ry

     iteration #  7     ecut=    70.00 Ry     beta= 0.70
     Davidson diagonalization with overlap

---- Real-time Memory Report at c_bands before calling an iterative solver
          1917 MiB given to the printing process from OS
             0 MiB allocation reported by mallinfo(arena+hblkhd)
       1789854 MiB available memory on the node where the printing process lives
------------------
     ethr =  9.77E-07,  avg # of iterations = 17.0


     -----------------------------------------------
     Non-local corr. energy    =      68.73020673 Ry
     -----------------------------------------------


     total cpu time spent up to now is     4306.9 secs

     total energy              =  -97467.22023032 Ry
     estimated scf accuracy    <       0.01241089 Ry

     iteration #  8     ecut=    70.00 Ry     beta= 0.70
     Davidson diagonalization with overlap

---- Real-time Memory Report at c_bands before calling an iterative solver
          1917 MiB given to the printing process from OS
             0 MiB allocation reported by mallinfo(arena+hblkhd)
       1789762 MiB available memory on the node where the printing process lives
------------------
     ethr =  5.40E-07,  avg # of iterations = 18.0


     -----------------------------------------------
     Non-local corr. energy    =      68.72828909 Ry
     -----------------------------------------------


     total cpu time spent up to now is     4831.1 secs

     total energy              =  -97467.22000034 Ry
     estimated scf accuracy    <       0.00358163 Ry

     iteration #  9     ecut=    70.00 Ry     beta= 0.70
     Davidson diagonalization with overlap

---- Real-time Memory Report at c_bands before calling an iterative solver
          1917 MiB given to the printing process from OS
             0 MiB allocation reported by mallinfo(arena+hblkhd)
       1789665 MiB available memory on the node where the printing process lives
------------------
     ethr =  1.56E-07,  avg # of iterations = 20.0


     -----------------------------------------------
     Non-local corr. energy    =      68.72923839 Ry
     -----------------------------------------------


     total cpu time spent up to now is     5459.9 secs

     total energy              =  -97467.22009883 Ry
     estimated scf accuracy    <       0.00079579 Ry

     iteration # 10     ecut=    70.00 Ry     beta= 0.70
     Davidson diagonalization with overlap

---- Real-time Memory Report at c_bands before calling an iterative solver
          1917 MiB given to the printing process from OS
             0 MiB allocation reported by mallinfo(arena+hblkhd)
       1789576 MiB available memory on the node where the printing process lives
------------------
     ethr =  3.46E-08,  avg # of iterations = 19.0


     -----------------------------------------------
     Non-local corr. energy    =      68.72988642 Ry
     -----------------------------------------------


     total cpu time spent up to now is     6103.3 secs

     total energy              =  -97467.22009251 Ry
     estimated scf accuracy    <       0.00028048 Ry

     iteration # 11     ecut=    70.00 Ry     beta= 0.70
     Davidson diagonalization with overlap

---- Real-time Memory Report at c_bands before calling an iterative solver
          1917 MiB given to the printing process from OS
             0 MiB allocation reported by mallinfo(arena+hblkhd)
       1789519 MiB available memory on the node where the printing process lives
------------------
     c_bands:  2 eigenvalues not converged
     ethr =  1.22E-08,  avg # of iterations = 20.0


     -----------------------------------------------
     Non-local corr. energy    =      68.72972005 Ry
     -----------------------------------------------


     total cpu time spent up to now is     6788.1 secs

     total energy              =  -97467.22011946 Ry
     estimated scf accuracy    <       0.00003488 Ry

     iteration # 12     ecut=    70.00 Ry     beta= 0.70
     Davidson diagonalization with overlap

---- Real-time Memory Report at c_bands before calling an iterative solver
          1917 MiB given to the printing process from OS
             0 MiB allocation reported by mallinfo(arena+hblkhd)
       1789509 MiB available memory on the node where the printing process lives
------------------
     ethr =  1.52E-09,  avg # of iterations = 17.0


     -----------------------------------------------
     Non-local corr. energy    =      68.72899978 Ry
     -----------------------------------------------


     total cpu time spent up to now is     8267.0 secs

     total energy              =  -97467.22013599 Ry
     estimated scf accuracy    <       0.00000321 Ry

     iteration # 13     ecut=    70.00 Ry     beta= 0.70
     Davidson diagonalization with overlap

---- Real-time Memory Report at c_bands before calling an iterative solver
          1987 MiB given to the printing process from OS
             0 MiB allocation reported by mallinfo(arena+hblkhd)
       1789487 MiB available memory on the node where the printing process lives
------------------
     c_bands:  1 eigenvalues not converged
     ethr =  1.39E-10,  avg # of iterations = 20.0


     -----------------------------------------------
     Non-local corr. energy    =      68.72871447 Ry
     -----------------------------------------------


     total cpu time spent up to now is     8844.9 secs

     total energy              =  -97467.22013586 Ry
     estimated scf accuracy    <       0.00000072 Ry

     iteration # 14     ecut=    70.00 Ry     beta= 0.70
     Davidson diagonalization with overlap

---- Real-time Memory Report at c_bands before calling an iterative solver
          1987 MiB given to the printing process from OS
             0 MiB allocation reported by mallinfo(arena+hblkhd)
       1789484 MiB available memory on the node where the printing process lives
------------------
     c_bands:  1 eigenvalues not converged
     ethr =  3.14E-11,  avg # of iterations = 20.0


     -----------------------------------------------
     Non-local corr. energy    =      68.72865515 Ry
     -----------------------------------------------


     total cpu time spent up to now is     9831.4 secs

     total energy              =  -97467.22013593 Ry
     estimated scf accuracy    <       0.00000048 Ry

     iteration # 15     ecut=    70.00 Ry     beta= 0.70
     Davidson diagonalization with overlap

---- Real-time Memory Report at c_bands before calling an iterative solver
          1987 MiB given to the printing process from OS
             0 MiB allocation reported by mallinfo(arena+hblkhd)
       1789288 MiB available memory on the node where the printing process lives
------------------
     c_bands:  2 eigenvalues not converged
     ethr =  2.10E-11,  avg # of iterations = 20.0


     -----------------------------------------------
     Non-local corr. energy    =      68.72865800 Ry
     -----------------------------------------------


     total cpu time spent up to now is    10641.5 secs

     total energy              =  -97467.22013600 Ry
     estimated scf accuracy    <       0.00000056 Ry

     iteration # 16     ecut=    70.00 Ry     beta= 0.70
     Davidson diagonalization with overlap

---- Real-time Memory Report at c_bands before calling an iterative solver
          1987 MiB given to the printing process from OS
             0 MiB allocation reported by mallinfo(arena+hblkhd)
       1789275 MiB available memory on the node where the printing process lives
------------------
     c_bands:  1 eigenvalues not converged
     ethr =  2.10E-11,  avg # of iterations = 20.0


     -----------------------------------------------
     Non-local corr. energy    =      68.72883475 Ry
     -----------------------------------------------


     total cpu time spent up to now is    11287.3 secs

     End of self-consistent calculation

          k = 0.0000 0.0000 0.0000 (454335 PWs)   bands (ev):

   -41.1274 -41.1274 -41.1273 -41.1270 -41.1270 -41.1269 -41.1036 -41.1036
   -41.1036 -41.0957 -41.0957 -41.0956 -41.0904 -41.0904 -41.0903 -41.0872
   -41.0871 -41.0870 -41.0776 -41.0776 -41.0775 -41.0765 -41.0765 -41.0764
   -41.0482 -41.0482 -41.0481 -41.0476 -41.0476 -41.0475 -40.8869 -40.8869
   -40.8868 -40.8868 -40.8867 -40.8867 -40.8847 -40.8846 -40.8846 -40.8846
   -40.8845 -40.8845 -40.8762 -40.8762 -40.8761 -40.8761 -40.8760 -40.8760
   -40.8647 -40.8647 -40.8647 -40.8646 -40.8646 -40.8645 -40.8635 -40.8635
   -40.8635 -40.8634 -40.8634 -40.8634 -40.8534 -40.8534 -40.8534 -40.8490
   -40.8489 -40.8489 -40.8483 -40.8483 -40.8483 -40.8369 -40.8369 -40.8368
   -40.8361 -40.8361 -40.8361 -40.8296 -40.8296 -40.8284 -40.8283 -40.8283
   -40.8283 -40.8283 -40.8282 -40.8279 -40.8279 -40.8266 -40.8257 -40.8256
   -40.8256 -40.8256 -40.8256 -40.8255 -40.8236 -40.8235 -40.8235 -40.8235
   -40.8235 -40.8235 -40.8165 -40.8165 -40.8165 -40.8164 -40.8164 -40.8164
   -40.8159 -40.8159 -40.8158 -40.8158 -40.8158 -40.8158 -40.7996 -40.7996
   -40.7996 -40.7988 -40.7988 -40.7988 -40.7983 -40.7983 -40.7983 -40.7979
   -40.7979 -40.7979 -40.7969 -40.7968 -40.7968 -40.7968 -40.7968 -40.7968
   -40.7962 -40.7962 -40.7962 -40.7962 -40.7961 -40.7961 -40.7960 -40.7960
   -40.7960 -40.7958 -40.7958 -40.7958 -40.7954 -40.7954 -40.7954 -40.7942
   -40.7942 -40.7942 -40.7937 -40.7937 -40.7936 -40.7936 -40.7936 -40.7936
   -40.7923 -40.7923 -40.7923 -40.7923 -40.7922 -40.7922 -40.7922 -40.7922
   -40.7921 -40.7921 -40.7921 -40.7921 -40.7839 -40.7839 -40.7839 -40.7836
   -40.7836 -40.7836 -40.7746 -40.7744 -40.7743 -40.7738 -40.7737 -40.7735
   -40.7685 -40.7684 -40.7684 -40.7654 -40.7653 -40.7651 -40.7650 -40.7648
   -40.7647 -40.7646 -40.7645 -40.7644 -40.7635 -40.7634 -40.7633 -40.7624
   -40.7624 -40.7623 -40.7623 -40.7621 -40.7620 -40.7618 -40.7617 -40.7617
   -40.7616 -40.7616 -40.7606 -40.7605 -40.7605 -40.7605 -40.7604 -40.7603
   -40.7602 -40.7602 -40.7600 -40.7599 -40.7599 -40.7599 -40.7598 -40.7598
   -40.7597 -40.7597 -40.7597 -40.7597 -40.7597 -40.7597 -40.7597 -40.7596
   -40.7595 -40.7595 -40.7594 -40.7594 -40.7593 -40.7534 -40.7534 -40.7533
   -40.7527 -40.7526 -40.7525 -40.7493 -40.7492 -40.7492 -40.7486 -40.7486
   -40.7486 -40.7479 -40.7479 -40.7479 -40.7477 -40.7476 -40.7476 -40.7475
   -40.7475 -40.7475 -40.7397 -40.7397 -40.7396 -40.7389 -40.7389 -40.7389
   -40.7373 -40.7373 -40.7372 -40.7367 -40.7366 -40.7366 -40.7365 -40.7365
   -40.7365 -40.7361 -40.7361 -40.7361 -40.7360 -40.7360 -40.7360 -40.7351
   -40.7350 -40.7350 -40.7350 -40.7349 -40.7349 -40.7349 -40.7349 -40.7348
   -40.7345 -40.7345 -40.7345 -40.7341 -40.7340 -40.7340 -40.7339 -40.7339
   -40.7339 -40.7335 -40.7335 -40.7335 -40.7334 -40.7334 -40.7334 -40.6807
   -40.6807 -40.6796 -40.6796 -40.6794 -40.6650 -40.6650 -40.6650 -40.6650
   -40.6650 -40.6650 -40.6646 -40.6645 -40.6645 -40.6645 -40.6645 -40.6645
   -40.6643 -40.6643 -40.6643 -40.6642 -40.6642 -40.6642 -40.6640 -40.6640
   -40.6640 -40.6640 -40.6640 -40.6640 -40.6636 -40.6636 -40.6635 -40.6635
   -40.6635 -40.6635 -40.6521 -40.6521 -40.6521 -40.6520 -40.6520 -40.6520
   -40.6517 -40.6516 -40.6516 -40.6515 -40.6515 -40.6514 -40.6514 -40.6514
   -40.6514 -40.6513 -40.6513 -40.6511 -40.6510 -40.6510 -40.6508 -40.6508
   -40.6508 -40.6508 -40.6507 -40.6506 -40.6506 -40.6503 -40.6503 -40.6503
   -40.6503 -40.6503 -40.6501 -40.6500 -40.6500 -40.6484 -40.6484 -40.6484
   -40.6484 -40.6483 -40.6483 -40.6480 -40.6480 -40.6479 -40.6476 -40.6476
   -40.6476 -40.6475 -40.6475 -40.6475 -40.6474 -40.6474 -40.6474 -40.6474
   -40.6474 -40.6474 -40.6474 -40.6473 -40.6473 -40.6473 -40.6473 -40.6473
   -40.6471 -40.6471 -40.6471 -40.6471 -40.6470 -40.6470 -40.6470 -40.6470
   -40.6469 -40.6468 -40.6468 -40.6468 -40.6468 -40.6467 -40.6467 -40.6467
   -40.6467 -40.6467 -40.6467 -40.6467 -40.6466 -40.6466 -40.6466 -40.6466
   -40.6464 -40.6463 -40.6463 -40.6463 -40.6463 -40.6462 -40.6458 -40.6458
   -40.6458 -40.6457 -40.6457 -40.6457 -40.6457 -40.6457 -40.6456 -40.6456
   -40.6456 -40.6455 -40.6454 -40.6454 -40.6454 -40.6453 -40.6453 -40.6453
   -40.6442 -40.6441 -40.6441 -40.6435 -40.6435 -40.6434 -40.6431 -40.6431
   -40.6431 -40.6426 -40.6426 -40.6426 -40.6425 -40.6425 -40.6425 -40.6422
   -40.6421 -40.6421 -40.6405 -40.6405 -40.6405 -40.6376 -40.6376 -40.6376
   -40.6339 -40.6339 -40.6338 -40.6329 -40.6329 -40.6328 -40.6215 -40.6215
   -40.6194 -40.6194 -40.6189 -14.1319 -14.1319 -13.9041 -13.9041 -13.8203
   -13.1473 -13.1473 -13.1339 -13.1313 -13.1268 -13.1268 -13.1264 -13.1229
   -13.1183 -13.1183 -13.1157 -13.1156 -13.1025 -13.1024 -13.1001 -13.0389
   -13.0388 -13.0313 -13.0300 -13.0227 -13.0216 -13.0215 -13.0207 -13.0207
   -13.0197 -13.0186 -13.0185 -13.0131 -13.0126 -13.0126 -13.0085 -13.0085
   -13.0083 -13.0049 -13.0048 -13.0048 -13.0029 -13.0029 -13.0026 -13.0014
   -13.0010 -13.0010 -12.9902 -12.9902 -12.9902 -12.9738 -12.9737 -12.9736
   -12.9652 -12.9651 -12.9650 -12.9562 -12.9561 -12.9561 -12.9558 -12.9557
   -12.9557 -12.9488 -12.9488 -12.9487 -12.9427 -12.9413 -12.9413 -12.9340
   -12.9320 -12.9320 -12.9260 -12.9250 -12.9248 -12.9247 -12.9241 -12.9235
   -12.9235 -12.9224 -12.9224 -12.9224 -12.9208 -12.9206 -12.9206 -12.9198
   -12.9198 -12.9181 -12.9180 -12.9177 -12.9177 -12.9167 -12.9149 -12.9147
   -12.9134 -12.9134 -12.9130 -12.9129 -12.9118 -12.9118 -12.9108 -12.9094
   -12.9056 -12.9054 -12.9050 -12.9050 -12.9048 -12.9048 -12.9048 -12.9047
   -12.9037 -12.9037 -12.9036 -12.9036 -12.9035 -12.9035 -12.9024 -12.9023
   -12.9016 -12.9016 -12.9016 -12.9013 -12.9013 -12.9012 -12.9012 -12.9011
   -12.9000 -12.8999 -12.8986 -12.8985 -12.8984 -12.8984 -12.8983 -12.8971
   -12.8962 -12.8962 -12.8958 -12.8948 -12.8942 -12.8941 -12.8894 -12.8893
   -12.8886 -12.8877 -12.8877 -12.8867 -12.8835 -12.8835 -12.8763 -12.8738
   -12.8738 -12.8632 -12.8632 -12.8577 -12.8565 -12.8480 -12.8479 -12.8477
   -12.8462 -12.8462 -12.8421 -12.8399 -12.8399 -12.8370 -12.8370 -12.8349
   -12.8198 -12.8186 -12.8186 -12.8121 -12.8119 -12.8114 -12.8113 -12.8109
   -12.8109 -12.8074 -12.8073 -12.8073 -12.8061 -12.8060 -12.8060 -12.8011
   -12.8000 -12.8000 -12.7991 -12.7983 -12.7983 -12.7972 -12.7972 -12.7969
   -12.7958 -12.7958 -12.7950 -12.7943 -12.7942 -12.7941 -12.7936 -12.7933
   -12.7933 -12.7926 -12.7926 -12.7920 -12.7920 -12.7920 -12.7915 -12.7908
   -12.7908 -12.7907 -12.7903 -12.7899 -12.7899 -12.7891 -12.7891 -12.7890
   -12.7886 -12.7886 -12.7881 -12.7880 -12.7879 -12.7874 -12.7871 -12.7871
   -12.7868 -12.7868 -12.7865 -12.7861 -12.7857 -12.7857 -12.7856 -12.7849
   -12.7849 -12.7839 -12.7839 -12.7839 -12.7833 -12.7833 -12.7826 -12.7822
   -12.7816 -12.7816 -12.7801 -12.7801 -12.7788 -12.7788 -12.7765 -12.7765
    -8.1641  -8.1285  -8.0001  -8.0001  -7.9925  -7.9629  -7.9629  -7.9542
    -7.9408  -7.8940  -7.8940  -7.8886  -7.8395  -7.8394  -7.8309  -7.7952
    -7.7952  -7.7768  -7.7767  -7.7646  -7.7488  -7.7488  -7.7464  -7.7463
    -7.7451  -7.7405  -7.7257  -7.6715  -7.6538  -7.6531  -7.6531  -7.6477
    -7.6441  -7.6441  -7.6226  -7.6206  -7.6206  -7.6169  -7.6169  -7.6119
    -7.6051  -7.6050  -7.5840  -7.5773  -7.5773  -7.5662  -7.5662  -7.5596
    -7.5596  -7.5583  -7.5402  -7.5373  -7.5373  -7.5290  -7.5244  -7.5172
    -7.5097  -7.5096  -7.5093  -7.5074  -7.5074  -7.5057  -7.5034  -7.4948
    -7.4932  -7.4932  -7.4891  -7.4890  -7.4823  -7.4823  -7.4798  -7.4786
    -7.4766  -7.4766  -7.4746  -7.4746  -7.4541  -7.4254  -7.4241  -7.4241
    -7.4235  -7.4235  -7.4142  -7.4052  -7.4051  -7.3905  -7.3831  -7.3827
    -7.3827  -7.3691  -7.3654  -7.3636  -7.3636  -7.3616  -7.3616  -4.7496
    -3.7309  -3.7308  -3.7130  -3.7129  -3.7078  -3.6671  -3.6655  -3.6655
    -3.6341  -3.6341  -3.6283  -3.6283  -3.6189  -3.6177  -3.6116  -3.6027
    -3.5796  -3.5796  -3.5124  -3.5124  -3.5099  -3.5012  -3.5012  -3.4983
    -3.4976  -3.4976  -3.4962  -3.4807  -3.4254  -3.4139  -3.4139  -3.3930
    -3.3930  -3.3645  -3.3645  -3.3617  -3.3347  -3.3347  -3.3198  -3.2413
    -3.2411  -3.2411  -3.2381  -3.2380  -3.2352  -3.1827  -3.1331  -3.0191
     0.8718   0.8718   0.8779   0.9550   0.9672   0.9672   1.1381   1.1489
     1.1659   1.1659   1.1739   1.1739   1.1885   1.1885   1.1925   1.2067
     1.2068   1.2070   1.2407   1.2407   1.2488   1.3612   1.3612   1.3615
     1.4018   1.4046   1.4046   1.4115   1.4116   1.4346   1.4450   1.4458
     1.4458   1.4563   1.4598   1.4598   1.4708   1.4807   1.4807   1.4874
     1.4951   1.4951   1.5121   1.5122   1.5263   1.5495   1.5557   1.5557
     1.5609   1.5739   1.5739   1.5741   1.5743   1.5769   1.5769   1.5805
     1.5805   1.7187   1.7188   1.7557   1.7662   1.7662   1.7861   1.7974
     1.7974   1.8035   1.8061   1.8062   1.8384   1.8384   1.8427   1.8569
     1.8601   1.8601   1.8749   1.9064   1.9064   1.9144   1.9272   1.9272
     1.9307   1.9488   1.9727   1.9727   1.9781   2.0164   2.0165   2.0233
     2.0390   2.0390   2.0468   2.0468   2.0478   2.0786   2.0786   2.0825
     2.0825   2.0883   2.0897   2.0936   2.0936   2.0941   2.0959   2.1088
     2.1088   2.1159   2.1516   2.1516   2.1794   2.1795   2.1925   2.1939
     2.1939   2.2117   2.2145   2.2198   2.2199   2.2276   2.2366   2.2366
     2.2380   2.2380   2.2535   2.2535   2.2552   2.2745   2.2835   2.2899
     2.3171   2.3232   2.3250   2.3251   2.3597   2.3603   2.3603   2.3805
     2.3805   2.4011   2.4011   2.4014   2.4061   2.4298   2.4299   2.4588
     2.4588   2.4858   2.5411   2.5649   2.5649   2.5847   2.5856   2.5967
     2.5967   2.6030   2.6030   2.6099   2.6099   2.6177   2.6177   2.6226
     2.6407   2.6547   2.6594   2.6594   2.6732   2.6733   2.6781   2.7202
     2.7202   2.7377   2.7383   2.7383   2.7522   2.7677   2.7677   2.7753
     2.7753   2.7882   2.7917   2.7917   2.8070   2.8188   2.8232   2.8232
     2.8328   2.8328   2.8373   2.8373   2.8536   2.8538   2.8538   2.8605
     2.8605   2.8744   2.8768   2.8855   2.8855   2.8893   2.8916   2.8919
     2.8920   2.9046   2.9046   2.9121   2.9121   2.9304   2.9452   2.9452
     2.9579   2.9597   2.9598   2.9642   2.9643   2.9643   2.9709   2.9856
     2.9892   2.9892   2.9968   3.0036   3.0037   3.0073   3.0073   3.0094
     3.0125   3.0229   3.0240   3.0240   3.0306   3.0306   3.0320   3.0320
     3.0422   3.0535   3.0545   3.0545   3.0612   3.0612   3.0678   3.0757
     3.0757   3.0806   3.0814   3.0814   3.0884   3.0885   3.0886   3.1484
     3.1545   3.1545   3.1700   3.1701   3.2020   3.2020   3.2045   3.2276
     3.2376   3.2376   3.2498   3.2559   3.2559   3.2765   3.3338   3.3393
     3.3393   3.3455   3.3455   3.3733   3.3775   3.3898   3.3898   3.4080
     3.4414   3.4414   3.4460   3.4506   3.4508   3.4508   3.4510   3.4553
     3.4557   3.4557   3.4607   3.4607   3.4638   4.0661   4.4308   4.4311
     5.9541   6.0035   6.1746   6.3117   6.4617   6.4617   6.4803   6.4845
     6.4845   6.5384   6.5384   6.5400   6.5621   6.5622   6.5949   6.5950
     6.6061   6.6395   6.6942   6.6942   6.7349   6.7943   6.7943   6.8243
     6.8250   6.8251   6.8267   6.8268   6.8449   6.8449   6.8606   6.8648
     6.8649   6.9006   6.9006   6.9066   6.9586   6.9833   6.9833   6.9850
     7.0369   7.0369   7.0434   7.0434   7.0481   7.0665   7.0866   7.0866
     7.0986   7.0987   7.1526   7.1549   7.1549   7.1575   7.1717   7.1860
     7.1860   7.2159   7.2215   7.2215   7.2305   7.2305   7.2410   7.2462
     7.2606   7.2607   7.2793   7.2969   7.2969   7.2969   7.3177   7.3177
     7.3211   7.3277   7.3277   7.3295   7.3295   7.3492   7.3500   7.3510
     7.3510   7.3550   7.3550   7.3644   7.3666   7.3666   7.3675   7.3704
     7.3704   7.3742   7.3814   7.3814   7.3890   7.4311   7.4311   7.4457
     7.4571   7.4571   7.4707   7.4759   7.4803   7.4885   7.4885   7.4989
     7.4989   7.5009   7.5130   7.5130   7.5223   7.5224   7.5405   7.5552
     7.5552   7.5596   7.5749   7.5749   7.5959   7.5975   7.5975   7.6111
     7.6118   7.6118   7.6343   7.6885   7.6885   7.6985   7.6985   7.7019
     7.7043   7.7043   7.7175   7.7278   7.7278   7.7514   7.7855   7.8159
     7.8159   7.8161   7.8184   7.8199   7.8199   8.0821   8.0875   8.0875
     9.1887   9.1887   9.2033   9.5790   9.5790   9.5987   9.6482   9.6628
     9.6628   9.7446   9.7929   9.8047   9.8047   9.8337   9.8338   9.8742
     9.9061   9.9154   9.9154   9.9314   9.9431   9.9431  10.0474  10.0474
    10.0761  10.0858  10.0858  10.0996  10.2043  10.2464  10.2517  10.2517
    10.2628  10.2629  10.2843  10.2843  10.2870  10.3085  10.3085  10.3091
    10.3110  10.3140  10.3293  10.3293  10.3480  10.3480  10.3499  10.3839
    10.4284  10.4321  10.4367  10.4367  10.4591  10.4591  10.6601  10.6601
    10.6710  10.6710  10.6771  10.6844  10.7800  10.7835  10.7894  10.7894
    10.8120  10.8120  10.8193  10.8193  10.8210  10.8367  10.8367  10.8411
    10.8472  10.9029  10.9408  10.9408  10.9751  10.9752  10.9914  11.0405
    11.0405  11.0428  11.0687  11.0695

     occupation numbers 
     1.0000   1.0000   1.0000   1.0000   1.0000   1.0000   1.0000   1.0000
     1.0000   1.0000   1.0000   1.0000   1.0000   1.0000   1.0000   1.0000
     1.0000   1.0000   1.0000   1.0000   1.0000   1.0000   1.0000   1.0000
     1.0000   1.0000   1.0000   1.0000   1.0000   1.0000   1.0000   1.0000
     1.0000   1.0000   1.0000   1.0000   1.0000   1.0000   1.0000   1.0000
     1.0000   1.0000   1.0000   1.0000   1.0000   1.0000   1.0000   1.0000
     1.0000   1.0000   1.0000   1.0000   1.0000   1.0000   1.0000   1.0000
     1.0000   1.0000   1.0000   1.0000   1.0000   1.0000   1.0000   1.0000
     1.0000   1.0000   1.0000   1.0000   1.0000   1.0000   1.0000   1.0000
     1.0000   1.0000   1.0000   1.0000   1.0000   1.0000   1.0000   1.0000
     1.0000   1.0000   1.0000   1.0000   1.0000   1.0000   1.0000   1.0000
     1.0000   1.0000   1.0000   1.0000   1.0000   1.0000   1.0000   1.0000
     1.0000   1.0000   1.0000   1.0000   1.0000   1.0000   1.0000   1.0000
     1.0000   1.0000   1.0000   1.0000   1.0000   1.0000   1.0000   1.0000
     1.0000   1.0000   1.0000   1.0000   1.0000   1.0000   1.0000   1.0000
     1.0000   1.0000   1.0000   1.0000   1.0000   1.0000   1.0000   1.0000
     1.0000   1.0000   1.0000   1.0000   1.0000   1.0000   1.0000   1.0000
     1.0000   1.0000   1.0000   1.0000   1.0000   1.0000   1.0000   1.0000
     1.0000   1.0000   1.0000   1.0000   1.0000   1.0000   1.0000   1.0000
     1.0000   1.0000   1.0000   1.0000   1.0000   1.0000   1.0000   1.0000
     1.0000   1.0000   1.0000   1.0000   1.0000   1.0000   1.0000   1.0000
     1.0000   1.0000   1.0000   1.0000   1.0000   1.0000   1.0000   1.0000
     1.0000   1.0000   1.0000   1.0000   1.0000   1.0000   1.0000   1.0000
     1.0000   1.0000   1.0000   1.0000   1.0000   1.0000   1.0000   1.0000
     1.0000   1.0000   1.0000   1.0000   1.0000   1.0000   1.0000   1.0000
     1.0000   1.0000   1.0000   1.0000   1.0000   1.0000   1.0000   1.0000
     1.0000   1.0000   1.0000   1.0000   1.0000   1.0000   1.0000   1.0000
     1.0000   1.0000   1.0000   1.0000   1.0000   1.0000   1.0000   1.0000
     1.0000   1.0000   1.0000   1.0000   1.0000   1.0000   1.0000   1.0000
     1.0000   1.0000   1.0000   1.0000   1.0000   1.0000   1.0000   1.0000
     1.0000   1.0000   1.0000   1.0000   1.0000   1.0000   1.0000   1.0000
     1.0000   1.0000   1.0000   1.0000   1.0000   1.0000   1.0000   1.0000
     1.0000   1.0000   1.0000   1.0000   1.0000   1.0000   1.0000   1.0000
     1.0000   1.0000   1.0000   1.0000   1.0000   1.0000   1.0000   1.0000
     1.0000   1.0000   1.0000   1.0000   1.0000   1.0000   1.0000   1.0000
     1.0000   1.0000   1.0000   1.0000   1.0000   1.0000   1.0000   1.0000
     1.0000   1.0000   1.0000   1.0000   1.0000   1.0000   1.0000   1.0000
     1.0000   1.0000   1.0000   1.0000   1.0000   1.0000   1.0000   1.0000
     1.0000   1.0000   1.0000   1.0000   1.0000   1.0000   1.0000   1.0000
     1.0000   1.0000   1.0000   1.0000   1.0000   1.0000   1.0000   1.0000
     1.0000   1.0000   1.0000   1.0000   1.0000   1.0000   1.0000   1.0000
     1.0000   1.0000   1.0000   1.0000   1.0000   1.0000   1.0000   1.0000
     1.0000   1.0000   1.0000   1.0000   1.0000   1.0000   1.0000   1.0000
     1.0000   1.0000   1.0000   1.0000   1.0000   1.0000   1.0000   1.0000
     1.0000   1.0000   1.0000   1.0000   1.0000   1.0000   1.0000   1.0000
     1.0000   1.0000   1.0000   1.0000   1.0000   1.0000   1.0000   1.0000
     1.0000   1.0000   1.0000   1.0000   1.0000   1.0000   1.0000   1.0000
     1.0000   1.0000   1.0000   1.0000   1.0000   1.0000   1.0000   1.0000
     1.0000   1.0000   1.0000   1.0000   1.0000   1.0000   1.0000   1.0000
     1.0000   1.0000   1.0000   1.0000   1.0000   1.0000   1.0000   1.0000
     1.0000   1.0000   1.0000   1.0000   1.0000   1.0000   1.0000   1.0000
     1.0000   1.0000   1.0000   1.0000   1.0000   1.0000   1.0000   1.0000
     1.0000   1.0000   1.0000   1.0000   1.0000   1.0000   1.0000   1.0000
     1.0000   1.0000   1.0000   1.0000   1.0000   1.0000   1.0000   1.0000
     1.0000   1.0000   1.0000   1.0000   1.0000   1.0000   1.0000   1.0000
     1.0000   1.0000   1.0000   1.0000   1.0000   1.0000   1.0000   1.0000
     1.0000   1.0000   1.0000   1.0000   1.0000   1.0000   1.0000   1.0000
     1.0000   1.0000   1.0000   1.0000   1.0000   1.0000   1.0000   1.0000
     1.0000   1.0000   1.0000   1.0000   1.0000   1.0000   1.0000   1.0000
     1.0000   1.0000   1.0000   1.0000   1.0000   1.0000   1.0000   1.0000
     1.0000   1.0000   1.0000   1.0000   1.0000   1.0000   1.0000   1.0000
     1.0000   1.0000   1.0000   1.0000   1.0000   1.0000   1.0000   1.0000
     1.0000   1.0000   1.0000   1.0000   1.0000   1.0000   1.0000   1.0000
     1.0000   1.0000   1.0000   1.0000   1.0000   1.0000   1.0000   1.0000
     1.0000   1.0000   1.0000   1.0000   1.0000   1.0000   1.0000   1.0000
     1.0000   1.0000   1.0000   1.0000   1.0000   1.0000   1.0000   1.0000
     1.0000   1.0000   1.0000   1.0000   1.0000   1.0000   1.0000   1.0000
     1.0000   1.0000   1.0000   1.0000   1.0000   1.0000   1.0000   1.0000
     1.0000   1.0000   1.0000   1.0000   1.0000   1.0000   1.0000   1.0000
     1.0000   1.0000   1.0000   1.0000   1.0000   1.0000   1.0000   1.0000
     1.0000   1.0000   1.0000   1.0000   1.0000   1.0000   1.0000   1.0000
     1.0000   1.0000   1.0000   1.0000   1.0000   1.0000   1.0000   1.0000
     1.0000   1.0000   1.0000   1.0000   1.0000   1.0000   1.0000   1.0000
     1.0000   1.0000   1.0000   1.0000   1.0000   1.0000   1.0000   1.0000
     1.0000   1.0000   1.0000   1.0000   1.0000   1.0000   1.0000   1.0000
     1.0000   1.0000   1.0000   1.0000   1.0000   1.0000   1.0000   1.0000
     1.0000   1.0000   1.0000   1.0000   1.0000   1.0000   1.0000   1.0000
     1.0000   1.0000   1.0000   1.0000   1.0000   1.0000   1.0000   1.0000
     1.0000   1.0000   1.0000   1.0000   1.0000   1.0000   1.0000   1.0000
     1.0000   1.0000   1.0000   1.0000   1.0000   1.0000   1.0000   1.0000
     1.0000   1.0000   1.0000   1.0000   1.0000   1.0000   1.0000   1.0000
     1.0000   1.0000   1.0000   1.0000   1.0000   1.0000   1.0000   1.0000
     1.0000   1.0000   1.0000   1.0000   1.0000   1.0000   1.0000   1.0000
     1.0000   1.0000   1.0000   1.0000   1.0000   1.0000   1.0000   1.0000
     1.0000   1.0000   1.0000   1.0000   1.0000   1.0000   1.0000   1.0000
     1.0000   1.0000   1.0000   1.0000   1.0000   1.0000   1.0000   1.0000
     1.0000   1.0000   1.0000   1.0000   1.0000   1.0000   1.0000   1.0000
     1.0000   1.0000   1.0000   1.0000   1.0000   1.0000   1.0000   1.0000
     1.0000   1.0000   1.0000   1.0000   1.0000   1.0000   1.0000   1.0000
     1.0000   1.0000   1.0000   1.0000   1.0000   1.0000   1.0000   1.0000
     1.0000   1.0000   1.0000   1.0000   1.0000   1.0000   1.0000   1.0000
     1.0000   1.0000   1.0000   1.0000   1.0000   1.0000   1.0000   1.0000
     1.0000   1.0000   1.0000   1.0000   1.0000   1.0000   1.0000   1.0000
     1.0000   1.0000   1.0000   1.0000   1.0000   1.0000   1.0000   1.0000
     1.0000   1.0000   1.0000   1.0000   1.0000   1.0000   1.0000   1.0000
     1.0000   1.0000   1.0000   1.0000   1.0000   1.0000   1.0000   1.0000
     1.0000   1.0000   1.0000   1.0000   1.0000   1.0000   1.0000   1.0000
     1.0000   1.0000   1.0000   1.0000   1.0000   1.0000   1.0000   1.0000
     1.0000   1.0000   1.0000   1.0000   1.0000   1.0000   1.0000   1.0000
     1.0000   1.0000   1.0000   1.0000   1.0000   1.0000   1.0000   1.0000
     1.0000   1.0000   1.0000   1.0000   1.0000   1.0000   1.0000   1.0000
     1.0000   1.0000   1.0000   1.0000   1.0000   1.0000   1.0000   1.0000
     1.0000   1.0000   1.0000   1.0000   1.0000   1.0000   1.0000   1.0000
     1.0000   1.0000   1.0000   1.0000   1.0000   1.0000   1.0000   1.0000
     1.0000   1.0000   1.0000   1.0000   1.0000   1.0000   1.0000   1.0000
     1.0000   1.0000   1.0000   1.0000   1.0000   1.0000   1.0000   1.0000
     1.0000   1.0000   1.0000   1.0000   1.0000   1.0000   1.0000   1.0000
     1.0000   1.0000   1.0000   1.0000   1.0000   1.0000   1.0000   1.0000
     1.0000   1.0000   1.0000   1.0000   1.0000   1.0000   1.0000   1.0000
     1.0000   1.0000   1.0000   1.0000   1.0000   1.0000   1.0000   1.0000
     1.0000   1.0000   1.0000   1.0000   1.0000   1.0000   1.0000   1.0000
     1.0000   1.0000   1.0000   1.0000   1.0000   1.0000   1.0000   1.0000
     1.0000   1.0000   1.0000   1.0000   1.0000   1.0000   1.0000   1.0000
     1.0000   1.0000   1.0000   1.0000   1.0000   1.0000   1.0000   1.0000
     1.0000   1.0000   1.0000   1.0000   1.0000   1.0000   1.0000   1.0000
     1.0000   1.0000   1.0000   1.0000   1.0000   1.0000   1.0000   1.0000
     1.0000   1.0000   1.0000   1.0000   1.0000   1.0000   1.0000   1.0000
     1.0000   1.0000   1.0000   1.0000   1.0000   1.0000   1.0000   1.0000
     1.0000   1.0000   1.0000   1.0000   1.0000   1.0000   1.0000   1.0000
     1.0000   1.0000   1.0000   1.0000   1.0000   1.0000   1.0000   1.0000
     1.0000   1.0000   1.0000   1.0000   1.0000   1.0000   1.0000   1.0000
     1.0000   1.0000   1.0000   1.0000   1.0000   1.0000   1.0000   1.0000
     1.0000   1.0000   1.0000   1.0000   1.0000   1.0000   1.0000   1.0000
     1.0000   1.0000   1.0000   1.0000   1.0000   1.0000   1.0000   1.0000
     1.0000   1.0000   1.0000   1.0000   1.0000   1.0000   1.0000   1.0000
     1.0000   1.0000   1.0000   1.0000   1.0000   1.0000   1.0000   1.0000
     1.0000   1.0000   1.0000   1.0000   1.0000   1.0000   1.0000   1.0000
     1.0000   1.0000   1.0000   1.0000   1.0000   1.0000   1.0000   1.0000
     1.0000   1.0000   1.0000   1.0000   1.0000   1.0000   1.0000   1.0000
     1.0000   1.0000   1.0000   1.0000   1.0000   1.0000   1.0000   1.0000
     1.0000   1.0000   1.0000   1.0000   1.0000   1.0000   1.0000   1.0000
     1.0000   1.0000   1.0000   1.0000   1.0000   1.0000   1.0000   1.0000
     1.0000   1.0000   1.0000   1.0000   1.0000   1.0000   1.0000   1.0000
     1.0000   1.0000   1.0000   1.0000   1.0000   1.0000   1.0000   1.0000
     1.0000   1.0000   1.0000   1.0000   1.0000   1.0000   1.0000   1.0000
     1.0000   1.0000   1.0000   1.0000   1.0000   1.0000   1.0000   1.0000
     1.0000   1.0000   1.0000   1.0000   1.0000   1.0000   1.0000   1.0000
     1.0000   1.0000   1.0000   1.0000   1.0000   1.0000   1.0000   1.0000
     1.0000   1.0000   1.0000   1.0000   1.0000   1.0000   1.0000   1.0000
     1.0000   1.0000   1.0000   1.0000   1.0000   1.0000   1.0000   1.0000
     1.0000   1.0000   1.0000   1.0000   1.0000   1.0000   1.0000   1.0000
     1.0000   1.0000   1.0000   1.0000   1.0000   1.0000   1.0000   1.0000
     1.0000   1.0000   1.0000   1.0000   1.0000   1.0000   1.0000   1.0000
     1.0000   1.0000   1.0000   1.0000   1.0000   0.9594   0.0204   0.0202
     0.0000   0.0000   0.0000   0.0000   0.0000   0.0000   0.0000   0.0000
     0.0000   0.0000   0.0000   0.0000   0.0000   0.0000   0.0000   0.0000
     0.0000   0.0000   0.0000   0.0000   0.0000   0.0000   0.0000   0.0000
     0.0000   0.0000   0.0000   0.0000   0.0000   0.0000   0.0000   0.0000
     0.0000   0.0000   0.0000   0.0000   0.0000   0.0000   0.0000   0.0000
     0.0000   0.0000   0.0000   0.0000   0.0000   0.0000   0.0000   0.0000
     0.0000   0.0000   0.0000   0.0000   0.0000   0.0000   0.0000   0.0000
     0.0000   0.0000   0.0000   0.0000   0.0000   0.0000   0.0000   0.0000
     0.0000   0.0000   0.0000   0.0000   0.0000   0.0000   0.0000   0.0000
     0.0000   0.0000   0.0000   0.0000   0.0000   0.0000   0.0000   0.0000
     0.0000   0.0000   0.0000   0.0000   0.0000   0.0000   0.0000   0.0000
     0.0000   0.0000   0.0000   0.0000   0.0000   0.0000   0.0000   0.0000
     0.0000   0.0000   0.0000   0.0000   0.0000   0.0000   0.0000   0.0000
     0.0000   0.0000   0.0000   0.0000   0.0000   0.0000   0.0000   0.0000
     0.0000   0.0000   0.0000   0.0000   0.0000   0.0000   0.0000   0.0000
     0.0000   0.0000   0.0000   0.0000   0.0000   0.0000   0.0000   0.0000
     0.0000   0.0000   0.0000   0.0000   0.0000   0.0000   0.0000   0.0000
     0.0000   0.0000   0.0000   0.0000   0.0000   0.0000   0.0000   0.0000
     0.0000   0.0000   0.0000   0.0000   0.0000   0.0000   0.0000   0.0000
     0.0000   0.0000   0.0000   0.0000   0.0000   0.0000   0.0000   0.0000
     0.0000   0.0000   0.0000   0.0000   0.0000   0.0000   0.0000   0.0000
     0.0000   0.0000   0.0000   0.0000   0.0000   0.0000   0.0000   0.0000
     0.0000   0.0000   0.0000   0.0000   0.0000   0.0000   0.0000   0.0000
     0.0000   0.0000   0.0000   0.0000   0.0000   0.0000   0.0000   0.0000
     0.0000   0.0000   0.0000   0.0000   0.0000   0.0000   0.0000   0.0000
     0.0000   0.0000   0.0000   0.0000   0.0000   0.0000   0.0000   0.0000
     0.0000   0.0000   0.0000   0.0000   0.0000   0.0000   0.0000   0.0000
     0.0000   0.0000   0.0000   0.0000   0.0000   0.0000   0.0000   0.0000
     0.0000   0.0000   0.0000   0.0000

     the Fermi energy is     4.2339 ev

!    total energy              =  -97467.22013622 Ry
     total all-electron energy =  -3401000.308862 Ry
     estimated scf accuracy    <       0.00000006 Ry
     smearing contrib. (-TS)   =      -0.00261843 Ry
     internal energy E=F+TS    =  -97467.21751779 Ry

     The total energy is F=E-TS. E is the sum of the following terms:
     one-electron contribution =  -17792.29261176 Ry
     hartree contribution      =    9951.29153723 Ry
     xc contribution           =   -6783.86485035 Ry
     ewald contribution        =  -14792.68131319 Ry
     one-center paw contrib.   =  -68049.67027973 Ry
      -> PAW hartree energy AE =      95.90708328 Ry
      -> PAW hartree energy PS =     -96.14388197 Ry
      -> PAW xc energy AE      =    -798.42971562 Ry
      -> PAW xc energy PS      =      33.30986877 Ry
      -> total E_H with PAW    =    9951.05473855 Ry
      -> total E_XC with PAW   =   -7548.98469719 Ry

     convergence has been achieved in  16 iterations


     -----------------------------------------------
     Non-local corr. energy    =      68.72883475 Ry
     -----------------------------------------------


     Forces acting on atoms (cartesian axes, Ry/au):

     atom    1 type  1   force =    -0.00000032    0.00370026   -0.00449844
     atom    2 type  1   force =    -0.00002628    0.01331640    0.01107892
     atom    3 type  1   force =    -0.00000384    0.00033441    0.00115649
     atom    4 type  1   force =    -0.00010717    0.00144708   -0.00058830
     atom    5 type  1   force =    -0.00244450    0.00359367   -0.00025898
     atom    6 type  1   force =    -0.00003190    0.00047565    0.00061878
     atom    7 type  1   force =     0.00120077   -0.00081966   -0.00059273
     atom    8 type  1   force =     0.00189716   -0.00392658   -0.00026291
     atom    9 type  1   force =     0.00039830   -0.00027019    0.00062020
     atom   10 type  1   force =     0.00320075   -0.00184510   -0.00449881
     atom   11 type  1   force =     0.01151723   -0.00667387    0.01107376
     atom   12 type  1   force =     0.00028607   -0.00016690    0.00115749
     atom   13 type  1   force =     0.00402298    0.00232405   -0.00247278
     atom   14 type  1   force =     0.00567348    0.00328208    0.00166805
     atom   15 type  1   force =     0.00036210    0.00020979    0.00061399
     atom   16 type  1   force =     0.00010827    0.00144960   -0.00058863
     atom   17 type  1   force =     0.00244808    0.00360927   -0.00025299
     atom   18 type  1   force =     0.00003782    0.00048662    0.00062202
     atom   19 type  1   force =     0.00000336    0.00000078   -0.00040090
     atom   20 type  1   force =     0.00001874    0.00000621   -0.00117197
     atom   21 type  1   force =     0.00001128    0.00000408    0.00059862
     atom   22 type  1   force =     0.00131237   -0.00062706   -0.00059062
     atom   23 type  1   force =     0.00436155    0.00031744   -0.00025656
     atom   24 type  1   force =     0.00044339   -0.00020882    0.00062529
     atom   25 type  1   force =     0.00000227   -0.00042251    0.00033127
     atom   26 type  1   force =     0.00001231    0.00094455    0.00074145
     atom   27 type  1   force =     0.00000397   -0.00007185    0.00005936
     atom   28 type  1   force =    -0.00036652    0.00021167    0.00033183
     atom   29 type  1   force =     0.00082326   -0.00046840    0.00074319
     atom   30 type  1   force =    -0.00006062    0.00003724    0.00005842
     atom   31 type  1   force =    -0.00120157   -0.00081386   -0.00058307
     atom   32 type  1   force =    -0.00189037   -0.00388911   -0.00024028
     atom   33 type  1   force =    -0.00040098   -0.00026195    0.00061459
     atom   34 type  1   force =    -0.00130407   -0.00063032   -0.00058230
     atom   35 type  1   force =    -0.00430905    0.00030983   -0.00023993
     atom   36 type  1   force =    -0.00042451   -0.00021508    0.00061616
     atom   37 type  1   force =    -0.00402875    0.00231915   -0.00246860
     atom   38 type  1   force =    -0.00566535    0.00325126    0.00166674
     atom   39 type  1   force =    -0.00036103    0.00019901    0.00060089
     atom   40 type  1   force =     0.00036322    0.00020774    0.00032899
     atom   41 type  1   force =    -0.00082410   -0.00048215    0.00073360
     atom   42 type  1   force =     0.00005680    0.00003091    0.00005616
     atom   43 type  1   force =    -0.00000724   -0.00464523   -0.00246885
     atom   44 type  1   force =    -0.00002321   -0.00653747    0.00166717
     atom   45 type  1   force =    -0.00000902   -0.00041438    0.00060113
     atom   46 type  1   force =    -0.00321129   -0.00185070   -0.00449388
     atom   47 type  1   force =    -0.01155331   -0.00666232    0.01109911
     atom   48 type  1   force =    -0.00030207   -0.00017142    0.00115049
     atom   49 type  2   force =     0.00000381    0.00000186   -0.00074814
     atom   50 type  2   force =    -0.00000024    0.00000025    0.00098190
     atom   51 type  2   force =     0.00325279   -0.00384013   -0.00173465
     atom   52 type  2   force =     0.00009098   -0.00023186   -0.00068900
     atom   53 type  2   force =     0.00075992   -0.00137694    0.00105964
     atom   54 type  2   force =     0.00097077    0.00056118    0.00035141
     atom   55 type  2   force =    -0.00004215   -0.00002220   -0.00024908
     atom   56 type  2   force =    -0.00006948   -0.00004001    0.00040517
     atom   57 type  2   force =    -0.00169796    0.00473638   -0.00173321
     atom   58 type  2   force =    -0.00015660    0.00019368   -0.00068864
     atom   59 type  2   force =    -0.00081171    0.00134687    0.00106107
     atom   60 type  2   force =    -0.00495247   -0.00090187   -0.00173629
     atom   61 type  2   force =    -0.00024925    0.00004033   -0.00069110
     atom   62 type  2   force =    -0.00157308    0.00002857    0.00105944
     atom   63 type  2   force =    -0.00325662   -0.00384108   -0.00173671
     atom   64 type  2   force =    -0.00008640   -0.00023375   -0.00069099
     atom   65 type  2   force =    -0.00076243   -0.00137621    0.00105934
     atom   66 type  2   force =    -0.00000218   -0.00045047    0.00007036
     atom   67 type  2   force =    -0.00000204   -0.00019926   -0.00064775
     atom   68 type  2   force =     0.00000036   -0.00039967    0.00037910
     atom   69 type  2   force =    -0.00038900    0.00022212    0.00006836
     atom   70 type  2   force =    -0.00017321    0.00009756   -0.00064710
     atom   71 type  2   force =    -0.00034637    0.00019762    0.00038019
     atom   72 type  2   force =     0.00000651   -0.00111833    0.00035101
     atom   73 type  2   force =    -0.00000021    0.00004625   -0.00025083
     atom   74 type  2   force =     0.00000193    0.00007935    0.00040399
     atom   75 type  2   force =    -0.00132093   -0.00076337    0.00016040
     atom   76 type  2   force =    -0.00002877   -0.00001545   -0.00015093
     atom   77 type  2   force =    -0.00169378   -0.00097788    0.00079930
     atom   78 type  2   force =    -0.00097026    0.00055959    0.00034857
     atom   79 type  2   force =     0.00003963   -0.00002296   -0.00025029
     atom   80 type  2   force =     0.00006822   -0.00003820    0.00040291
     atom   81 type  2   force =     0.00039146    0.00022580    0.00007786
     atom   82 type  2   force =     0.00017183    0.00009882   -0.00064762
     atom   83 type  2   force =     0.00034732    0.00019895    0.00038059
     atom   84 type  2   force =     0.00495582   -0.00090509   -0.00173238
[...]
     atom  132 type  2   force =    -0.00001234   -0.00001308   -0.00001506
     atom  133 type  2   force =     0.00001291   -0.00002970    0.00000334
     atom  134 type  2   force =    -0.00000871   -0.00000463    0.00001259
     atom  135 type  2   force =    -0.00000004   -0.00000008   -0.00003640
     atom  136 type  2   force =     0.00000003    0.00000005   -0.00000068
     atom  137 type  2   force =     0.00000014    0.00000001    0.00002800
     atom  138 type  2   force =    -0.00001602   -0.00000308   -0.00001489
     atom  139 type  2   force =    -0.00001806    0.00002700    0.00000306
     atom  140 type  2   force =    -0.00000774   -0.00000481    0.00001334
     atom  141 type  2   force =    -0.00002011   -0.00001199   -0.00000361
     atom  142 type  2   force =    -0.00001298   -0.00000695   -0.00000161
     atom  143 type  2   force =    -0.00000851   -0.00000469   -0.00000114
     atom  144 type  1   force =     0.00000147   -0.00000078   -0.00000483

     Total force =     0.011510     Total SCF correction =     0.000286


     Computing stress (Cartesian axis) and pressure



     -----------------------------------------------
     Non-local corr. energy    =      68.72824879 Ry
     -----------------------------------------------

          total   stress  (Ry/bohr**3)                   (kbar)     P=       -1.46
  -0.00001062  -0.00000000   0.00000000           -1.56       -0.00        0.00
  -0.00000000  -0.00001062  -0.00000000           -0.00       -1.56       -0.00
   0.00000000  -0.00000000  -0.00000861            0.00       -0.00       -1.27

     kinetic stress (kbar)  15038.55      0.00     -0.00
                                0.00  15038.55      0.00
                               -0.00      0.00  15050.51

     local   stress (kbar)  -7365.21      0.07     -0.01
                                0.07  -7365.17      0.01
                               -0.01      0.01   1364.21

     nonloc. stress (kbar)  -1146.30      0.00     -0.00
                                0.00  -1146.30      0.00
                               -0.00      0.00  -1150.84

     hartree stress (kbar)  11931.83     -0.03      0.00
                               -0.03  11931.81     -0.00
                                0.00     -0.00   7998.28

     exc-cor stress (kbar)   6922.90     -0.00      0.00
                               -0.00   6922.90     -0.00
                                0.00     -0.00   6921.88

     corecor stress (kbar) -11275.55     -0.00      0.00
                               -0.00 -11275.55      0.00
                                0.00      0.00 -11275.50

     ewald   stress (kbar) -14190.71     -0.04      0.01
                               -0.04 -14190.74     -0.01
                                0.01     -0.01 -18994.00

     hubbard stress (kbar)      0.00      0.00      0.00
                                0.00      0.00      0.00
                                0.00      0.00      0.00

     DFT-D   stress (kbar)      0.00      0.00      0.00
                                0.00      0.00      0.00
                                0.00      0.00      0.00

     XDM     stress (kbar)      0.00      0.00      0.00
                                0.00      0.00      0.00
                                0.00      0.00      0.00

     dft-nl  stress (kbar)     82.92      0.00     -0.00
                                0.00     82.92      0.00
                               -0.00      0.00     84.20

     TS-vdW  stress (kbar)      0.00      0.00      0.00
                                0.00      0.00      0.00
                                0.00      0.00      0.00

     MDB     stress (kbar)      0.00      0.00      0.00
                                0.00      0.00      0.00
                                0.00      0.00      0.00

     3D-RISM stress (kbar)      0.00      0.00      0.00
                                0.00      0.00      0.00
                                0.00      0.00      0.00

     Energy error            =      8.1E-04 Ry
     Gradient error          =      3.6E-03 Ry/Bohr

     number of scf cycles    =  17
     number of bfgs steps    =  16

     energy             old  =  -97467.2562060768 Ry
     energy             new  =  -97467.2570122693 Ry

     CASE: energy            _new < energy            _old

     new trust radius        =       0.0549859135 bohr
     new conv_thr            =       0.0000000036 Ry


ATOMIC_POSITIONS (angstrom)
Pb            2.3558583468        4.1335443048       22.0927018958
Pb            2.3556840201        3.8074391224        7.4379613394
Pb            2.3557729577        4.0867062267       14.7626338251
Pb            0.0050329882        8.1860780314       22.1380864856
Pb            0.0197624848        8.1281921110        7.3708290821
Pb            0.0025593685        8.1647403001       14.7543964490
Pb           -2.3302650608       12.2309541160       22.1380882552
Pb           -2.3729914401       12.2724982429        7.3707123034
Pb           -2.3500080976       12.2395102550       14.7543683476
Pb           -4.6644277930       16.2929453372       22.0926156872
Pb           -4.9466382385       16.4557834076        7.4382521177
Pb           -4.7050809853       16.3164540717       14.7625983087
Pb            7.1418200042        4.1228470105       22.1373100616
Pb            7.0594778977        4.0753384395        7.3770940956
Pb            7.0682283648        4.0803928617       14.7534723823
Pb            4.7064948517        8.1861046289       22.1380651908
Pb            4.6917541478        8.1282279507        7.3707621401
Pb            4.7089601086        8.1647338860       14.7543631637
Pb            2.3557544374       12.2398775984       22.1273732099
Pb            2.3557437789       12.2398280843        7.3657548562
Pb            2.3557481497       12.2398621273       14.7574710254
Pb            0.0204774096       16.3025444789       22.1380839685
Pb           -0.0369121109       16.3186941706        7.3707584004
Pb            0.0031841581       16.3153614285       14.7543375196
Pb           11.7783030066        4.0563899693       22.1732790435
Pb           11.7783182161        4.0652696909        7.3852065478
Pb           11.7782948127        4.0778848022       14.7542616931
Pb            9.4024935258        8.1714113798       22.1732205778
Pb            9.4101535540        8.1669688742        7.3851411022
Pb            9.4210867574        8.1607013469       14.7542454510
Pb            7.0417901080       12.2309503741       22.1380665372
Pb            7.0844511070       12.2725670046        7.3707674407
Pb            7.0615276780       12.2395027371       14.7544031871
Pb            4.6910623348       16.3025558770       22.1380860147
Pb            4.7485052176       16.3186270785        7.3708833501
Pb            4.7083224633       16.3153630385       14.7544085378
Pb           16.4147803504        4.1228777291       22.1373684540
Pb           16.4971109159        4.0752968069        7.3772325563
Pb           16.4883773088        4.0803960455       14.7535986986
Pb           14.1541399370        8.1714235477       22.1732839102
Pb           14.1464111322        8.1669303438        7.3852077238
Pb           14.1355156109        8.1607099309       14.7542794864
Pb           11.7783308005       12.1533960663       22.1371830054
Pb           11.7782556617       12.2484941060        7.3770337221
Pb           11.7783010178       12.2384972745       14.7535564755
Pb            9.3760251430       16.2928748927       22.0926134658
Pb            9.6583780180       16.4559999022        7.4379854852
Pb            9.4166161535       16.3164563393       14.7626642479
I             2.3557174546        1.3597389787       12.8950838538
I             2.3557442424        1.3597076641       20.2873441162
I             0.0532643043        5.3487455456        5.5129586276
I             0.0022665567        5.4428731340       12.8781645141
I             0.0156392032        5.4073909281       20.2807289153
I            -2.3600729664        9.5171733249        5.4822880775
I            -2.3566472456        9.5192561153       12.8754427902
I            -2.3557244742        9.5197569699       20.2624838099
I            -4.7632719462       13.6912865609        5.5128912296
I            -4.7074387320       13.6003305158       12.8781182720
I            -4.7312733130       13.6293210998       20.2806167108
I             6.9617688721        1.3590815244        5.5129675641
I             7.0685628266        1.3563103479       12.8780651421
I             7.0313906014        1.3624045226       20.2806446339
I             4.6581902848        5.3487713850        5.5129092270
I             4.7091676346        5.4428931774       12.8780936713
I             4.6958711770        5.4074343257       20.2806580749
I             2.3557092095        9.5142062723        5.4687084841
I             2.3557239366        9.5205661102       12.8710997396
I             2.3557249586        9.5172782306       20.2553822897
I            -0.0047557739       13.6027672524        5.4686903133
I             0.0006761414       13.5996341639       12.8710809347
I            -0.0021613331       13.6012847367       20.2553880691
I            11.7782871445        1.3649586019        5.4823172906
I            11.7782861226        1.3610208986       12.8754375606
I            11.7782832694        1.3599706877       20.2624781869
I             9.4045564892        5.4292867975        5.4958272148
I             9.4234196971        5.4402705284       12.8740529976
I             9.3765819093        5.4130763212       20.2775526336
I             7.0715301610        9.5171965949        5.4822719062
I             7.0681123624        9.5192775391       12.8754323421
I             7.0672038000        9.5197673426       20.2624495224
I             4.7162081960       13.6027855069        5.4686855177
I             4.7107802182       13.5996406124       12.8711411707
I             4.7136286802       13.6012954110       20.2553831756
I            16.5948479169        1.3590493149        5.5130193377
I            16.4879831614        1.3563255419       12.8781752704
I            16.5253023881        1.3624225927       20.2807029814
I            14.1521426801        5.4292147238        5.4958497519
I            14.1331555786        5.4402563396       12.8741256966
I            14.1802071832        5.4130065488       20.2775907322
I            11.7782876289        9.5406433680        5.4957843154
I            11.7782731032        9.5190286167       12.8740873965
I            11.7783381239        9.5727907328       20.2774989533
I             9.4747136198       13.6913584203        5.5128983670
I             9.4188864958       13.6003508884       12.8781572666
I             9.4428227915       13.6293812844       20.2806056695
I             0.0518993731        2.6895899385        2.0710199135
I            -0.0192676799        2.7308628831        9.3720561803
I            -0.0009336492        2.7203735870       16.6495341700
I            -2.3580349085        6.8014169745        1.8995000773
I            -2.3493896783        6.8041554449        9.2570886847
I            -2.3536621409        6.7983013720       16.6479504048
I            -4.7110749890       10.8768735527        1.8994242172
I            -4.7043548065       10.8830225322        9.2569559845
I            -4.7115702169       10.8823169004       16.6479274608
I            -7.0667364267       15.0193205493        2.0706200315
I            -7.0667627510       14.9373835473        9.3720008637
I            -7.0667778735       14.9587770594       16.6495186720
I             4.6597201659        2.6896059382        2.0707661078
I             4.7308218640        2.7308651704        9.3719535975
I             4.7124583354        2.7203691104       16.6494895947
I             2.3557542050        6.8002255415        1.8871831020
I             2.3557601404        6.7806776801        9.2183800666
I             2.3557464837        6.8025955967       16.6515388588
I            -0.0012311364       10.8790995753        1.8862273456
I            -0.0179688484       10.8694078090        9.2079156553
I            -0.0006499661       10.8794949329       16.6487399239
I            -2.3551769096       14.9598030292        1.8871734913
I            -2.3719233214       14.9693232078        9.2183984556
I            -2.3531419071       14.9586254704       16.6515119756
I             9.4253028518        2.7211862367        1.8994583844
I             9.4233541910        2.7122436351        9.2570148298
I             9.4203421433        2.7189058567       16.6478946934
I             7.0695250504        6.8014130772        1.8994178320
I             7.0608494186        6.8041737444        9.2570188047
I             7.0651349194        6.7982668073       16.6478969730
I             4.7127273495       10.8791068703        1.8862126315
I             4.7294235953       10.8693832826        9.2079216980
I             4.7120948380       10.8794811484       16.6487359322
I             2.3557501182       14.9615752198        1.8862393569
I             2.3557087069       14.9807130756        9.2079737184
I             2.3557085456       14.9608453526       16.6487343691
I            14.1312556912        2.7211577879        1.8995106037
I            14.1331920556        2.7122220150        9.2571242142
I            14.1361654347        2.7189087037       16.6479497315
I            11.7782692514        6.7998417494        1.8853553638
I            11.7782587421        6.7998318235        9.2571719524
I            11.7782657799        6.7998304636       16.6569685449
I             9.4225388908       10.8768896937        1.8993924335
I             9.4157842489       10.8830287753        9.2569912055
I             9.4230496510       10.8822942692       16.6479290823
I             7.0666643800       14.9597903892        1.8871825611
I             7.0832625910       14.9692081074        9.2185047525
I             7.0646173738       14.9586168596       16.6515670520
Pb            2.3556111385        1.3593521861        3.9836996954



     Writing config-only to output data dir ./PbI2.save/
     NEW-OLD atomic charge density approx. for the potential

     Check: negative core charge=   -0.000001


     -----------------------------------------------
     Non-local corr. energy    =      68.72802951 Ry
     -----------------------------------------------


     total cpu time spent up to now is   153695.6 secs

     Self-consistent Calculation

     iteration #  1     ecut=    70.00 Ry     beta= 0.70
     Davidson diagonalization with overlap

---- Real-time Memory Report at c_bands before calling an iterative solver
          2118 MiB given to the printing process from OS
             0 MiB allocation reported by mallinfo(arena+hblkhd)
       1796875 MiB available memory on the node where the printing process lives
------------------
     ethr =  1.00E-06,  avg # of iterations =  7.0

     Threshold (ethr) on eigenvalues was too large:
     Diagonalizing with lowered threshold

     Davidson diagonalization with overlap

---- Real-time Memory Report at c_bands before calling an iterative solver
          2118 MiB given to the printing process from OS
             0 MiB allocation reported by mallinfo(arena+hblkhd)
       1784688 MiB available memory on the node where the printing process lives
------------------
     c_bands:  1 eigenvalues not converged

     Maximum CPU time exceeded

     max_seconds     =  154800.00
     elapsed seconds =  154880.50
     Calculation stopped in k-point loop, point #     1
     Calculation stopped in scf loop at iteration #     0

     Writing config to output data dir ./PbI2.save/
     Message from routine punch:
     wavefunctions written to file
 
     init_run     :     30.37s CPU     31.53s WALL (       1 calls)
     electrons    : 149411.29s CPU 151399.60s WALL (      18 calls)
     update_pot   :     32.60s CPU     32.96s WALL (      17 calls)
     forces       :    189.13s CPU    196.85s WALL (      17 calls)
     stress       :   3097.00s CPU   3136.78s WALL (      17 calls)

     Called by init_run:
     wfcinit      :     24.37s CPU     25.01s WALL (       1 calls)
     wfcinit:atom :      0.04s CPU      0.07s WALL (       1 calls)
     wfcinit:wfcr :     24.08s CPU     24.52s WALL (       1 calls)
     potinit      :      1.37s CPU      1.61s WALL (       1 calls)
     hinit0       :      0.66s CPU      0.70s WALL (       1 calls)

     Called by electrons:
     c_bands      : 147044.52s CPU 148963.00s WALL (     222 calls)
     sum_band     :   1933.42s CPU   1982.03s WALL (     221 calls)
     v_of_rho     :    174.91s CPU    176.52s WALL (     228 calls)
     v_h          :      3.48s CPU      3.51s WALL (     228 calls)
     v_xc         :    196.62s CPU    198.47s WALL (     262 calls)
     newd         :     60.50s CPU     78.16s WALL (     228 calls)
     PAW_pot      :     71.42s CPU     72.45s WALL (     245 calls)
     mix_rho      :      8.32s CPU      8.54s WALL (     221 calls)
     vdW_kernel   :      0.15s CPU      0.15s WALL (       1 calls)

     Called by c_bands:
     init_us_2    :     21.33s CPU     21.78s WALL (     461 calls)
     init_us_2:cp :     21.32s CPU     21.78s WALL (     461 calls)
     cegterg      : 146944.70s CPU 148692.72s WALL (     223 calls)

     Called by sum_band:
     sum_band:wei :      0.24s CPU      0.27s WALL (     221 calls)
     sum_band:loo :   1866.05s CPU   1882.55s WALL (     221 calls)
     sum_band:buf :      0.00s CPU      0.00s WALL (     221 calls)
     sum_band:ini :     17.78s CPU     18.07s WALL (     221 calls)
     sum_band:cal :    507.59s CPU    511.74s WALL (     238 calls)
     sum_band:bec :     10.64s CPU     10.82s WALL (     238 calls)
     addusdens    :     57.88s CPU     79.01s WALL (     221 calls)
     addusd:skk   :      7.74s CPU      8.35s WALL (     442 calls)
     addusd:dgemm :     30.64s CPU     50.76s WALL (     442 calls)
     addusd:qvan2 :     18.25s CPU     18.44s WALL (     442 calls)

     Called by *egterg:
     cdiaghg      : 129217.50s CPU 130140.46s WALL (    3961 calls)
     cegterg:over :   2693.51s CPU   2811.30s WALL (    3767 calls)
     cegterg:upda :   1545.14s CPU   1569.95s WALL (    3767 calls)
     cegterg:last :    661.19s CPU    666.20s WALL (     227 calls)
     h_psi        :  10709.13s CPU  10847.72s WALL (    3991 calls)
     s_psi        :   1292.10s CPU   1325.37s WALL (    3991 calls)
     g_psi        :      5.01s CPU      5.08s WALL (    3767 calls)

     Called by h_psi:
     h_psi:calbec :   1485.71s CPU   1498.12s WALL (    3991 calls)
     vloc_psi     :   7905.78s CPU   7979.98s WALL (    3991 calls)
     vloc_psi:tg_ :      1.27s CPU      1.39s WALL (    3991 calls)
     add_vuspsi   :   1297.08s CPU   1332.02s WALL (    3991 calls)

     General routines
     calbec       :   2172.48s CPU   2190.68s WALL (    4314 calls)
     fft          :    186.90s CPU    188.54s WALL (   17231 calls)
     ffts         :      5.24s CPU      5.32s WALL (     449 calls)
     fftw         :   9061.58s CPU   9145.70s WALL ( 2051654 calls)
     interpolate  :      6.22s CPU      6.31s WALL (     228 calls)
     davcio       :      0.00s CPU      0.01s WALL (       1 calls)
 
     Parallel routines
     fft_scatt_xy :    220.30s CPU    221.94s WALL ( 2069334 calls)
     fft_scatt_yz :   7764.46s CPU   7830.70s WALL ( 2069334 calls)
     fft_scatt_tg :     12.96s CPU     13.33s WALL ( 2051654 calls)

     PAW routines
     PAW_pot      :     71.42s CPU     72.45s WALL (     245 calls)
 
     PWSCF        :   1d18h27m CPU   1d19h 1m WALL

 
   This run was terminated on:   6:26:15  11Mar2024            

=------------------------------------------------------------------------------=
   JOB DONE.
=------------------------------------------------------------------------------=
