
     Program PWSCF v.7.1 starts on 28Feb2024 at  7:27:25 

     This program is part of the open-source Quantum ESPRESSO suite
     for quantum simulation of materials; please cite
         "P. Giannozzi et al., J. Phys.:Condens. Matter 21 395502 (2009);
         "P. Giannozzi et al., J. Phys.:Condens. Matter 29 465901 (2017);
         "P. Giannozzi et al., J. Chem. Phys. 152 154105 (2020);
          URL http://www.quantum-espresso.org", 
     in publications or presentations arising from this work. More details at
     http://www.quantum-espresso.org/quote

     Parallel version (MPI & OpenMP), running on     256 processor cores
     Number of MPI processes:               256
     Threads/MPI process:                     1

     MPI processes distributed on     2 nodes
     1335242 MiB available memory on the printing compute node when the environment starts
 
     Reading input from espresso.pwi
Warning: card &CELL ignored
Warning: card    CELL_DYNAMICS    = 'BFGS' ignored
Warning: card / ignored

     Current dimensions of program PWSCF are:
     Max number of different atomic species (ntypx) = 10
     Max number of k-points (npk) =  40000
     Max angular momentum in pseudopotentials (lmaxx) =  4
     file C.pbe-n-kjpaw_psl.1.0.0.UPF: wavefunction(s)  2S 2P renormalized

     **************************************************************************
     Initializing libbeef V0.1.2 with the BEEF-vdW functional.
     Citation: Wellendorff et al., PRB 85, 235149 (2012).
     **************************************************************************


     IMPORTANT: XC functional enforced from input :
     Exchange-correlation= BEEF-VDW
                           (   1   4  43  14   2   0   0)
     Any further DFT definition will be discarded
     Please, verify this is what you really want

 
     R & G space division:  proc/nbgrp/npool/nimage =     256
     WARNING: too many processors for an effective parallelization!
     wavefunctions fft division:  task group distribution
                                  #TG    x Z-proc =       8     32
     Subspace diagonalization in iterative solution of the eigenvalue problem:
     a serial algorithm will be used

 
     Parallelization info
     --------------------
     sticks:   dense  smooth     PW     G-vecs:    dense   smooth      PW
     Min         124      99     24                16605    11875    1478
     Max         127     100     25                16616    11887    1491
     Sum       31757   25377   6349              4252701  3041563  379965
 
     Using Pencil Decomposition
 


     bravais-lattice index     =            1
     lattice parameter (alat)  =      33.7534  a.u.
     unit-cell volume          =   38454.8879 (a.u.)^3
     number of atoms/cell      =          999
     number of atomic types    =            1
     number of electrons       =      3994.00
     number of Kohn-Sham states=         2396
     kinetic-energy cutoff     =      70.0000  Ry
     charge density cutoff     =     350.0000  Ry
     scf convergence threshold =      1.0E-07
     mixing beta               =       0.7000
     number of iterations used =            8  plain     mixing
     energy convergence thresh.=      1.0E-04
     force convergence thresh. =      1.0E-03
     Exchange-correlation= BEEF-VDW
                           (   1   4  43  14   2   0   0)
     nstep                     =           50


     celldm(1)=  33.753373  celldm(2)=   0.000000  celldm(3)=   0.000000
     celldm(4)=   0.000000  celldm(5)=   0.000000  celldm(6)=   0.000000

     crystal axes: (cart. coord. in units of alat)
               a(1) = (   1.000000   0.000000   0.000000 )  
               a(2) = (   0.000000   1.000000   0.000000 )  
               a(3) = (   0.000000   0.000000   1.000000 )  

     reciprocal axes: (cart. coord. in units 2 pi/alat)
               b(1) = (  1.000000  0.000000  0.000000 )  
               b(2) = (  0.000000  1.000000  0.000000 )  
               b(3) = (  0.000000  0.000000  1.000000 )  


     PseudoPot. # 1 for C  read from file:
     //group///packages/espresso/pseudo/psl_1.0.0/pslibrary.1.0.0/pbe/PSEUDOPOTENTIALS/C.pbe-n-kjpaw_psl.1.0.0.UPF
     MD5 check sum: 5459cf7f2c8c37df2f7cde8914797f4d
     Pseudo is Projector augmented-wave + core cor, Zval =  4.0
     Generated using 'atomic' code by A. Dal Corso  v.7.1
     Shape of augmentation charge: PSQ
     Using radial grid of 1073 points,  4 beta functions with: 
                l(1) =   0
                l(2) =   0
                l(3) =   1
                l(4) =   1
     Q(r) pseudized with 0 coefficients 


     atomic species   valence    mass     pseudopotential
        C              4.00    12.01100     C ( 1.00)

      2 Sym. Ops. (no inversion) found


                                    s                        frac. trans.

      isym =  1     identity                                     

 cryst.   s( 1) = (     1          0          0      )
                  (     0          1          0      )
                  (     0          0          1      )

 cart.    s( 1) = (  1.0000000  0.0000000  0.0000000 )
                  (  0.0000000  1.0000000  0.0000000 )
                  (  0.0000000  0.0000000  1.0000000 )


      isym =  2     inv. 180 deg rotation - cart. axis [-1,0,1]  

 cryst.   s( 2) = (     0          0          1      )
                  (     0          1          0      )
                  (     1          0          0      )

 cart.    s( 2) = (  0.0000000  0.0000000  1.0000000 )
                  (  0.0000000  1.0000000  0.0000000 )
                  (  1.0000000  0.0000000  0.0000000 )


     point group C_s (m)    
     there are  2 classes
     the character table:

       E     s    
A'     1.00  1.00
A''    1.00 -1.00

     the symmetry operations in each class and the name of the first element:

     E        1
          identity                                               
     s        2
          inv. 180 deg rotation - cart. axis [-1,0,1]            

   Cartesian axes

     site n.     atom                  positions (alat units)
         1           C   tau(   1) = (   0.0500012   0.1499988   0.2500012  )
         2           C   tau(   2) = (   0.0500012   0.1499988   0.4500012  )
         3           C   tau(   3) = (   0.0500012   0.1499988   0.6500012  )
         4           C   tau(   4) = (   0.0500012   0.1499988   0.8500012  )
         5           C   tau(   5) = (   0.0500012   0.3499988   0.0500012  )
         6           C   tau(   6) = (   0.0500012   0.3499988   0.2500012  )
         7           C   tau(   7) = (   0.0500012   0.3499988   0.4500012  )
         8           C   tau(   8) = (   0.0500012   0.3499988   0.6500012  )
         9           C   tau(   9) = (   0.0500012   0.3499988   0.8500012  )
        10           C   tau(  10) = (   0.0500012   0.5499988   0.0500012  )
        11           C   tau(  11) = (   0.0500012   0.5499988   0.2500012  )
        12           C   tau(  12) = (   0.0500012   0.5499988   0.4500012  )
        13           C   tau(  13) = (   0.0500012   0.5499988   0.6500012  )
        14           C   tau(  14) = (   0.0500012   0.5499988   0.8500012  )
        15           C   tau(  15) = (   0.0500012   0.7499988   0.0500012  )
        16           C   tau(  16) = (   0.0500012   0.7499988   0.2500012  )
        17           C   tau(  17) = (   0.0500012   0.7499988   0.4500012  )
        18           C   tau(  18) = (   0.0500012   0.7499988   0.6500012  )
        19           C   tau(  19) = (   0.0500012   0.7499988   0.8500012  )
        20           C   tau(  20) = (   0.0500012   0.9499988   0.0500012  )
        21           C   tau(  21) = (   0.0500012   0.9499988   0.2500012  )
        22           C   tau(  22) = (   0.0500012   0.9499988   0.4500012  )
        23           C   tau(  23) = (   0.0500012   0.9499988   0.6500012  )
        24           C   tau(  24) = (   0.0500012   0.9499988   0.8500012  )
        25           C   tau(  25) = (   0.2500012   0.1499988   0.0500012  )
        26           C   tau(  26) = (   0.2500012   0.1499988   0.2500012  )
        27           C   tau(  27) = (   0.2500012   0.1499988   0.4500012  )
        28           C   tau(  28) = (   0.2500012   0.1499988   0.6500012  )
        29           C   tau(  29) = (   0.2500012   0.1499988   0.8500012  )
        30           C   tau(  30) = (   0.2500012   0.3499988   0.0500012  )
        31           C   tau(  31) = (   0.2500012   0.3499988   0.2500012  )
        32           C   tau(  32) = (   0.2500012   0.3499988   0.4500012  )
        33           C   tau(  33) = (   0.2500012   0.3499988   0.6500012  )
        34           C   tau(  34) = (   0.2500012   0.3499988   0.8500012  )
        35           C   tau(  35) = (   0.2500012   0.5499988   0.0500012  )
        36           C   tau(  36) = (   0.2500012   0.5499988   0.2500012  )
        37           C   tau(  37) = (   0.2500012   0.5499988   0.4500012  )
        38           C   tau(  38) = (   0.2500012   0.5499988   0.6500012  )
        39           C   tau(  39) = (   0.2500012   0.5499988   0.8500012  )
        40           C   tau(  40) = (   0.2500012   0.7499988   0.0500012  )
        41           C   tau(  41) = (   0.2500012   0.7499988   0.2500012  )
        42           C   tau(  42) = (   0.2500012   0.7499988   0.4500012  )
        43           C   tau(  43) = (   0.2500012   0.7499988   0.6500012  )
        44           C   tau(  44) = (   0.2500012   0.7499988   0.8500012  )
        45           C   tau(  45) = (   0.2500012   0.9499988   0.0500012  )
        46           C   tau(  46) = (   0.2500012   0.9499988   0.2500012  )
        47           C   tau(  47) = (   0.2500012   0.9499988   0.4500012  )
        48           C   tau(  48) = (   0.2500012   0.9499988   0.6500012  )
        49           C   tau(  49) = (   0.2500012   0.9499988   0.8500012  )
        50           C   tau(  50) = (   0.4500012   0.1499988   0.0500012  )
        51           C   tau(  51) = (   0.4500012   0.1499988   0.2500012  )
        52           C   tau(  52) = (   0.4500012   0.1499988   0.4500012  )
        53           C   tau(  53) = (   0.4500012   0.1499988   0.6500012  )
        54           C   tau(  54) = (   0.4500012   0.1499988   0.8500012  )
        55           C   tau(  55) = (   0.4500012   0.3499988   0.0500012  )
        56           C   tau(  56) = (   0.4500012   0.3499988   0.2500012  )
        57           C   tau(  57) = (   0.4500012   0.3499988   0.4500012  )
        58           C   tau(  58) = (   0.4500012   0.3499988   0.6500012  )
        59           C   tau(  59) = (   0.4500012   0.3499988   0.8500012  )
        60           C   tau(  60) = (   0.4500012   0.5499988   0.0500012  )
        61           C   tau(  61) = (   0.4500012   0.5499988   0.2500012  )
        62           C   tau(  62) = (   0.4500012   0.5499988   0.4500012  )
        63           C   tau(  63) = (   0.4500012   0.5499988   0.6500012  )
        64           C   tau(  64) = (   0.4500012   0.5499988   0.8500012  )
        65           C   tau(  65) = (   0.4500012   0.7499988   0.0500012  )
        66           C   tau(  66) = (   0.4500012   0.7499988   0.2500012  )
        67           C   tau(  67) = (   0.4500012   0.7499988   0.4500012  )
        68           C   tau(  68) = (   0.4500012   0.7499988   0.6500012  )
        69           C   tau(  69) = (   0.4500012   0.7499988   0.8500012  )
        70           C   tau(  70) = (   0.4500012   0.9499988   0.0500012  )
        71           C   tau(  71) = (   0.4500012   0.9499988   0.2500012  )
        72           C   tau(  72) = (   0.4500012   0.9499988   0.4500012  )
        73           C   tau(  73) = (   0.4500012   0.9499988   0.6500012  )
        74           C   tau(  74) = (   0.4500012   0.9499988   0.8500012  )
        75           C   tau(  75) = (   0.6500012   0.1499988   0.0500012  )
        76           C   tau(  76) = (   0.6500012   0.1499988   0.2500012  )
        77           C   tau(  77) = (   0.6500012   0.1499988   0.4500012  )
        78           C   tau(  78) = (   0.6500012   0.1499988   0.6500012  )
        79           C   tau(  79) = (   0.6500012   0.1499988   0.8500012  )
        80           C   tau(  80) = (   0.6500012   0.3499988   0.0500012  )
        81           C   tau(  81) = (   0.6500012   0.3499988   0.2500012  )
        82           C   tau(  82) = (   0.6500012   0.3499988   0.4500012  )
        83           C   tau(  83) = (   0.6500012   0.3499988   0.6500012  )
        84           C   tau(  84) = (   0.6500012   0.3499988   0.8500012  )
        85           C   tau(  85) = (   0.6500012   0.5499988   0.0500012  )
        86           C   tau(  86) = (   0.6500012   0.5499988   0.2500012  )
        87           C   tau(  87) = (   0.6500012   0.5499988   0.4500012  )
        88           C   tau(  88) = (   0.6500012   0.5499988   0.6500012  )
        89           C   tau(  89) = (   0.6500012   0.5499988   0.8500012  )
        90           C   tau(  90) = (   0.6500012   0.7499988   0.0500012  )
        91           C   tau(  91) = (   0.6500012   0.7499988   0.2500012  )
        92           C   tau(  92) = (   0.6500012   0.7499988   0.4500012  )
        93           C   tau(  93) = (   0.6500012   0.7499988   0.6500012  )
        94           C   tau(  94) = (   0.6500012   0.7499988   0.8500012  )
        95           C   tau(  95) = (   0.6500012   0.9499988   0.0500012  )
        96           C   tau(  96) = (   0.6500012   0.9499988   0.2500012  )
        97           C   tau(  97) = (   0.6500012   0.9499988   0.4500012  )
        98           C   tau(  98) = (   0.6500012   0.9499988   0.6500012  )
        99           C   tau(  99) = (   0.6500012   0.9499988   0.8500012  )
       100           C   tau( 100) = (   0.8500012   0.1499988   0.0500012  )
       101           C   tau( 101) = (   0.8500012   0.1499988   0.2500012  )
       102           C   tau( 102) = (   0.8500012   0.1499988   0.4500012  )
       103           C   tau( 103) = (   0.8500012   0.1499988   0.6500012  )
       104           C   tau( 104) = (   0.8500012   0.1499988   0.8500012  )
       105           C   tau( 105) = (   0.8500012   0.3499988   0.0500012  )
       106           C   tau( 106) = (   0.8500012   0.3499988   0.2500012  )
       107           C   tau( 107) = (   0.8500012   0.3499988   0.4500012  )
       108           C   tau( 108) = (   0.8500012   0.3499988   0.6500012  )
       109           C   tau( 109) = (   0.8500012   0.3499988   0.8500012  )
       110           C   tau( 110) = (   0.8500012   0.5499988   0.0500012  )
       111           C   tau( 111) = (   0.8500012   0.5499988   0.2500012  )
       112           C   tau( 112) = (   0.8500012   0.5499988   0.4500012  )
       113           C   tau( 113) = (   0.8500012   0.5499988   0.6500012  )
       114           C   tau( 114) = (   0.8500012   0.5499988   0.8500012  )
       115           C   tau( 115) = (   0.8500012   0.7499988   0.0500012  )
       116           C   tau( 116) = (   0.8500012   0.7499988   0.2500012  )
       117           C   tau( 117) = (   0.8500012   0.7499988   0.4500012  )
       118           C   tau( 118) = (   0.8500012   0.7499988   0.6500012  )
       119           C   tau( 119) = (   0.8500012   0.7499988   0.8500012  )
       120           C   tau( 120) = (   0.8500012   0.9499988   0.0500012  )
       121           C   tau( 121) = (   0.8500012   0.9499988   0.2500012  )
       122           C   tau( 122) = (   0.8500012   0.9499988   0.4500012  )
       123           C   tau( 123) = (   0.8500012   0.9499988   0.6500012  )
       124           C   tau( 124) = (   0.8500012   0.9499988   0.8500012  )
       125           C   tau( 125) = (   0.0000000   0.0000000   0.1000000  )
       126           C   tau( 126) = (   0.0000000   0.0000000   0.3000000  )
       127           C   tau( 127) = (   0.0000000   0.0000000   0.5000000  )
       128           C   tau( 128) = (   0.0000000   0.0000000   0.7000000  )
       129           C   tau( 129) = (   0.0000000   0.0000000   0.9000000  )
       130           C   tau( 130) = (   0.0000000   0.2000000   0.1000000  )
       131           C   tau( 131) = (   0.0000000   0.2000000   0.3000000  )
       132           C   tau( 132) = (   0.0000000   0.2000000   0.5000000  )
       133           C   tau( 133) = (   0.0000000   0.2000000   0.7000000  )
       134           C   tau( 134) = (   0.0000000   0.2000000   0.9000000  )
       135           C   tau( 135) = (   0.0000000   0.4000000   0.1000000  )
       136           C   tau( 136) = (   0.0000000   0.4000000   0.3000000  )
       137           C   tau( 137) = (   0.0000000   0.4000000   0.5000000  )
       138           C   tau( 138) = (   0.0000000   0.4000000   0.7000000  )
       139           C   tau( 139) = (   0.0000000   0.4000000   0.9000000  )
       140           C   tau( 140) = (   0.0000000   0.6000000   0.1000000  )
       141           C   tau( 141) = (   0.0000000   0.6000000   0.3000000  )
       142           C   tau( 142) = (   0.0000000   0.6000000   0.5000000  )
       143           C   tau( 143) = (   0.0000000   0.6000000   0.7000000  )
       144           C   tau( 144) = (   0.0000000   0.6000000   0.9000000  )
       145           C   tau( 145) = (   0.0000000   0.8000000   0.1000000  )
       146           C   tau( 146) = (   0.0000000   0.8000000   0.3000000  )
       147           C   tau( 147) = (   0.0000000   0.8000000   0.5000000  )
       148           C   tau( 148) = (   0.0000000   0.8000000   0.7000000  )
       149           C   tau( 149) = (   0.0000000   0.8000000   0.9000000  )
       150           C   tau( 150) = (   0.2000000   0.0000000   0.1000000  )
       151           C   tau( 151) = (   0.2000000   0.0000000   0.3000000  )
       152           C   tau( 152) = (   0.2000000   0.0000000   0.5000000  )
       153           C   tau( 153) = (   0.2000000   0.0000000   0.7000000  )
       154           C   tau( 154) = (   0.2000000   0.0000000   0.9000000  )
       155           C   tau( 155) = (   0.2000000   0.2000000   0.1000000  )
       156           C   tau( 156) = (   0.2000000   0.2000000   0.3000000  )
       157           C   tau( 157) = (   0.2000000   0.2000000   0.5000000  )
       158           C   tau( 158) = (   0.2000000   0.2000000   0.7000000  )
       159           C   tau( 159) = (   0.2000000   0.2000000   0.9000000  )
       160           C   tau( 160) = (   0.2000000   0.4000000   0.1000000  )
       161           C   tau( 161) = (   0.2000000   0.4000000   0.3000000  )
       162           C   tau( 162) = (   0.2000000   0.4000000   0.5000000  )
       163           C   tau( 163) = (   0.2000000   0.4000000   0.7000000  )
       164           C   tau( 164) = (   0.2000000   0.4000000   0.9000000  )
       165           C   tau( 165) = (   0.2000000   0.6000000   0.1000000  )
       166           C   tau( 166) = (   0.2000000   0.6000000   0.3000000  )
       167           C   tau( 167) = (   0.2000000   0.6000000   0.5000000  )
       168           C   tau( 168) = (   0.2000000   0.6000000   0.7000000  )
       169           C   tau( 169) = (   0.2000000   0.6000000   0.9000000  )
       170           C   tau( 170) = (   0.2000000   0.8000000   0.1000000  )
       171           C   tau( 171) = (   0.2000000   0.8000000   0.3000000  )
       172           C   tau( 172) = (   0.2000000   0.8000000   0.5000000  )
       173           C   tau( 173) = (   0.2000000   0.8000000   0.7000000  )
       174           C   tau( 174) = (   0.2000000   0.8000000   0.9000000  )
       175           C   tau( 175) = (   0.4000000   0.0000000   0.1000000  )
       176           C   tau( 176) = (   0.4000000   0.0000000   0.3000000  )
       177           C   tau( 177) = (   0.4000000   0.0000000   0.5000000  )
       178           C   tau( 178) = (   0.4000000   0.0000000   0.7000000  )
       179           C   tau( 179) = (   0.4000000   0.0000000   0.9000000  )
       180           C   tau( 180) = (   0.4000000   0.2000000   0.1000000  )
       181           C   tau( 181) = (   0.4000000   0.2000000   0.3000000  )
       182           C   tau( 182) = (   0.4000000   0.2000000   0.5000000  )
       183           C   tau( 183) = (   0.4000000   0.2000000   0.7000000  )
       184           C   tau( 184) = (   0.4000000   0.2000000   0.9000000  )
       185           C   tau( 185) = (   0.4000000   0.4000000   0.1000000  )
       186           C   tau( 186) = (   0.4000000   0.4000000   0.3000000  )
       187           C   tau( 187) = (   0.4000000   0.4000000   0.5000000  )
       188           C   tau( 188) = (   0.4000000   0.4000000   0.7000000  )
       189           C   tau( 189) = (   0.4000000   0.4000000   0.9000000  )
       190           C   tau( 190) = (   0.4000000   0.6000000   0.1000000  )
       191           C   tau( 191) = (   0.4000000   0.6000000   0.3000000  )
       192           C   tau( 192) = (   0.4000000   0.6000000   0.5000000  )
       193           C   tau( 193) = (   0.4000000   0.6000000   0.7000000  )
       194           C   tau( 194) = (   0.4000000   0.6000000   0.9000000  )
       195           C   tau( 195) = (   0.4000000   0.8000000   0.1000000  )
       196           C   tau( 196) = (   0.4000000   0.8000000   0.3000000  )
       197           C   tau( 197) = (   0.4000000   0.8000000   0.5000000  )
       198           C   tau( 198) = (   0.4000000   0.8000000   0.7000000  )
       199           C   tau( 199) = (   0.4000000   0.8000000   0.9000000  )
       200           C   tau( 200) = (   0.6000000   0.0000000   0.1000000  )
       201           C   tau( 201) = (   0.6000000   0.0000000   0.3000000  )
       202           C   tau( 202) = (   0.6000000   0.0000000   0.5000000  )
       203           C   tau( 203) = (   0.6000000   0.0000000   0.7000000  )
       204           C   tau( 204) = (   0.6000000   0.0000000   0.9000000  )
       205           C   tau( 205) = (   0.6000000   0.2000000   0.1000000  )
       206           C   tau( 206) = (   0.6000000   0.2000000   0.3000000  )
       207           C   tau( 207) = (   0.6000000   0.2000000   0.5000000  )
       208           C   tau( 208) = (   0.6000000   0.2000000   0.7000000  )
       209           C   tau( 209) = (   0.6000000   0.2000000   0.9000000  )
       210           C   tau( 210) = (   0.6000000   0.4000000   0.1000000  )
       211           C   tau( 211) = (   0.6000000   0.4000000   0.3000000  )
       212           C   tau( 212) = (   0.6000000   0.4000000   0.5000000  )
       213           C   tau( 213) = (   0.6000000   0.4000000   0.7000000  )
       214           C   tau( 214) = (   0.6000000   0.4000000   0.9000000  )
       215           C   tau( 215) = (   0.6000000   0.6000000   0.1000000  )
       216           C   tau( 216) = (   0.6000000   0.6000000   0.3000000  )
       217           C   tau( 217) = (   0.6000000   0.6000000   0.5000000  )
       218           C   tau( 218) = (   0.6000000   0.6000000   0.7000000  )
       219           C   tau( 219) = (   0.6000000   0.6000000   0.9000000  )
       220           C   tau( 220) = (   0.6000000   0.8000000   0.1000000  )
       221           C   tau( 221) = (   0.6000000   0.8000000   0.3000000  )
       222           C   tau( 222) = (   0.6000000   0.8000000   0.5000000  )
       223           C   tau( 223) = (   0.6000000   0.8000000   0.7000000  )
       224           C   tau( 224) = (   0.6000000   0.8000000   0.9000000  )
       225           C   tau( 225) = (   0.8000000   0.0000000   0.1000000  )
       226           C   tau( 226) = (   0.8000000   0.0000000   0.3000000  )
       227           C   tau( 227) = (   0.8000000   0.0000000   0.5000000  )
       228           C   tau( 228) = (   0.8000000   0.0000000   0.7000000  )
       229           C   tau( 229) = (   0.8000000   0.0000000   0.9000000  )
       230           C   tau( 230) = (   0.8000000   0.2000000   0.1000000  )
       231           C   tau( 231) = (   0.8000000   0.2000000   0.3000000  )
       232           C   tau( 232) = (   0.8000000   0.2000000   0.5000000  )
       233           C   tau( 233) = (   0.8000000   0.2000000   0.7000000  )
       234           C   tau( 234) = (   0.8000000   0.2000000   0.9000000  )
       235           C   tau( 235) = (   0.8000000   0.4000000   0.1000000  )
       236           C   tau( 236) = (   0.8000000   0.4000000   0.3000000  )
       237           C   tau( 237) = (   0.8000000   0.4000000   0.5000000  )
       238           C   tau( 238) = (   0.8000000   0.4000000   0.7000000  )
       239           C   tau( 239) = (   0.8000000   0.4000000   0.9000000  )
       240           C   tau( 240) = (   0.8000000   0.6000000   0.1000000  )
       241           C   tau( 241) = (   0.8000000   0.6000000   0.3000000  )
       242           C   tau( 242) = (   0.8000000   0.6000000   0.5000000  )
       243           C   tau( 243) = (   0.8000000   0.6000000   0.7000000  )
       244           C   tau( 244) = (   0.8000000   0.6000000   0.9000000  )
       245           C   tau( 245) = (   0.8000000   0.8000000   0.1000000  )
       246           C   tau( 246) = (   0.8000000   0.8000000   0.3000000  )
       247           C   tau( 247) = (   0.8000000   0.8000000   0.5000000  )
       248           C   tau( 248) = (   0.8000000   0.8000000   0.7000000  )
       249           C   tau( 249) = (   0.8000000   0.8000000   0.9000000  )
       250           C   tau( 250) = (   0.0500012   0.0500012   0.1499988  )
       251           C   tau( 251) = (   0.0500012   0.0500012   0.3499988  )
       252           C   tau( 252) = (   0.0500012   0.0500012   0.5499988  )
       253           C   tau( 253) = (   0.0500012   0.0500012   0.7499988  )
       254           C   tau( 254) = (   0.0500012   0.0500012   0.9499988  )
       255           C   tau( 255) = (   0.0500012   0.2500012   0.1499988  )
       256           C   tau( 256) = (   0.0500012   0.2500012   0.3499988  )
       257           C   tau( 257) = (   0.0500012   0.2500012   0.5499988  )
       258           C   tau( 258) = (   0.0500012   0.2500012   0.7499988  )
       259           C   tau( 259) = (   0.0500012   0.2500012   0.9499988  )
       260           C   tau( 260) = (   0.0500012   0.4500012   0.1499988  )
       261           C   tau( 261) = (   0.0500012   0.4500012   0.3499988  )
       262           C   tau( 262) = (   0.0500012   0.4500012   0.5499988  )
       263           C   tau( 263) = (   0.0500012   0.4500012   0.7499988  )
       264           C   tau( 264) = (   0.0500012   0.4500012   0.9499988  )
       265           C   tau( 265) = (   0.0500012   0.6500012   0.1499988  )
       266           C   tau( 266) = (   0.0500012   0.6500012   0.3499988  )
       267           C   tau( 267) = (   0.0500012   0.6500012   0.5499988  )
       268           C   tau( 268) = (   0.0500012   0.6500012   0.7499988  )
       269           C   tau( 269) = (   0.0500012   0.6500012   0.9499988  )
       270           C   tau( 270) = (   0.0500012   0.8500012   0.1499988  )
       271           C   tau( 271) = (   0.0500012   0.8500012   0.3499988  )
       272           C   tau( 272) = (   0.0500012   0.8500012   0.5499988  )
       273           C   tau( 273) = (   0.0500012   0.8500012   0.7499988  )
       274           C   tau( 274) = (   0.0500012   0.8500012   0.9499988  )
       275           C   tau( 275) = (   0.2500012   0.0500012   0.1499988  )
       276           C   tau( 276) = (   0.2500012   0.0500012   0.3499988  )
       277           C   tau( 277) = (   0.2500012   0.0500012   0.5499988  )
       278           C   tau( 278) = (   0.2500012   0.0500012   0.7499988  )
       279           C   tau( 279) = (   0.2500012   0.0500012   0.9499988  )
       280           C   tau( 280) = (   0.2500012   0.2500012   0.1499988  )
       281           C   tau( 281) = (   0.2500012   0.2500012   0.3499988  )
       282           C   tau( 282) = (   0.2500012   0.2500012   0.5499988  )
       283           C   tau( 283) = (   0.2500012   0.2500012   0.7499988  )
       284           C   tau( 284) = (   0.2500012   0.2500012   0.9499988  )
       285           C   tau( 285) = (   0.2500012   0.4500012   0.1499988  )
       286           C   tau( 286) = (   0.2500012   0.4500012   0.3499988  )
       287           C   tau( 287) = (   0.2500012   0.4500012   0.5499988  )
       288           C   tau( 288) = (   0.2500012   0.4500012   0.7499988  )
       289           C   tau( 289) = (   0.2500012   0.4500012   0.9499988  )
       290           C   tau( 290) = (   0.2500012   0.6500012   0.1499988  )
       291           C   tau( 291) = (   0.2500012   0.6500012   0.3499988  )
       292           C   tau( 292) = (   0.2500012   0.6500012   0.5499988  )
       293           C   tau( 293) = (   0.2500012   0.6500012   0.7499988  )
       294           C   tau( 294) = (   0.2500012   0.6500012   0.9499988  )
       295           C   tau( 295) = (   0.2500012   0.8500012   0.1499988  )
       296           C   tau( 296) = (   0.2500012   0.8500012   0.3499988  )
       297           C   tau( 297) = (   0.2500012   0.8500012   0.5499988  )
       298           C   tau( 298) = (   0.2500012   0.8500012   0.7499988  )
       299           C   tau( 299) = (   0.2500012   0.8500012   0.9499988  )
       300           C   tau( 300) = (   0.4500012   0.0500012   0.1499988  )
       301           C   tau( 301) = (   0.4500012   0.0500012   0.3499988  )
       302           C   tau( 302) = (   0.4500012   0.0500012   0.5499988  )
       303           C   tau( 303) = (   0.4500012   0.0500012   0.7499988  )
       304           C   tau( 304) = (   0.4500012   0.0500012   0.9499988  )
       305           C   tau( 305) = (   0.4500012   0.2500012   0.1499988  )
       306           C   tau( 306) = (   0.4500012   0.2500012   0.3499988  )
       307           C   tau( 307) = (   0.4500012   0.2500012   0.5499988  )
       308           C   tau( 308) = (   0.4500012   0.2500012   0.7499988  )
       309           C   tau( 309) = (   0.4500012   0.2500012   0.9499988  )
       310           C   tau( 310) = (   0.4500012   0.4500012   0.1499988  )
       311           C   tau( 311) = (   0.4500012   0.4500012   0.3499988  )
       312           C   tau( 312) = (   0.4500012   0.4500012   0.5499988  )
       313           C   tau( 313) = (   0.4500012   0.4500012   0.7499988  )
       314           C   tau( 314) = (   0.4500012   0.4500012   0.9499988  )
       315           C   tau( 315) = (   0.4500012   0.6500012   0.1499988  )
       316           C   tau( 316) = (   0.4500012   0.6500012   0.3499988  )
       317           C   tau( 317) = (   0.4500012   0.6500012   0.5499988  )
       318           C   tau( 318) = (   0.4500012   0.6500012   0.7499988  )
       319           C   tau( 319) = (   0.4500012   0.6500012   0.9499988  )
       320           C   tau( 320) = (   0.4500012   0.8500012   0.1499988  )
       321           C   tau( 321) = (   0.4500012   0.8500012   0.3499988  )
       322           C   tau( 322) = (   0.4500012   0.8500012   0.5499988  )
       323           C   tau( 323) = (   0.4500012   0.8500012   0.7499988  )
       324           C   tau( 324) = (   0.4500012   0.8500012   0.9499988  )
       325           C   tau( 325) = (   0.6500012   0.0500012   0.1499988  )
       326           C   tau( 326) = (   0.6500012   0.0500012   0.3499988  )
       327           C   tau( 327) = (   0.6500012   0.0500012   0.5499988  )
       328           C   tau( 328) = (   0.6500012   0.0500012   0.7499988  )
       329           C   tau( 329) = (   0.6500012   0.0500012   0.9499988  )
       330           C   tau( 330) = (   0.6500012   0.2500012   0.1499988  )
       331           C   tau( 331) = (   0.6500012   0.2500012   0.3499988  )
       332           C   tau( 332) = (   0.6500012   0.2500012   0.5499988  )
       333           C   tau( 333) = (   0.6500012   0.2500012   0.7499988  )
       334           C   tau( 334) = (   0.6500012   0.2500012   0.9499988  )
       335           C   tau( 335) = (   0.6500012   0.4500012   0.1499988  )
       336           C   tau( 336) = (   0.6500012   0.4500012   0.3499988  )
       337           C   tau( 337) = (   0.6500012   0.4500012   0.5499988  )
       338           C   tau( 338) = (   0.6500012   0.4500012   0.7499988  )
       339           C   tau( 339) = (   0.6500012   0.4500012   0.9499988  )
       340           C   tau( 340) = (   0.6500012   0.6500012   0.1499988  )
       341           C   tau( 341) = (   0.6500012   0.6500012   0.3499988  )
       342           C   tau( 342) = (   0.6500012   0.6500012   0.5499988  )
       343           C   tau( 343) = (   0.6500012   0.6500012   0.7499988  )
       344           C   tau( 344) = (   0.6500012   0.6500012   0.9499988  )
       345           C   tau( 345) = (   0.6500012   0.8500012   0.1499988  )
       346           C   tau( 346) = (   0.6500012   0.8500012   0.3499988  )
       347           C   tau( 347) = (   0.6500012   0.8500012   0.5499988  )
       348           C   tau( 348) = (   0.6500012   0.8500012   0.7499988  )
       349           C   tau( 349) = (   0.6500012   0.8500012   0.9499988  )
       350           C   tau( 350) = (   0.8500012   0.0500012   0.1499988  )
       351           C   tau( 351) = (   0.8500012   0.0500012   0.3499988  )
       352           C   tau( 352) = (   0.8500012   0.0500012   0.5499988  )
       353           C   tau( 353) = (   0.8500012   0.0500012   0.7499988  )
       354           C   tau( 354) = (   0.8500012   0.0500012   0.9499988  )
       355           C   tau( 355) = (   0.8500012   0.2500012   0.1499988  )
       356           C   tau( 356) = (   0.8500012   0.2500012   0.3499988  )
       357           C   tau( 357) = (   0.8500012   0.2500012   0.5499988  )
       358           C   tau( 358) = (   0.8500012   0.2500012   0.7499988  )
       359           C   tau( 359) = (   0.8500012   0.2500012   0.9499988  )
       360           C   tau( 360) = (   0.8500012   0.4500012   0.1499988  )
       361           C   tau( 361) = (   0.8500012   0.4500012   0.3499988  )
       362           C   tau( 362) = (   0.8500012   0.4500012   0.5499988  )
       363           C   tau( 363) = (   0.8500012   0.4500012   0.7499988  )
       364           C   tau( 364) = (   0.8500012   0.4500012   0.9499988  )
       365           C   tau( 365) = (   0.8500012   0.6500012   0.1499988  )
       366           C   tau( 366) = (   0.8500012   0.6500012   0.3499988  )
       367           C   tau( 367) = (   0.8500012   0.6500012   0.5499988  )
       368           C   tau( 368) = (   0.8500012   0.6500012   0.7499988  )
       369           C   tau( 369) = (   0.8500012   0.6500012   0.9499988  )
       370           C   tau( 370) = (   0.8500012   0.8500012   0.1499988  )
       371           C   tau( 371) = (   0.8500012   0.8500012   0.3499988  )
       372           C   tau( 372) = (   0.8500012   0.8500012   0.5499988  )
       373           C   tau( 373) = (   0.8500012   0.8500012   0.7499988  )
       374           C   tau( 374) = (   0.8500012   0.8500012   0.9499988  )
       375           C   tau( 375) = (   0.0000000   0.1000000   0.0000000  )
       376           C   tau( 376) = (   0.0000000   0.1000000   0.2000000  )
       377           C   tau( 377) = (   0.0000000   0.1000000   0.4000000  )
       378           C   tau( 378) = (   0.0000000   0.1000000   0.6000000  )
       379           C   tau( 379) = (   0.0000000   0.1000000   0.8000000  )
       380           C   tau( 380) = (   0.0000000   0.3000000   0.0000000  )
       381           C   tau( 381) = (   0.0000000   0.3000000   0.2000000  )
       382           C   tau( 382) = (   0.0000000   0.3000000   0.4000000  )
       383           C   tau( 383) = (   0.0000000   0.3000000   0.6000000  )
       384           C   tau( 384) = (   0.0000000   0.3000000   0.8000000  )
       385           C   tau( 385) = (   0.0000000   0.5000000   0.0000000  )
       386           C   tau( 386) = (   0.0000000   0.5000000   0.2000000  )
       387           C   tau( 387) = (   0.0000000   0.5000000   0.4000000  )
       388           C   tau( 388) = (   0.0000000   0.5000000   0.6000000  )
       389           C   tau( 389) = (   0.0000000   0.5000000   0.8000000  )
       390           C   tau( 390) = (   0.0000000   0.7000000   0.0000000  )
       391           C   tau( 391) = (   0.0000000   0.7000000   0.2000000  )
       392           C   tau( 392) = (   0.0000000   0.7000000   0.4000000  )
       393           C   tau( 393) = (   0.0000000   0.7000000   0.6000000  )
       394           C   tau( 394) = (   0.0000000   0.7000000   0.8000000  )
       395           C   tau( 395) = (   0.0000000   0.9000000   0.0000000  )
       396           C   tau( 396) = (   0.0000000   0.9000000   0.2000000  )
       397           C   tau( 397) = (   0.0000000   0.9000000   0.4000000  )
       398           C   tau( 398) = (   0.0000000   0.9000000   0.6000000  )
       399           C   tau( 399) = (   0.0000000   0.9000000   0.8000000  )
       400           C   tau( 400) = (   0.2000000   0.1000000   0.0000000  )
       401           C   tau( 401) = (   0.2000000   0.1000000   0.2000000  )
       402           C   tau( 402) = (   0.2000000   0.1000000   0.4000000  )
       403           C   tau( 403) = (   0.2000000   0.1000000   0.6000000  )
       404           C   tau( 404) = (   0.2000000   0.1000000   0.8000000  )
       405           C   tau( 405) = (   0.2000000   0.3000000   0.0000000  )
       406           C   tau( 406) = (   0.2000000   0.3000000   0.2000000  )
       407           C   tau( 407) = (   0.2000000   0.3000000   0.4000000  )
       408           C   tau( 408) = (   0.2000000   0.3000000   0.6000000  )
       409           C   tau( 409) = (   0.2000000   0.3000000   0.8000000  )
       410           C   tau( 410) = (   0.2000000   0.5000000   0.0000000  )
       411           C   tau( 411) = (   0.2000000   0.5000000   0.2000000  )
       412           C   tau( 412) = (   0.2000000   0.5000000   0.4000000  )
       413           C   tau( 413) = (   0.2000000   0.5000000   0.6000000  )
       414           C   tau( 414) = (   0.2000000   0.5000000   0.8000000  )
       415           C   tau( 415) = (   0.2000000   0.7000000   0.0000000  )
       416           C   tau( 416) = (   0.2000000   0.7000000   0.2000000  )
       417           C   tau( 417) = (   0.2000000   0.7000000   0.4000000  )
       418           C   tau( 418) = (   0.2000000   0.7000000   0.6000000  )
       419           C   tau( 419) = (   0.2000000   0.7000000   0.8000000  )
       420           C   tau( 420) = (   0.2000000   0.9000000   0.0000000  )
       421           C   tau( 421) = (   0.2000000   0.9000000   0.2000000  )
       422           C   tau( 422) = (   0.2000000   0.9000000   0.4000000  )
       423           C   tau( 423) = (   0.2000000   0.9000000   0.6000000  )
       424           C   tau( 424) = (   0.2000000   0.9000000   0.8000000  )
       425           C   tau( 425) = (   0.4000000   0.1000000   0.0000000  )
       426           C   tau( 426) = (   0.4000000   0.1000000   0.2000000  )
       427           C   tau( 427) = (   0.4000000   0.1000000   0.4000000  )
       428           C   tau( 428) = (   0.4000000   0.1000000   0.6000000  )
       429           C   tau( 429) = (   0.4000000   0.1000000   0.8000000  )
       430           C   tau( 430) = (   0.4000000   0.3000000   0.0000000  )
       431           C   tau( 431) = (   0.4000000   0.3000000   0.2000000  )
       432           C   tau( 432) = (   0.4000000   0.3000000   0.4000000  )
       433           C   tau( 433) = (   0.4000000   0.3000000   0.6000000  )
       434           C   tau( 434) = (   0.4000000   0.3000000   0.8000000  )
       435           C   tau( 435) = (   0.4000000   0.5000000   0.0000000  )
       436           C   tau( 436) = (   0.4000000   0.5000000   0.2000000  )
       437           C   tau( 437) = (   0.4000000   0.5000000   0.4000000  )
       438           C   tau( 438) = (   0.4000000   0.5000000   0.6000000  )
       439           C   tau( 439) = (   0.4000000   0.5000000   0.8000000  )
       440           C   tau( 440) = (   0.4000000   0.7000000   0.0000000  )
       441           C   tau( 441) = (   0.4000000   0.7000000   0.2000000  )
       442           C   tau( 442) = (   0.4000000   0.7000000   0.4000000  )
       443           C   tau( 443) = (   0.4000000   0.7000000   0.6000000  )
       444           C   tau( 444) = (   0.4000000   0.7000000   0.8000000  )
       445           C   tau( 445) = (   0.4000000   0.9000000   0.0000000  )
       446           C   tau( 446) = (   0.4000000   0.9000000   0.2000000  )
       447           C   tau( 447) = (   0.4000000   0.9000000   0.4000000  )
       448           C   tau( 448) = (   0.4000000   0.9000000   0.6000000  )
       449           C   tau( 449) = (   0.4000000   0.9000000   0.8000000  )
       450           C   tau( 450) = (   0.6000000   0.1000000   0.0000000  )
       451           C   tau( 451) = (   0.6000000   0.1000000   0.2000000  )
       452           C   tau( 452) = (   0.6000000   0.1000000   0.4000000  )
       453           C   tau( 453) = (   0.6000000   0.1000000   0.6000000  )
       454           C   tau( 454) = (   0.6000000   0.1000000   0.8000000  )
       455           C   tau( 455) = (   0.6000000   0.3000000   0.0000000  )
       456           C   tau( 456) = (   0.6000000   0.3000000   0.2000000  )
       457           C   tau( 457) = (   0.6000000   0.3000000   0.4000000  )
       458           C   tau( 458) = (   0.6000000   0.3000000   0.6000000  )
       459           C   tau( 459) = (   0.6000000   0.3000000   0.8000000  )
       460           C   tau( 460) = (   0.6000000   0.5000000   0.0000000  )
       461           C   tau( 461) = (   0.6000000   0.5000000   0.2000000  )
       462           C   tau( 462) = (   0.6000000   0.5000000   0.4000000  )
       463           C   tau( 463) = (   0.6000000   0.5000000   0.6000000  )
       464           C   tau( 464) = (   0.6000000   0.5000000   0.8000000  )
       465           C   tau( 465) = (   0.6000000   0.7000000   0.0000000  )
       466           C   tau( 466) = (   0.6000000   0.7000000   0.2000000  )
       467           C   tau( 467) = (   0.6000000   0.7000000   0.4000000  )
       468           C   tau( 468) = (   0.6000000   0.7000000   0.6000000  )
       469           C   tau( 469) = (   0.6000000   0.7000000   0.8000000  )
       470           C   tau( 470) = (   0.6000000   0.9000000   0.0000000  )
       471           C   tau( 471) = (   0.6000000   0.9000000   0.2000000  )
       472           C   tau( 472) = (   0.6000000   0.9000000   0.4000000  )
       473           C   tau( 473) = (   0.6000000   0.9000000   0.6000000  )
       474           C   tau( 474) = (   0.6000000   0.9000000   0.8000000  )
       475           C   tau( 475) = (   0.8000000   0.1000000   0.0000000  )
       476           C   tau( 476) = (   0.8000000   0.1000000   0.2000000  )
       477           C   tau( 477) = (   0.8000000   0.1000000   0.4000000  )
       478           C   tau( 478) = (   0.8000000   0.1000000   0.6000000  )
       479           C   tau( 479) = (   0.8000000   0.1000000   0.8000000  )
       480           C   tau( 480) = (   0.8000000   0.3000000   0.0000000  )
       481           C   tau( 481) = (   0.8000000   0.3000000   0.2000000  )
       482           C   tau( 482) = (   0.8000000   0.3000000   0.4000000  )
       483           C   tau( 483) = (   0.8000000   0.3000000   0.6000000  )
       484           C   tau( 484) = (   0.8000000   0.3000000   0.8000000  )
       485           C   tau( 485) = (   0.8000000   0.5000000   0.0000000  )
       486           C   tau( 486) = (   0.8000000   0.5000000   0.2000000  )
       487           C   tau( 487) = (   0.8000000   0.5000000   0.4000000  )
       488           C   tau( 488) = (   0.8000000   0.5000000   0.6000000  )
       489           C   tau( 489) = (   0.8000000   0.5000000   0.8000000  )
       490           C   tau( 490) = (   0.8000000   0.7000000   0.0000000  )
       491           C   tau( 491) = (   0.8000000   0.7000000   0.2000000  )
       492           C   tau( 492) = (   0.8000000   0.7000000   0.4000000  )
       493           C   tau( 493) = (   0.8000000   0.7000000   0.6000000  )
       494           C   tau( 494) = (   0.8000000   0.7000000   0.8000000  )
       495           C   tau( 495) = (   0.8000000   0.9000000   0.0000000  )
       496           C   tau( 496) = (   0.8000000   0.9000000   0.2000000  )
       497           C   tau( 497) = (   0.8000000   0.9000000   0.4000000  )
       498           C   tau( 498) = (   0.8000000   0.9000000   0.6000000  )
       499           C   tau( 499) = (   0.8000000   0.9000000   0.8000000  )
       500           C   tau( 500) = (   0.1499988   0.1499988   0.1499988  )
       501           C   tau( 501) = (   0.1499988   0.1499988   0.3499988  )
       502           C   tau( 502) = (   0.1499988   0.1499988   0.5499988  )
       503           C   tau( 503) = (   0.1499988   0.1499988   0.7499988  )
       504           C   tau( 504) = (   0.1499988   0.1499988   0.9499988  )
       505           C   tau( 505) = (   0.1499988   0.3499988   0.1499988  )
       506           C   tau( 506) = (   0.1499988   0.3499988   0.3499988  )
       507           C   tau( 507) = (   0.1499988   0.3499988   0.5499988  )
       508           C   tau( 508) = (   0.1499988   0.3499988   0.7499988  )
       509           C   tau( 509) = (   0.1499988   0.3499988   0.9499988  )
       510           C   tau( 510) = (   0.1499988   0.5499988   0.1499988  )
       511           C   tau( 511) = (   0.1499988   0.5499988   0.3499988  )
       512           C   tau( 512) = (   0.1499988   0.5499988   0.5499988  )
       513           C   tau( 513) = (   0.1499988   0.5499988   0.7499988  )
       514           C   tau( 514) = (   0.1499988   0.5499988   0.9499988  )
       515           C   tau( 515) = (   0.1499988   0.7499988   0.1499988  )
       516           C   tau( 516) = (   0.1499988   0.7499988   0.3499988  )
       517           C   tau( 517) = (   0.1499988   0.7499988   0.5499988  )
       518           C   tau( 518) = (   0.1499988   0.7499988   0.7499988  )
       519           C   tau( 519) = (   0.1499988   0.7499988   0.9499988  )
       520           C   tau( 520) = (   0.1499988   0.9499988   0.1499988  )
       521           C   tau( 521) = (   0.1499988   0.9499988   0.3499988  )
       522           C   tau( 522) = (   0.1499988   0.9499988   0.5499988  )
       523           C   tau( 523) = (   0.1499988   0.9499988   0.7499988  )
       524           C   tau( 524) = (   0.1499988   0.9499988   0.9499988  )
       525           C   tau( 525) = (   0.3499988   0.1499988   0.1499988  )
       526           C   tau( 526) = (   0.3499988   0.1499988   0.3499988  )
       527           C   tau( 527) = (   0.3499988   0.1499988   0.5499988  )
       528           C   tau( 528) = (   0.3499988   0.1499988   0.7499988  )
       529           C   tau( 529) = (   0.3499988   0.1499988   0.9499988  )
       530           C   tau( 530) = (   0.3499988   0.3499988   0.1499988  )
       531           C   tau( 531) = (   0.3499988   0.3499988   0.3499988  )
       532           C   tau( 532) = (   0.3499988   0.3499988   0.5499988  )
       533           C   tau( 533) = (   0.3499988   0.3499988   0.7499988  )
       534           C   tau( 534) = (   0.3499988   0.3499988   0.9499988  )
       535           C   tau( 535) = (   0.3499988   0.5499988   0.1499988  )
       536           C   tau( 536) = (   0.3499988   0.5499988   0.3499988  )
       537           C   tau( 537) = (   0.3499988   0.5499988   0.5499988  )
       538           C   tau( 538) = (   0.3499988   0.5499988   0.7499988  )
       539           C   tau( 539) = (   0.3499988   0.5499988   0.9499988  )
       540           C   tau( 540) = (   0.3499988   0.7499988   0.1499988  )
       541           C   tau( 541) = (   0.3499988   0.7499988   0.3499988  )
       542           C   tau( 542) = (   0.3499988   0.7499988   0.5499988  )
       543           C   tau( 543) = (   0.3499988   0.7499988   0.7499988  )
       544           C   tau( 544) = (   0.3499988   0.7499988   0.9499988  )
       545           C   tau( 545) = (   0.3499988   0.9499988   0.1499988  )
       546           C   tau( 546) = (   0.3499988   0.9499988   0.3499988  )
       547           C   tau( 547) = (   0.3499988   0.9499988   0.5499988  )
       548           C   tau( 548) = (   0.3499988   0.9499988   0.7499988  )
       549           C   tau( 549) = (   0.3499988   0.9499988   0.9499988  )
       550           C   tau( 550) = (   0.5499988   0.1499988   0.1499988  )
       551           C   tau( 551) = (   0.5499988   0.1499988   0.3499988  )
       552           C   tau( 552) = (   0.5499988   0.1499988   0.5499988  )
       553           C   tau( 553) = (   0.5499988   0.1499988   0.7499988  )
       554           C   tau( 554) = (   0.5499988   0.1499988   0.9499988  )
       555           C   tau( 555) = (   0.5499988   0.3499988   0.1499988  )
       556           C   tau( 556) = (   0.5499988   0.3499988   0.3499988  )
       557           C   tau( 557) = (   0.5499988   0.3499988   0.5499988  )
       558           C   tau( 558) = (   0.5499988   0.3499988   0.7499988  )
       559           C   tau( 559) = (   0.5499988   0.3499988   0.9499988  )
       560           C   tau( 560) = (   0.5499988   0.5499988   0.1499988  )
       561           C   tau( 561) = (   0.5499988   0.5499988   0.3499988  )
       562           C   tau( 562) = (   0.5499988   0.5499988   0.5499988  )
       563           C   tau( 563) = (   0.5499988   0.5499988   0.7499988  )
       564           C   tau( 564) = (   0.5499988   0.5499988   0.9499988  )
       565           C   tau( 565) = (   0.5499988   0.7499988   0.1499988  )
       566           C   tau( 566) = (   0.5499988   0.7499988   0.3499988  )
       567           C   tau( 567) = (   0.5499988   0.7499988   0.5499988  )
       568           C   tau( 568) = (   0.5499988   0.7499988   0.7499988  )
       569           C   tau( 569) = (   0.5499988   0.7499988   0.9499988  )
       570           C   tau( 570) = (   0.5499988   0.9499988   0.1499988  )
       571           C   tau( 571) = (   0.5499988   0.9499988   0.3499988  )
       572           C   tau( 572) = (   0.5499988   0.9499988   0.5499988  )
       573           C   tau( 573) = (   0.5499988   0.9499988   0.7499988  )
       574           C   tau( 574) = (   0.5499988   0.9499988   0.9499988  )
       575           C   tau( 575) = (   0.7499988   0.1499988   0.1499988  )
       576           C   tau( 576) = (   0.7499988   0.1499988   0.3499988  )
       577           C   tau( 577) = (   0.7499988   0.1499988   0.5499988  )
       578           C   tau( 578) = (   0.7499988   0.1499988   0.7499988  )
       579           C   tau( 579) = (   0.7499988   0.1499988   0.9499988  )
       580           C   tau( 580) = (   0.7499988   0.3499988   0.1499988  )
       581           C   tau( 581) = (   0.7499988   0.3499988   0.3499988  )
       582           C   tau( 582) = (   0.7499988   0.3499988   0.5499988  )
       583           C   tau( 583) = (   0.7499988   0.3499988   0.7499988  )
       584           C   tau( 584) = (   0.7499988   0.3499988   0.9499988  )
       585           C   tau( 585) = (   0.7499988   0.5499988   0.1499988  )
       586           C   tau( 586) = (   0.7499988   0.5499988   0.3499988  )
       587           C   tau( 587) = (   0.7499988   0.5499988   0.5499988  )
       588           C   tau( 588) = (   0.7499988   0.5499988   0.7499988  )
       589           C   tau( 589) = (   0.7499988   0.5499988   0.9499988  )
       590           C   tau( 590) = (   0.7499988   0.7499988   0.1499988  )
       591           C   tau( 591) = (   0.7499988   0.7499988   0.3499988  )
       592           C   tau( 592) = (   0.7499988   0.7499988   0.5499988  )
       593           C   tau( 593) = (   0.7499988   0.7499988   0.7499988  )
       594           C   tau( 594) = (   0.7499988   0.7499988   0.9499988  )
       595           C   tau( 595) = (   0.7499988   0.9499988   0.1499988  )
       596           C   tau( 596) = (   0.7499988   0.9499988   0.3499988  )
       597           C   tau( 597) = (   0.7499988   0.9499988   0.5499988  )
       598           C   tau( 598) = (   0.7499988   0.9499988   0.7499988  )
       599           C   tau( 599) = (   0.7499988   0.9499988   0.9499988  )
       600           C   tau( 600) = (   0.9499988   0.1499988   0.1499988  )
       601           C   tau( 601) = (   0.9499988   0.1499988   0.3499988  )
       602           C   tau( 602) = (   0.9499988   0.1499988   0.5499988  )
       603           C   tau( 603) = (   0.9499988   0.1499988   0.7499988  )
       604           C   tau( 604) = (   0.9499988   0.1499988   0.9499988  )
       605           C   tau( 605) = (   0.9499988   0.3499988   0.1499988  )
       606           C   tau( 606) = (   0.9499988   0.3499988   0.3499988  )
       607           C   tau( 607) = (   0.9499988   0.3499988   0.5499988  )
       608           C   tau( 608) = (   0.9499988   0.3499988   0.7499988  )
       609           C   tau( 609) = (   0.9499988   0.3499988   0.9499988  )
       610           C   tau( 610) = (   0.9499988   0.5499988   0.1499988  )
       611           C   tau( 611) = (   0.9499988   0.5499988   0.3499988  )
       612           C   tau( 612) = (   0.9499988   0.5499988   0.5499988  )
       613           C   tau( 613) = (   0.9499988   0.5499988   0.7499988  )
       614           C   tau( 614) = (   0.9499988   0.5499988   0.9499988  )
       615           C   tau( 615) = (   0.9499988   0.7499988   0.1499988  )
       616           C   tau( 616) = (   0.9499988   0.7499988   0.3499988  )
       617           C   tau( 617) = (   0.9499988   0.7499988   0.5499988  )
       618           C   tau( 618) = (   0.9499988   0.7499988   0.7499988  )
       619           C   tau( 619) = (   0.9499988   0.7499988   0.9499988  )
       620           C   tau( 620) = (   0.9499988   0.9499988   0.1499988  )
       621           C   tau( 621) = (   0.9499988   0.9499988   0.3499988  )
       622           C   tau( 622) = (   0.9499988   0.9499988   0.5499988  )
       623           C   tau( 623) = (   0.9499988   0.9499988   0.7499988  )
       624           C   tau( 624) = (   0.9499988   0.9499988   0.9499988  )
       625           C   tau( 625) = (   0.1000000   0.0000000   0.0000000  )
       626           C   tau( 626) = (   0.1000000   0.0000000   0.2000000  )
       627           C   tau( 627) = (   0.1000000   0.0000000   0.4000000  )
       628           C   tau( 628) = (   0.1000000   0.0000000   0.6000000  )
       629           C   tau( 629) = (   0.1000000   0.0000000   0.8000000  )
       630           C   tau( 630) = (   0.1000000   0.2000000   0.0000000  )
       631           C   tau( 631) = (   0.1000000   0.2000000   0.2000000  )
       632           C   tau( 632) = (   0.1000000   0.2000000   0.4000000  )
       633           C   tau( 633) = (   0.1000000   0.2000000   0.6000000  )
       634           C   tau( 634) = (   0.1000000   0.2000000   0.8000000  )
       635           C   tau( 635) = (   0.1000000   0.4000000   0.0000000  )
       636           C   tau( 636) = (   0.1000000   0.4000000   0.2000000  )
       637           C   tau( 637) = (   0.1000000   0.4000000   0.4000000  )
       638           C   tau( 638) = (   0.1000000   0.4000000   0.6000000  )
       639           C   tau( 639) = (   0.1000000   0.4000000   0.8000000  )
       640           C   tau( 640) = (   0.1000000   0.6000000   0.0000000  )
       641           C   tau( 641) = (   0.1000000   0.6000000   0.2000000  )
       642           C   tau( 642) = (   0.1000000   0.6000000   0.4000000  )
       643           C   tau( 643) = (   0.1000000   0.6000000   0.6000000  )
       644           C   tau( 644) = (   0.1000000   0.6000000   0.8000000  )
       645           C   tau( 645) = (   0.1000000   0.8000000   0.0000000  )
       646           C   tau( 646) = (   0.1000000   0.8000000   0.2000000  )
       647           C   tau( 647) = (   0.1000000   0.8000000   0.4000000  )
       648           C   tau( 648) = (   0.1000000   0.8000000   0.6000000  )
       649           C   tau( 649) = (   0.1000000   0.8000000   0.8000000  )
       650           C   tau( 650) = (   0.3000000   0.0000000   0.0000000  )
       651           C   tau( 651) = (   0.3000000   0.0000000   0.2000000  )
       652           C   tau( 652) = (   0.3000000   0.0000000   0.4000000  )
       653           C   tau( 653) = (   0.3000000   0.0000000   0.6000000  )
       654           C   tau( 654) = (   0.3000000   0.0000000   0.8000000  )
       655           C   tau( 655) = (   0.3000000   0.2000000   0.0000000  )
       656           C   tau( 656) = (   0.3000000   0.2000000   0.2000000  )
       657           C   tau( 657) = (   0.3000000   0.2000000   0.4000000  )
       658           C   tau( 658) = (   0.3000000   0.2000000   0.6000000  )
       659           C   tau( 659) = (   0.3000000   0.2000000   0.8000000  )
       660           C   tau( 660) = (   0.3000000   0.4000000   0.0000000  )
       661           C   tau( 661) = (   0.3000000   0.4000000   0.2000000  )
       662           C   tau( 662) = (   0.3000000   0.4000000   0.4000000  )
       663           C   tau( 663) = (   0.3000000   0.4000000   0.6000000  )
       664           C   tau( 664) = (   0.3000000   0.4000000   0.8000000  )
       665           C   tau( 665) = (   0.3000000   0.6000000   0.0000000  )
       666           C   tau( 666) = (   0.3000000   0.6000000   0.2000000  )
       667           C   tau( 667) = (   0.3000000   0.6000000   0.4000000  )
       668           C   tau( 668) = (   0.3000000   0.6000000   0.6000000  )
       669           C   tau( 669) = (   0.3000000   0.6000000   0.8000000  )
       670           C   tau( 670) = (   0.3000000   0.8000000   0.0000000  )
       671           C   tau( 671) = (   0.3000000   0.8000000   0.2000000  )
       672           C   tau( 672) = (   0.3000000   0.8000000   0.4000000  )
       673           C   tau( 673) = (   0.3000000   0.8000000   0.6000000  )
       674           C   tau( 674) = (   0.3000000   0.8000000   0.8000000  )
       675           C   tau( 675) = (   0.5000000   0.0000000   0.0000000  )
       676           C   tau( 676) = (   0.5000000   0.0000000   0.2000000  )
       677           C   tau( 677) = (   0.5000000   0.0000000   0.4000000  )
       678           C   tau( 678) = (   0.5000000   0.0000000   0.6000000  )
       679           C   tau( 679) = (   0.5000000   0.0000000   0.8000000  )
       680           C   tau( 680) = (   0.5000000   0.2000000   0.0000000  )
       681           C   tau( 681) = (   0.5000000   0.2000000   0.2000000  )
       682           C   tau( 682) = (   0.5000000   0.2000000   0.4000000  )
       683           C   tau( 683) = (   0.5000000   0.2000000   0.6000000  )
       684           C   tau( 684) = (   0.5000000   0.2000000   0.8000000  )
       685           C   tau( 685) = (   0.5000000   0.4000000   0.0000000  )
       686           C   tau( 686) = (   0.5000000   0.4000000   0.2000000  )
       687           C   tau( 687) = (   0.5000000   0.4000000   0.4000000  )
       688           C   tau( 688) = (   0.5000000   0.4000000   0.6000000  )
       689           C   tau( 689) = (   0.5000000   0.4000000   0.8000000  )
       690           C   tau( 690) = (   0.5000000   0.6000000   0.0000000  )
       691           C   tau( 691) = (   0.5000000   0.6000000   0.2000000  )
       692           C   tau( 692) = (   0.5000000   0.6000000   0.4000000  )
       693           C   tau( 693) = (   0.5000000   0.6000000   0.6000000  )
       694           C   tau( 694) = (   0.5000000   0.6000000   0.8000000  )
       695           C   tau( 695) = (   0.5000000   0.8000000   0.0000000  )
       696           C   tau( 696) = (   0.5000000   0.8000000   0.2000000  )
       697           C   tau( 697) = (   0.5000000   0.8000000   0.4000000  )
       698           C   tau( 698) = (   0.5000000   0.8000000   0.6000000  )
       699           C   tau( 699) = (   0.5000000   0.8000000   0.8000000  )
       700           C   tau( 700) = (   0.7000000   0.0000000   0.0000000  )
       701           C   tau( 701) = (   0.7000000   0.0000000   0.2000000  )
       702           C   tau( 702) = (   0.7000000   0.0000000   0.4000000  )
       703           C   tau( 703) = (   0.7000000   0.0000000   0.6000000  )
       704           C   tau( 704) = (   0.7000000   0.0000000   0.8000000  )
       705           C   tau( 705) = (   0.7000000   0.2000000   0.0000000  )
       706           C   tau( 706) = (   0.7000000   0.2000000   0.2000000  )
       707           C   tau( 707) = (   0.7000000   0.2000000   0.4000000  )
       708           C   tau( 708) = (   0.7000000   0.2000000   0.6000000  )
       709           C   tau( 709) = (   0.7000000   0.2000000   0.8000000  )
       710           C   tau( 710) = (   0.7000000   0.4000000   0.0000000  )
       711           C   tau( 711) = (   0.7000000   0.4000000   0.2000000  )
       712           C   tau( 712) = (   0.7000000   0.4000000   0.4000000  )
       713           C   tau( 713) = (   0.7000000   0.4000000   0.6000000  )
       714           C   tau( 714) = (   0.7000000   0.4000000   0.8000000  )
       715           C   tau( 715) = (   0.7000000   0.6000000   0.0000000  )
       716           C   tau( 716) = (   0.7000000   0.6000000   0.2000000  )
       717           C   tau( 717) = (   0.7000000   0.6000000   0.4000000  )
       718           C   tau( 718) = (   0.7000000   0.6000000   0.6000000  )
       719           C   tau( 719) = (   0.7000000   0.6000000   0.8000000  )
       720           C   tau( 720) = (   0.7000000   0.8000000   0.0000000  )
       721           C   tau( 721) = (   0.7000000   0.8000000   0.2000000  )
       722           C   tau( 722) = (   0.7000000   0.8000000   0.4000000  )
       723           C   tau( 723) = (   0.7000000   0.8000000   0.6000000  )
       724           C   tau( 724) = (   0.7000000   0.8000000   0.8000000  )
       725           C   tau( 725) = (   0.9000000   0.0000000   0.0000000  )
       726           C   tau( 726) = (   0.9000000   0.0000000   0.2000000  )
       727           C   tau( 727) = (   0.9000000   0.0000000   0.4000000  )
       728           C   tau( 728) = (   0.9000000   0.0000000   0.6000000  )
       729           C   tau( 729) = (   0.9000000   0.0000000   0.8000000  )
       730           C   tau( 730) = (   0.9000000   0.2000000   0.0000000  )
       731           C   tau( 731) = (   0.9000000   0.2000000   0.2000000  )
       732           C   tau( 732) = (   0.9000000   0.2000000   0.4000000  )
       733           C   tau( 733) = (   0.9000000   0.2000000   0.6000000  )
       734           C   tau( 734) = (   0.9000000   0.2000000   0.8000000  )
       735           C   tau( 735) = (   0.9000000   0.4000000   0.0000000  )
       736           C   tau( 736) = (   0.9000000   0.4000000   0.2000000  )
       737           C   tau( 737) = (   0.9000000   0.4000000   0.4000000  )
       738           C   tau( 738) = (   0.9000000   0.4000000   0.6000000  )
       739           C   tau( 739) = (   0.9000000   0.4000000   0.8000000  )
       740           C   tau( 740) = (   0.9000000   0.6000000   0.0000000  )
       741           C   tau( 741) = (   0.9000000   0.6000000   0.2000000  )
       742           C   tau( 742) = (   0.9000000   0.6000000   0.4000000  )
       743           C   tau( 743) = (   0.9000000   0.6000000   0.6000000  )
       744           C   tau( 744) = (   0.9000000   0.6000000   0.8000000  )
       745           C   tau( 745) = (   0.9000000   0.8000000   0.0000000  )
       746           C   tau( 746) = (   0.9000000   0.8000000   0.2000000  )
       747           C   tau( 747) = (   0.9000000   0.8000000   0.4000000  )
       748           C   tau( 748) = (   0.9000000   0.8000000   0.6000000  )
       749           C   tau( 749) = (   0.9000000   0.8000000   0.8000000  )
       750           C   tau( 750) = (   0.1499988   0.0500012   0.0500012  )
       751           C   tau( 751) = (   0.1499988   0.0500012   0.2500012  )
       752           C   tau( 752) = (   0.1499988   0.0500012   0.4500012  )
       753           C   tau( 753) = (   0.1499988   0.0500012   0.6500012  )
       754           C   tau( 754) = (   0.1499988   0.0500012   0.8500012  )
       755           C   tau( 755) = (   0.1499988   0.2500012   0.0500012  )
       756           C   tau( 756) = (   0.1499988   0.2500012   0.2500012  )
       757           C   tau( 757) = (   0.1499988   0.2500012   0.4500012  )
       758           C   tau( 758) = (   0.1499988   0.2500012   0.6500012  )
       759           C   tau( 759) = (   0.1499988   0.2500012   0.8500012  )
       760           C   tau( 760) = (   0.1499988   0.4500012   0.0500012  )
       761           C   tau( 761) = (   0.1499988   0.4500012   0.2500012  )
       762           C   tau( 762) = (   0.1499988   0.4500012   0.4500012  )
       763           C   tau( 763) = (   0.1499988   0.4500012   0.6500012  )
       764           C   tau( 764) = (   0.1499988   0.4500012   0.8500012  )
       765           C   tau( 765) = (   0.1499988   0.6500012   0.0500012  )
       766           C   tau( 766) = (   0.1499988   0.6500012   0.2500012  )
       767           C   tau( 767) = (   0.1499988   0.6500012   0.4500012  )
       768           C   tau( 768) = (   0.1499988   0.6500012   0.6500012  )
       769           C   tau( 769) = (   0.1499988   0.6500012   0.8500012  )
       770           C   tau( 770) = (   0.1499988   0.8500012   0.0500012  )
       771           C   tau( 771) = (   0.1499988   0.8500012   0.2500012  )
       772           C   tau( 772) = (   0.1499988   0.8500012   0.4500012  )
       773           C   tau( 773) = (   0.1499988   0.8500012   0.6500012  )
       774           C   tau( 774) = (   0.1499988   0.8500012   0.8500012  )
       775           C   tau( 775) = (   0.3499988   0.0500012   0.0500012  )
       776           C   tau( 776) = (   0.3499988   0.0500012   0.2500012  )
       777           C   tau( 777) = (   0.3499988   0.0500012   0.4500012  )
       778           C   tau( 778) = (   0.3499988   0.0500012   0.6500012  )
       779           C   tau( 779) = (   0.3499988   0.0500012   0.8500012  )
       780           C   tau( 780) = (   0.3499988   0.2500012   0.0500012  )
       781           C   tau( 781) = (   0.3499988   0.2500012   0.2500012  )
       782           C   tau( 782) = (   0.3499988   0.2500012   0.4500012  )
       783           C   tau( 783) = (   0.3499988   0.2500012   0.6500012  )
       784           C   tau( 784) = (   0.3499988   0.2500012   0.8500012  )
       785           C   tau( 785) = (   0.3499988   0.4500012   0.0500012  )
       786           C   tau( 786) = (   0.3499988   0.4500012   0.2500012  )
       787           C   tau( 787) = (   0.3499988   0.4500012   0.4500012  )
       788           C   tau( 788) = (   0.3499988   0.4500012   0.6500012  )
       789           C   tau( 789) = (   0.3499988   0.4500012   0.8500012  )
       790           C   tau( 790) = (   0.3499988   0.6500012   0.0500012  )
       791           C   tau( 791) = (   0.3499988   0.6500012   0.2500012  )
       792           C   tau( 792) = (   0.3499988   0.6500012   0.4500012  )
       793           C   tau( 793) = (   0.3499988   0.6500012   0.6500012  )
       794           C   tau( 794) = (   0.3499988   0.6500012   0.8500012  )
       795           C   tau( 795) = (   0.3499988   0.8500012   0.0500012  )
       796           C   tau( 796) = (   0.3499988   0.8500012   0.2500012  )
       797           C   tau( 797) = (   0.3499988   0.8500012   0.4500012  )
       798           C   tau( 798) = (   0.3499988   0.8500012   0.6500012  )
       799           C   tau( 799) = (   0.3499988   0.8500012   0.8500012  )
       800           C   tau( 800) = (   0.5499988   0.0500012   0.0500012  )
       801           C   tau( 801) = (   0.5499988   0.0500012   0.2500012  )
       802           C   tau( 802) = (   0.5499988   0.0500012   0.4500012  )
       803           C   tau( 803) = (   0.5499988   0.0500012   0.6500012  )
       804           C   tau( 804) = (   0.5499988   0.0500012   0.8500012  )
       805           C   tau( 805) = (   0.5499988   0.2500012   0.0500012  )
       806           C   tau( 806) = (   0.5499988   0.2500012   0.2500012  )
       807           C   tau( 807) = (   0.5499988   0.2500012   0.4500012  )
       808           C   tau( 808) = (   0.5499988   0.2500012   0.6500012  )
       809           C   tau( 809) = (   0.5499988   0.2500012   0.8500012  )
       810           C   tau( 810) = (   0.5499988   0.4500012   0.0500012  )
       811           C   tau( 811) = (   0.5499988   0.4500012   0.2500012  )
       812           C   tau( 812) = (   0.5499988   0.4500012   0.4500012  )
       813           C   tau( 813) = (   0.5499988   0.4500012   0.6500012  )
       814           C   tau( 814) = (   0.5499988   0.4500012   0.8500012  )
       815           C   tau( 815) = (   0.5499988   0.6500012   0.0500012  )
       816           C   tau( 816) = (   0.5499988   0.6500012   0.2500012  )
       817           C   tau( 817) = (   0.5499988   0.6500012   0.4500012  )
       818           C   tau( 818) = (   0.5499988   0.6500012   0.6500012  )
       819           C   tau( 819) = (   0.5499988   0.6500012   0.8500012  )
       820           C   tau( 820) = (   0.5499988   0.8500012   0.0500012  )
       821           C   tau( 821) = (   0.5499988   0.8500012   0.2500012  )
       822           C   tau( 822) = (   0.5499988   0.8500012   0.4500012  )
       823           C   tau( 823) = (   0.5499988   0.8500012   0.6500012  )
       824           C   tau( 824) = (   0.5499988   0.8500012   0.8500012  )
       825           C   tau( 825) = (   0.7499988   0.0500012   0.0500012  )
       826           C   tau( 826) = (   0.7499988   0.0500012   0.2500012  )
       827           C   tau( 827) = (   0.7499988   0.0500012   0.4500012  )
       828           C   tau( 828) = (   0.7499988   0.0500012   0.6500012  )
       829           C   tau( 829) = (   0.7499988   0.0500012   0.8500012  )
       830           C   tau( 830) = (   0.7499988   0.2500012   0.0500012  )
       831           C   tau( 831) = (   0.7499988   0.2500012   0.2500012  )
       832           C   tau( 832) = (   0.7499988   0.2500012   0.4500012  )
       833           C   tau( 833) = (   0.7499988   0.2500012   0.6500012  )
       834           C   tau( 834) = (   0.7499988   0.2500012   0.8500012  )
       835           C   tau( 835) = (   0.7499988   0.4500012   0.0500012  )
       836           C   tau( 836) = (   0.7499988   0.4500012   0.2500012  )
       837           C   tau( 837) = (   0.7499988   0.4500012   0.4500012  )
       838           C   tau( 838) = (   0.7499988   0.4500012   0.6500012  )
       839           C   tau( 839) = (   0.7499988   0.4500012   0.8500012  )
       840           C   tau( 840) = (   0.7499988   0.6500012   0.0500012  )
       841           C   tau( 841) = (   0.7499988   0.6500012   0.2500012  )
       842           C   tau( 842) = (   0.7499988   0.6500012   0.4500012  )
       843           C   tau( 843) = (   0.7499988   0.6500012   0.6500012  )
       844           C   tau( 844) = (   0.7499988   0.6500012   0.8500012  )
       845           C   tau( 845) = (   0.7499988   0.8500012   0.0500012  )
       846           C   tau( 846) = (   0.7499988   0.8500012   0.2500012  )
       847           C   tau( 847) = (   0.7499988   0.8500012   0.4500012  )
       848           C   tau( 848) = (   0.7499988   0.8500012   0.6500012  )
       849           C   tau( 849) = (   0.7499988   0.8500012   0.8500012  )
       850           C   tau( 850) = (   0.9499988   0.0500012   0.0500012  )
       851           C   tau( 851) = (   0.9499988   0.0500012   0.2500012  )
       852           C   tau( 852) = (   0.9499988   0.0500012   0.4500012  )
       853           C   tau( 853) = (   0.9499988   0.0500012   0.6500012  )
       854           C   tau( 854) = (   0.9499988   0.0500012   0.8500012  )
       855           C   tau( 855) = (   0.9499988   0.2500012   0.0500012  )
       856           C   tau( 856) = (   0.9499988   0.2500012   0.2500012  )
       857           C   tau( 857) = (   0.9499988   0.2500012   0.4500012  )
       858           C   tau( 858) = (   0.9499988   0.2500012   0.6500012  )
       859           C   tau( 859) = (   0.9499988   0.2500012   0.8500012  )
       860           C   tau( 860) = (   0.9499988   0.4500012   0.0500012  )
       861           C   tau( 861) = (   0.9499988   0.4500012   0.2500012  )
       862           C   tau( 862) = (   0.9499988   0.4500012   0.4500012  )
       863           C   tau( 863) = (   0.9499988   0.4500012   0.6500012  )
       864           C   tau( 864) = (   0.9499988   0.4500012   0.8500012  )
       865           C   tau( 865) = (   0.9499988   0.6500012   0.0500012  )
       866           C   tau( 866) = (   0.9499988   0.6500012   0.2500012  )
       867           C   tau( 867) = (   0.9499988   0.6500012   0.4500012  )
       868           C   tau( 868) = (   0.9499988   0.6500012   0.6500012  )
       869           C   tau( 869) = (   0.9499988   0.6500012   0.8500012  )
       870           C   tau( 870) = (   0.9499988   0.8500012   0.0500012  )
       871           C   tau( 871) = (   0.9499988   0.8500012   0.2500012  )
       872           C   tau( 872) = (   0.9499988   0.8500012   0.4500012  )
       873           C   tau( 873) = (   0.9499988   0.8500012   0.6500012  )
       874           C   tau( 874) = (   0.9499988   0.8500012   0.8500012  )
       875           C   tau( 875) = (   0.1000000   0.1000000   0.1000000  )
       876           C   tau( 876) = (   0.1000000   0.1000000   0.3000000  )
       877           C   tau( 877) = (   0.1000000   0.1000000   0.5000000  )
       878           C   tau( 878) = (   0.1000000   0.1000000   0.7000000  )
       879           C   tau( 879) = (   0.1000000   0.1000000   0.9000000  )
       880           C   tau( 880) = (   0.1000000   0.3000000   0.1000000  )
       881           C   tau( 881) = (   0.1000000   0.3000000   0.3000000  )
       882           C   tau( 882) = (   0.1000000   0.3000000   0.5000000  )
       883           C   tau( 883) = (   0.1000000   0.3000000   0.7000000  )
       884           C   tau( 884) = (   0.1000000   0.3000000   0.9000000  )
       885           C   tau( 885) = (   0.1000000   0.5000000   0.1000000  )
       886           C   tau( 886) = (   0.1000000   0.5000000   0.3000000  )
       887           C   tau( 887) = (   0.1000000   0.5000000   0.5000000  )
       888           C   tau( 888) = (   0.1000000   0.5000000   0.7000000  )
       889           C   tau( 889) = (   0.1000000   0.5000000   0.9000000  )
       890           C   tau( 890) = (   0.1000000   0.7000000   0.1000000  )
       891           C   tau( 891) = (   0.1000000   0.7000000   0.3000000  )
       892           C   tau( 892) = (   0.1000000   0.7000000   0.5000000  )
       893           C   tau( 893) = (   0.1000000   0.7000000   0.7000000  )
       894           C   tau( 894) = (   0.1000000   0.7000000   0.9000000  )
       895           C   tau( 895) = (   0.1000000   0.9000000   0.1000000  )
       896           C   tau( 896) = (   0.1000000   0.9000000   0.3000000  )
       897           C   tau( 897) = (   0.1000000   0.9000000   0.5000000  )
       898           C   tau( 898) = (   0.1000000   0.9000000   0.7000000  )
       899           C   tau( 899) = (   0.1000000   0.9000000   0.9000000  )
       900           C   tau( 900) = (   0.3000000   0.1000000   0.1000000  )
       901           C   tau( 901) = (   0.3000000   0.1000000   0.3000000  )
       902           C   tau( 902) = (   0.3000000   0.1000000   0.5000000  )
       903           C   tau( 903) = (   0.3000000   0.1000000   0.7000000  )
       904           C   tau( 904) = (   0.3000000   0.1000000   0.9000000  )
       905           C   tau( 905) = (   0.3000000   0.3000000   0.1000000  )
       906           C   tau( 906) = (   0.3000000   0.3000000   0.3000000  )
       907           C   tau( 907) = (   0.3000000   0.3000000   0.5000000  )
       908           C   tau( 908) = (   0.3000000   0.3000000   0.7000000  )
       909           C   tau( 909) = (   0.3000000   0.3000000   0.9000000  )
       910           C   tau( 910) = (   0.3000000   0.5000000   0.1000000  )
       911           C   tau( 911) = (   0.3000000   0.5000000   0.3000000  )
       912           C   tau( 912) = (   0.3000000   0.5000000   0.5000000  )
       913           C   tau( 913) = (   0.3000000   0.5000000   0.7000000  )
       914           C   tau( 914) = (   0.3000000   0.5000000   0.9000000  )
       915           C   tau( 915) = (   0.3000000   0.7000000   0.1000000  )
       916           C   tau( 916) = (   0.3000000   0.7000000   0.3000000  )
       917           C   tau( 917) = (   0.3000000   0.7000000   0.5000000  )
       918           C   tau( 918) = (   0.3000000   0.7000000   0.7000000  )
       919           C   tau( 919) = (   0.3000000   0.7000000   0.9000000  )
       920           C   tau( 920) = (   0.3000000   0.9000000   0.1000000  )
       921           C   tau( 921) = (   0.3000000   0.9000000   0.3000000  )
       922           C   tau( 922) = (   0.3000000   0.9000000   0.5000000  )
       923           C   tau( 923) = (   0.3000000   0.9000000   0.7000000  )
       924           C   tau( 924) = (   0.3000000   0.9000000   0.9000000  )
       925           C   tau( 925) = (   0.5000000   0.1000000   0.1000000  )
       926           C   tau( 926) = (   0.5000000   0.1000000   0.3000000  )
       927           C   tau( 927) = (   0.5000000   0.1000000   0.5000000  )
       928           C   tau( 928) = (   0.5000000   0.1000000   0.7000000  )
       929           C   tau( 929) = (   0.5000000   0.1000000   0.9000000  )
       930           C   tau( 930) = (   0.5000000   0.3000000   0.1000000  )
       931           C   tau( 931) = (   0.5000000   0.3000000   0.3000000  )
       932           C   tau( 932) = (   0.5000000   0.3000000   0.5000000  )
       933           C   tau( 933) = (   0.5000000   0.3000000   0.7000000  )
       934           C   tau( 934) = (   0.5000000   0.3000000   0.9000000  )
       935           C   tau( 935) = (   0.5000000   0.5000000   0.1000000  )
       936           C   tau( 936) = (   0.5000000   0.5000000   0.3000000  )
       937           C   tau( 937) = (   0.5000000   0.5000000   0.5000000  )
       938           C   tau( 938) = (   0.5000000   0.5000000   0.7000000  )
       939           C   tau( 939) = (   0.5000000   0.5000000   0.9000000  )
       940           C   tau( 940) = (   0.5000000   0.7000000   0.1000000  )
       941           C   tau( 941) = (   0.5000000   0.7000000   0.3000000  )
       942           C   tau( 942) = (   0.5000000   0.7000000   0.5000000  )
       943           C   tau( 943) = (   0.5000000   0.7000000   0.7000000  )
       944           C   tau( 944) = (   0.5000000   0.7000000   0.9000000  )
       945           C   tau( 945) = (   0.5000000   0.9000000   0.1000000  )
       946           C   tau( 946) = (   0.5000000   0.9000000   0.3000000  )
       947           C   tau( 947) = (   0.5000000   0.9000000   0.5000000  )
[...]
C            16.0755933020        3.5724282697       10.7167031567
C            16.0768239697        3.5717804408       14.2892738523
C            16.0768643626        7.1443686969        0.0007454414
C            16.0721366430        7.1492183044        3.5758297922
C            16.0747388992        7.1456233232        7.1459179094
C            16.0755061132        7.1446186911       10.7170507462
C            16.0758562428        7.1441180613       14.2897630772
C            16.0756508076       10.7167086226       -0.0000070013
C            16.0754582786       10.7171745512        3.5724765303
C            16.0753033270       10.7171163960        7.1448352026
C            16.0754437301       10.7167094442       10.7168514756
C            16.0755452958       10.7164970680       14.2892018107
C            16.0754180834       14.2880128838       -0.0002362495
C            16.0758695258       14.2892655465        3.5722646133
C            16.0755944022       14.2893799469        7.1444897775
C            16.0753373680       14.2889604038       10.7164345493
C            16.0747515410       14.2877530010       14.2880472603
C             2.6649746612        0.9081219130        0.8891280672
C             2.6802653462        0.8918245025        4.4674627583
C             2.6794127958        0.8927491282        8.0383072255
C             2.6794244969        0.8928950056       11.6100071379
C             2.6784063432        0.8940618878       15.1842982732
C             2.6649084766        4.4497739753        0.8967405197
C             2.6784556183        4.4641747364        4.4631945656
C             2.6794947231        4.4654234503        8.0382071690
C             2.6794925485        4.4654326070       11.6098532855
C             2.6801900663        4.4660735796       15.1803493095
C             2.6794469530        8.0383733512        0.8928314192
C             2.6797725003        8.0377307684        4.4650650774
C             2.6796251620        8.0378909380        8.0377989772
C             2.6792177536        8.0379931941       11.6098915432
C             2.6791267318        8.0387529563       15.1815427021
C             2.6793820149       11.6101514235        0.8929197587
C             2.6794436354       11.6101196573        4.4653442255
C             2.6793726763       11.6101013011        8.0377850786
C             2.6793145826       11.6102045049       11.6100984362
C             2.6793540857       11.6102367716       15.1821287751
C             2.6795063798       15.1816676689        0.8929219474
C             2.6792087408       15.1811007396        4.4660434545
C             2.6791977066       15.1819860010        8.0380756156
C             2.6795123391       15.1822744531       11.6102449068
C             2.6796886480       15.1825683903       15.1824118875
C             6.2519581435        0.8926527936        0.8927739889
C             6.2523604596        0.8928815275        4.4660138424
C             6.2514474732        0.8929809183        8.0382298464
C             6.2512496821        0.8927895492       11.6102753700
C             6.2510361476        0.8925921739       15.1823402200
C             6.2518479634        4.4654515738        0.8927102869
C             6.2510190620        4.4657811353        4.4651563946
C             6.2512167600        4.4656423106        8.0379398096
C             6.2514521936        4.4652606744       11.6099144151
C             6.2523356325        4.4651448095       15.1814240533
C             6.2512016028        8.0379017405        0.8935880820
C             6.2511429695        8.0379551767        4.4655227798
C             6.2513779636        8.0379987625        8.0378728195
C             6.2513080968        8.0377943316       11.6100793726
C             6.2515150464        8.0380197791       15.1822469723
C             6.2512992397       11.6101821522        0.8929197325
C             6.2512936656       11.6100866831        4.4653756711
C             6.2513230504       11.6101473994        8.0377757128
C             6.2513427576       11.6101532606       11.6101101116
C             6.2513961139       11.6102649936       15.1821438602
C             6.2513041569       15.1822199938        0.8920750854
C             6.2514858348       15.1818970054        4.4651905232
C             6.2512913346       15.1821780438        8.0378394160
C             6.2513979357       15.1821856493       11.6101485341
C             6.2512311682       15.1823257334       15.1820111077
C             9.8234679221        0.8927144831        0.8927042862
C             9.8235419524        0.8926887698        4.4652596129
C             9.8235598976        0.8927693034        8.0379941722
C             9.8234549435        0.8928331734       11.6102174553
C             9.8234338161        0.8927987628       15.1821124228
C             9.8234430368        4.4653186450        0.8926683873
C             9.8233567597        4.4654270919        4.4653738099
C             9.8233497846        4.4655147183        8.0380406318
C             9.8234954375        4.4654499667       11.6101902464
C             9.8235230967        4.4653768042       15.1820391417
C             9.8234833786        8.0380106033        0.8927158918
C             9.8232905685        8.0381024979        4.4654699317
C             9.8234451721        8.0380275251        8.0379938029
C             9.8235438098        8.0379542478       11.6101168440
C             9.8236869196        8.0379911073       15.1820191578
C             9.8235405342       11.6102499142        0.8927734950
C             9.8234064349       11.6102252612        4.4653600733
C             9.8235292032       11.6101463525        8.0379182844
C             9.8236749154       11.6101601192       11.6101328813
C             9.8236751325       11.6101818174       15.1821322491
C             9.8235327789       15.1821956781        0.8927748363
C             9.8235560364       15.1820872017        4.4653069875
C             9.8235467016       15.1820998224        8.0379181097
C             9.8236604336       15.1821699814       11.6101521156
C             9.8235353133       15.1821499114       15.1821099792
C            13.3955013622        0.8925697116        0.8927154208
C            13.3964606422        0.8923815515        4.4651505604
C            13.3963248104        0.8925358939        8.0379080019
C            13.3960059654        0.8928546989       11.6099215247
C            13.3950592774        0.8928999333       15.1814597781
C            13.3956596187        4.4654540675        0.8927373676
C            13.3950876708        4.4651571116        4.4660239266
C            13.3959399750        4.4652390546        8.0382919153
C            13.3962359992        4.4655843804       11.6103283758
C            13.3965519185        4.4657417304       15.1823353343
C            13.3963819823        8.0379263820        0.8918410998
C            13.3959468852        8.0382288277        4.4651846468
C            13.3960511113        8.0380443157        8.0380837683
C            13.3960636624        8.0381133830       11.6102542432
C            13.3963562135        8.0379260991       15.1819553769
C            13.3962168726       11.6102134496        0.8926478253
C            13.3961119373       11.6103491398        4.4653499058
C            13.3960985768       11.6102378541        8.0380453583
C            13.3961290775       11.6102163689       11.6102010485
C            13.3961334815       11.6100786725       15.1820482014
C            13.3961598229       15.1821684244        0.8934571216
C            13.3962822601       15.1822549694        4.4654755779
C            13.3961541424       15.1820912825        8.0379968535
C            13.3961829328       15.1821391549       11.6101446246
C            13.3959152537       15.1819125358       15.1822047092
C            16.9837827347        0.9080170719        0.8968331488
C            16.9699603286        0.8938260700        4.4632512179
C            16.9686934321        0.8926766732        8.0381493424
C            16.9686566837        0.8927497704       11.6097682685
C            16.9679519009        0.8919083923       15.1802984055
C            16.9838678885        4.4496367485        0.8890175967
C            16.9680283477        4.4661313954        4.4673693092
C            16.9687521898        4.4653453715        8.0384010688
C            16.9687668671        4.4654001799       11.6101064946
C            16.9701052621        4.4640327607       15.1843899256
C            16.9687533431        8.0383761634        0.8927183410
C            16.9690584076        8.0390331102        4.4658811838
C            16.9689155342        8.0382052326        8.0382677663
C            16.9685145024        8.0378642331       11.6103737321
C            16.9683555993        8.0375185887       15.1824426478
C            16.9686745453       11.6101310925        0.8927734389
C            16.9688040185       11.6103184583        4.4653115453
C            16.9686979479       11.6103295438        8.0379233390
C            16.9685569891       11.6100981110       11.6101590699
C            16.9685360539       11.6100469556       15.1821141088
C            16.9686654474       15.1816413197        0.8928605674
C            16.9684353116       15.1824216302        4.4651714280
C            16.9685093096       15.1822600213        8.0378116208
C            16.9687178368       15.1819981855       11.6098461460
C            16.9688040864       15.1811508968       15.1814888132
C             1.8719908303        1.7004536867        1.8719908303
C             1.7863854154        1.7855089615        5.3610787059
C             1.7859256860        1.7859396854        8.9310355702
C             1.7858842019        1.7861283651       12.5024914381
C             1.7813576730        1.7909644163       16.0745647330
C             1.7813411621        5.3587795405        1.7813411621
C             1.7852365899        5.3569636604        5.3579089175
C             1.7858882312        5.3580047281        8.9308337322
C             1.7861928212        5.3583406680       12.5024808174
C             1.7988229410        5.3690439415       16.0647697112
C             1.7857995392        8.9314176291        1.7857995392
C             1.7857690539        8.9305588255        5.3576065211
C             1.7858963312        8.9306224867        8.9305996104
C             1.7864008139        8.9307367017       12.5034363503
C             1.7861042808        8.9315232847       16.0754377400
C             1.7859923250       12.5029588889        1.7859923250
C             1.7860238016       12.5031727166        5.3581236472
C             1.7860242029       12.5035148996        8.9306562914
C             1.7858543344       12.5034988947       12.5034845538
C             1.7859236296       12.5031911834       16.0755985114
C             1.7864234694       16.0730066643        1.7864234694
C             1.7883562227       16.0743125014        5.3595375417
C             1.7859403884       16.0756137681        8.9309164954
C             1.7858134294       16.0759602588       12.5034358744
C             1.7853503646       16.0758477963       16.0767043150
C             5.3610787059        1.7855089615        1.7863854154
C             5.3594303698        1.7834940725        5.3594303698
C             5.3580196181        1.7859262648        8.9309968535
C             5.3577626609        1.7861843841       12.5035580677
C             5.3580632833        1.7867225858       16.0766614145
C             5.3579089175        5.3569636604        1.7852365899
C             5.3574841927        5.3578535992        5.3574841927
C             5.3579270194        5.3580547300        8.9305850675
C             5.3589496748        5.3588573551       12.5021891199
C             5.3628538692        5.3615453246       16.0721264751
C             5.3576065211        8.9305588255        1.7857690539
C             5.3578629448        8.9305947590        5.3578629448
C             5.3580912015        8.9307410810        8.9305281904
C             5.3584641409        8.9311143254       12.5029838588
C             5.3588904167        8.9319284427       16.0748313882
C             5.3581236472       12.5031727166        1.7860238016
C             5.3582823450       12.5029650214        5.3582823450
C             5.3581589346       12.5033806268        8.9307102307
C             5.3581075048       12.5036252652       12.5034182612
C             5.3580288489       12.5036273612       16.0756306294
C             5.3595375417       16.0743125014        1.7883562227
C             5.3596459751       16.0740244068        5.3596459751
C             5.3582376675       16.0753918667        8.9311695476
C             5.3579762505       16.0758118651       12.5036152401
C             5.3576679674       16.0761805347       16.0758081836
C             8.9310355702        1.7859396854        1.7859256860
C             8.9309968535        1.7859262648        5.3580196181
C             8.9307133436        1.7858582562        8.9307133436
C             8.9305495587        1.7859894142       12.5035997564
C             8.9307607968        1.7859857504       16.0756278785
C             8.9308337322        5.3580047281        1.7858882312
C             8.9305850675        5.3580547300        5.3579270194
C             8.9306446778        5.3581590369        8.9306446778
C             8.9309387552        5.3582532362       12.5032834226
C             8.9311371420        5.3581450149       16.0754882006
C             8.9305996104        8.9306224867        1.7858963312
C             8.9305281904        8.9307410810        5.3580912015
C             8.9307085935        8.9308344321        8.9307085935
C             8.9309201047        8.9309190428       12.5032600900
C             8.9310514277        8.9309221048       16.0753914589
C             8.9306562914       12.5035148996        1.7860242029
C             8.9307102307       12.5033806268        5.3581589346
C             8.9307779016       12.5033974201        8.9307779016
C             8.9308246794       12.5034968385       12.5033762515
C             8.9306931258       12.5035788014       16.0755258180
C             8.9309164954       16.0756137681        1.7859403884
C             8.9311695476       16.0753918667        5.3582376675
C             8.9308274598       16.0754804486        8.9308274598
C             8.9305810664       16.0755895581       12.5034847824
C             8.9304942851       16.0757230377       16.0756009189
C            12.5024914381        1.7861283651        1.7858842019
C            12.5035580677        1.7861843841        5.3577626609
C            12.5035997564        1.7859894142        8.9305495587
C            12.5032788227        1.7854313563       12.5032788227
C            12.5023249871        1.7857839061       16.0753688716
C            12.5024808174        5.3583406680        1.7861928212
C            12.5021891199        5.3588573551        5.3589496748
C            12.5032834226        5.3582532362        8.9309387552
C            12.5036769818        5.3580622422       12.5036769818
C            12.5036792419        5.3578915158       16.0758908793
C            12.5034363503        8.9307367017        1.7864008139
C            12.5029838588        8.9311143254        5.3584641409
C            12.5032600900        8.9309190428        8.9309201047
C            12.5035167812        8.9308044031       12.5035167812
C            12.5037502992        8.9305255737       16.0756451609
C            12.5034845538       12.5034988947        1.7858543344
C            12.5034182612       12.5036252652        5.3581075048
C            12.5033762515       12.5034968385        8.9308246794
C            12.5032625663       12.5032598091       12.5032625663
C            12.5031887408       12.5030554591       16.0753210928
C            12.5034358744       16.0759602588        1.7858134294
C            12.5036152401       16.0758118651        5.3579762505
C            12.5034847824       16.0755895581        8.9305810664
C            12.5028772128       16.0750992127       12.5028772128
C            12.5019550905       16.0746641963       16.0747600312
C            16.0745647330        1.7909644163        1.7813576730
C            16.0766614145        1.7867225858        5.3580632833
C            16.0756278785        1.7859857504        8.9307607968
C            16.0753688716        1.7857839061       12.5023249871
C            16.0644788171        1.7729267839       16.0644788171
C            16.0647697112        5.3690439415        1.7988229410
C            16.0721264751        5.3615453246        5.3628538692
C            16.0754882006        5.3581450149        8.9311371420
C            16.0758908793        5.3578915158       12.5036792419
C            16.0773976582        5.3563123492       16.0773976582
C            16.0754377400        8.9315232847        1.7861042808
C            16.0748313882        8.9319284427        5.3588904167
C            16.0753914589        8.9309221048        8.9310514277
C            16.0756451609        8.9305255737       12.5037502992
C            16.0758793308        8.9304162224       16.0758793308
C            16.0755985114       12.5031911834        1.7859236296
C            16.0756306294       12.5036273612        5.3580288489
C            16.0755258180       12.5035788014        8.9306931258
C            16.0753210928       12.5030554591       12.5031887408
C            16.0754335763       12.5027843970       16.0754335763
C            16.0767043150       16.0758477963        1.7853503646
C            16.0758081836       16.0761805347        5.3576679674
C            16.0756009189       16.0757230377        8.9304942851
C            16.0747600312       16.0746641963       12.5019550905
C            16.0721000808       16.0708498223       16.0721000808



     Writing config-only to output data dir ./diamond.save/
     NEW-OLD atomic charge density approx. for the potential

     Check: negative core charge=   -0.000014


     -----------------------------------------------
     Non-local corr. energy    =      34.15716230 Ry
     -----------------------------------------------


     total cpu time spent up to now is   164379.1 secs

     Self-consistent Calculation

     iteration #  1     ecut=    70.00 Ry     beta= 0.70
     Davidson diagonalization with overlap

---- Real-time Memory Report at c_bands before calling an iterative solver
          4983 MiB given to the printing process from OS
             0 MiB allocation reported by mallinfo(arena+hblkhd)
       1281845 MiB available memory on the node where the printing process lives
------------------
     ethr =  1.00E-06,  avg # of iterations =  3.0

     Threshold (ethr) on eigenvalues was too large:
     Diagonalizing with lowered threshold

     Davidson diagonalization with overlap

---- Real-time Memory Report at c_bands before calling an iterative solver
          4983 MiB given to the printing process from OS
             0 MiB allocation reported by mallinfo(arena+hblkhd)
       1241120 MiB available memory on the node where the printing process lives
------------------
     ethr =  1.00E-09,  avg # of iterations = 18.0


     -----------------------------------------------
     Non-local corr. energy    =      34.15726826 Ry
     -----------------------------------------------


     total cpu time spent up to now is   170859.9 secs

     total energy              =  -18975.37084577 Ry
     estimated scf accuracy    <       0.00004832 Ry

     iteration #  2     ecut=    70.00 Ry     beta= 0.70
     Davidson diagonalization with overlap

---- Real-time Memory Report at c_bands before calling an iterative solver
          4983 MiB given to the printing process from OS
             0 MiB allocation reported by mallinfo(arena+hblkhd)
       1241102 MiB available memory on the node where the printing process lives
------------------
