
     Program PWSCF v.7.1 starts on 17Feb2024 at 19:22:26 

     This program is part of the open-source Quantum ESPRESSO suite
     for quantum simulation of materials; please cite
         "P. Giannozzi et al., J. Phys.:Condens. Matter 21 395502 (2009);
         "P. Giannozzi et al., J. Phys.:Condens. Matter 29 465901 (2017);
         "P. Giannozzi et al., J. Chem. Phys. 152 154105 (2020);
          URL http://www.quantum-espresso.org", 
     in publications or presentations arising from this work. More details at
     http://www.quantum-espresso.org/quote

     Parallel version (MPI & OpenMP), running on     256 processor cores
     Number of MPI processes:               256
     Threads/MPI process:                     1

     MPI processes distributed on     2 nodes
     1918518 MiB available memory on the printing compute node when the environment starts
 
     Reading input from espresso.pwi
Warning: card &CELL ignored
Warning: card    CELL_DYNAMICS    = 'BFGS' ignored
Warning: card / ignored

     Current dimensions of program PWSCF are:
     Max number of different atomic species (ntypx) = 10
     Max number of k-points (npk) =  40000
     Max angular momentum in pseudopotentials (lmaxx) =  4
     file Ga.pbe-dn-kjpaw_psl.1.0.0.UPF: wavefunction(s)  4S renormalized
     file N.pbe-n-kjpaw_psl.1.0.0.UPF: wavefunction(s)  2S renormalized

     **************************************************************************
     Initializing libbeef V0.1.2 with the BEEF-vdW functional.
     Citation: Wellendorff et al., PRB 85, 235149 (2012).
     **************************************************************************


     IMPORTANT: XC functional enforced from input :
     Exchange-correlation= BEEF-VDW
                           (   1   4  43  14   2   0   0)
     Any further DFT definition will be discarded
     Please, verify this is what you really want

 
     K-points division:     npool     =       4
     R & G space division:  proc/nbgrp/npool/nimage =      64
     Subspace diagonalization in iterative solution of the eigenvalue problem:
     a serial algorithm will be used

 
     Parallelization info
     --------------------
     sticks:   dense  smooth     PW     G-vecs:    dense   smooth      PW
     Min         226     181     47                26979    19303    2571
     Max         228     182     48                26983    19308    2576
     Sum       14527   11629   3037              1726709  1235535  164709
 
     Using Slab Decomposition
 


     bravais-lattice index     =            4
     lattice parameter (alat)  =      24.5252  a.u.
     unit-cell volume          =   15616.6055 (a.u.)^3
     number of atoms/cell      =          192
     number of atomic types    =            2
     number of electrons       =      1734.00
     number of Kohn-Sham states=         1040
     kinetic-energy cutoff     =      70.0000  Ry
     charge density cutoff     =     350.0000  Ry
     scf convergence threshold =      1.0E-07
     mixing beta               =       0.7000
     number of iterations used =            8  plain     mixing
     energy convergence thresh.=      1.0E-04
     force convergence thresh. =      1.0E-03
     Exchange-correlation= BEEF-VDW
                           (   1   4  43  14   2   0   0)
     nstep                     =           50


     celldm(1)=  24.525232  celldm(2)=   0.000000  celldm(3)=   1.222409
     celldm(4)=   0.000000  celldm(5)=   0.000000  celldm(6)=   0.000000

     crystal axes: (cart. coord. in units of alat)
               a(1) = (   1.000000   0.000000   0.000000 )  
               a(2) = (  -0.500000   0.866025   0.000000 )  
               a(3) = (   0.000000   0.000000   1.222409 )  

     reciprocal axes: (cart. coord. in units 2 pi/alat)
               b(1) = (  1.000000  0.577350 -0.000000 )  
               b(2) = (  0.000000  1.154701  0.000000 )  
               b(3) = (  0.000000 -0.000000  0.818057 )  


     PseudoPot. # 1 for Ga read from file:
     //group///packages/espresso/pseudo/psl_1.0.0/pslibrary.1.0.0/pbe/PSEUDOPOTENTIALS/Ga.pbe-dn-kjpaw_psl.1.0.0.UPF
     MD5 check sum: cd2a01e492f15b435d17032472d8505c
     Pseudo is Projector augmented-wave + core cor, Zval = 13.0
     Generated using 'atomic' code by A. Dal Corso  v.7.1
     Shape of augmentation charge: PSQ
     Using radial grid of 1205 points,  6 beta functions with: 
                l(1) =   0
                l(2) =   0
                l(3) =   1
                l(4) =   1
                l(5) =   2
                l(6) =   2
     Q(r) pseudized with 0 coefficients 


     PseudoPot. # 2 for N  read from file:
     //group///packages/espresso/pseudo/psl_1.0.0/pslibrary.1.0.0/pbe/PSEUDOPOTENTIALS/N.pbe-n-kjpaw_psl.1.0.0.UPF
     MD5 check sum: f77f775694dac7e2c3fe1c82443d1a16
     Pseudo is Projector augmented-wave + core cor, Zval =  5.0
     Generated using 'atomic' code by A. Dal Corso  v.7.1
     Shape of augmentation charge: PSQ
     Using radial grid of 1085 points,  4 beta functions with: 
                l(1) =   0
                l(2) =   0
                l(3) =   1
                l(4) =   1
     Q(r) pseudized with 0 coefficients 


     atomic species   valence    mass     pseudopotential
        Ga            13.00    69.72300     Ga( 1.00)
        N              5.00    14.00700     N ( 1.00)

      6 Sym. Ops. (no inversion) found ( 4 have fractional translation)


                                    s                        frac. trans.

      isym =  1     identity                                     

 cryst.   s( 1) = (     1          0          0      )
                  (     0          1          0      )
                  (     0          0          1      )

 cart.    s( 1) = (  1.0000000  0.0000000  0.0000000 )
                  (  0.0000000  1.0000000  0.0000000 )
                  (  0.0000000  0.0000000  1.0000000 )


      isym =  2     120 deg rotation - cryst. axis [0,0,1]       

 cryst.   s( 2) = (     0          1          0      )    f =( -0.2500000 )
                  (    -1         -1          0      )       (  0.0000002 )
                  (     0          0          1      )       (  0.0000000 )

 cart.    s( 2) = ( -0.5000000 -0.8660254  0.0000000 )    f =( -0.2500001 )
                  (  0.8660254 -0.5000000  0.0000000 )       (  0.0000002 )
                  (  0.0000000  0.0000000  1.0000000 )       (  0.0000000 )


      isym =  3     120 deg rotation - cryst. axis [0,0,-1]      

 cryst.   s( 3) = (    -1         -1          0      )    f =( -0.2500002 )
                  (     1          0          0      )       ( -0.2500000 )
                  (     0          0          1      )       (  0.0000000 )

 cart.    s( 3) = ( -0.5000000  0.8660254  0.0000000 )    f =( -0.1250002 )
                  ( -0.8660254 -0.5000000  0.0000000 )       ( -0.2165064 )
                  (  0.0000000  0.0000000  1.0000000 )       (  0.0000000 )


      isym =  4     inv. 180 deg rotation - cart. axis [1,0,0]   

 cryst.   s( 4) = (    -1          0          0      )    f =( -0.2500002 )
                  (     1          1          0      )       (  0.0000000 )
                  (     0          0          1      )       (  0.0000000 )

 cart.    s( 4) = ( -1.0000000  0.0000000  0.0000000 )    f =( -0.2500002 )
                  (  0.0000000  1.0000000  0.0000000 )       (  0.0000000 )
                  (  0.0000000  0.0000000  1.0000000 )       (  0.0000000 )


      isym =  5     inv. 180 deg rotation - cryst. axis [0,1,0]  

 cryst.   s( 5) = (     1          1          0      )
                  (     0         -1          0      )
                  (     0          0          1      )

 cart.    s( 5) = (  0.5000000  0.8660254  0.0000000 )
                  (  0.8660254 -0.5000000  0.0000000 )
                  (  0.0000000  0.0000000  1.0000000 )


      isym =  6     inv. 180 deg rotation - cryst. axis [1,1,0]  

 cryst.   s( 6) = (     0         -1          0      )    f =( -0.2500000 )
                  (    -1          0          0      )       ( -0.2500000 )
                  (     0          0          1      )       (  0.0000000 )

 cart.    s( 6) = (  0.5000000 -0.8660254  0.0000000 )    f =( -0.1250000 )
                  ( -0.8660254 -0.5000000  0.0000000 )       ( -0.2165064 )
                  (  0.0000000  0.0000000  1.0000000 )       (  0.0000000 )


     point group C_3v (3m)  
     there are  3 classes
     the character table:

       E     2C3   3s_v 
A_1    1.00  1.00  1.00
A_2    1.00  1.00 -1.00
E      2.00 -1.00  0.00

     the symmetry operations in each class and the name of the first element:

     E        1
          identity                                               
     2C3      2    3
          120 deg rotation - cryst. axis [0,0,1]                 
     3s_v     4    5    6
          inv. 180 deg rotation - cart. axis [1,0,0]             

   Cartesian axes

     site n.     atom                  positions (alat units)
         1           Ga  tau(   1) = (   0.1250001   0.0721687   0.2033935  )
         2           Ga  tau(   2) = (   0.1250001   0.0721687   0.6108633  )
         3           Ga  tau(   3) = (   0.1250001   0.0721687   1.0183331  )
         4           Ga  tau(   4) = (   0.0000001   0.2886751   0.2033935  )
         5           Ga  tau(   5) = (   0.0000001   0.2886751   0.6108633  )
         6           Ga  tau(   6) = (   0.0000001   0.2886751   1.0183331  )
         7           Ga  tau(   7) = (  -0.1249999   0.5051814   0.2033935  )
         8           Ga  tau(   8) = (  -0.1249999   0.5051814   0.6108633  )
         9           Ga  tau(   9) = (  -0.1249999   0.5051814   1.0183331  )
        10           Ga  tau(  10) = (  -0.2499999   0.7216878   0.2033935  )
        11           Ga  tau(  11) = (  -0.2499999   0.7216878   0.6108633  )
        12           Ga  tau(  12) = (  -0.2499999   0.7216878   1.0183331  )
        13           Ga  tau(  13) = (   0.3750001   0.0721687   0.2033935  )
        14           Ga  tau(  14) = (   0.3750001   0.0721687   0.6108633  )
        15           Ga  tau(  15) = (   0.3750001   0.0721687   1.0183331  )
        16           Ga  tau(  16) = (   0.2500001   0.2886751   0.2033935  )
        17           Ga  tau(  17) = (   0.2500001   0.2886751   0.6108633  )
        18           Ga  tau(  18) = (   0.2500001   0.2886751   1.0183331  )
        19           Ga  tau(  19) = (   0.1250001   0.5051814   0.2033935  )
        20           Ga  tau(  20) = (   0.1250001   0.5051814   0.6108633  )
        21           Ga  tau(  21) = (   0.1250001   0.5051814   1.0183331  )
        22           Ga  tau(  22) = (   0.0000001   0.7216878   0.2033935  )
        23           Ga  tau(  23) = (   0.0000001   0.7216878   0.6108633  )
        24           Ga  tau(  24) = (   0.0000001   0.7216878   1.0183331  )
        25           Ga  tau(  25) = (   0.6250001   0.0721687   0.2033935  )
        26           Ga  tau(  26) = (   0.6250001   0.0721687   0.6108633  )
        27           Ga  tau(  27) = (   0.6250001   0.0721687   1.0183331  )
        28           Ga  tau(  28) = (   0.5000001   0.2886751   0.2033935  )
        29           Ga  tau(  29) = (   0.5000001   0.2886751   0.6108633  )
        30           Ga  tau(  30) = (   0.5000001   0.2886751   1.0183331  )
        31           Ga  tau(  31) = (   0.3750001   0.5051814   0.2033935  )
        32           Ga  tau(  32) = (   0.3750001   0.5051814   0.6108633  )
        33           Ga  tau(  33) = (   0.3750001   0.5051814   1.0183331  )
        34           Ga  tau(  34) = (   0.2500001   0.7216878   0.2033935  )
        35           Ga  tau(  35) = (   0.2500001   0.7216878   0.6108633  )
        36           Ga  tau(  36) = (   0.2500001   0.7216878   1.0183331  )
        37           Ga  tau(  37) = (   0.8750001   0.0721687   0.2033935  )
        38           Ga  tau(  38) = (   0.8750001   0.0721687   0.6108633  )
        39           Ga  tau(  39) = (   0.8750001   0.0721687   1.0183331  )
        40           Ga  tau(  40) = (   0.7500001   0.2886751   0.2033935  )
        41           Ga  tau(  41) = (   0.7500001   0.2886751   0.6108633  )
        42           Ga  tau(  42) = (   0.7500001   0.2886751   1.0183331  )
        43           Ga  tau(  43) = (   0.6250001   0.5051814   0.2033935  )
        44           Ga  tau(  44) = (   0.6250001   0.5051814   0.6108633  )
        45           Ga  tau(  45) = (   0.6250001   0.5051814   1.0183331  )
        46           Ga  tau(  46) = (   0.5000001   0.7216878   0.2033935  )
        47           Ga  tau(  47) = (   0.5000001   0.7216878   0.6108633  )
        48           Ga  tau(  48) = (   0.5000001   0.7216878   1.0183331  )
        49           Ga  tau(  49) = (  -0.0000002   0.1443377   0.4071284  )
        50           Ga  tau(  50) = (  -0.0000002   0.1443377   0.8145982  )
        51           Ga  tau(  51) = (  -0.0000002   0.1443377   1.2220680  )
        52           Ga  tau(  52) = (  -0.1250002   0.3608440   0.4071284  )
        53           Ga  tau(  53) = (  -0.1250002   0.3608440   0.8145982  )
        54           Ga  tau(  54) = (  -0.1250002   0.3608440   1.2220680  )
        55           Ga  tau(  55) = (  -0.2500002   0.5773504   0.4071284  )
        56           Ga  tau(  56) = (  -0.2500002   0.5773504   0.8145982  )
        57           Ga  tau(  57) = (  -0.2500002   0.5773504   1.2220680  )
        58           Ga  tau(  58) = (  -0.3750001   0.7938567   0.4071284  )
        59           Ga  tau(  59) = (  -0.3750001   0.7938567   0.8145982  )
        60           Ga  tau(  60) = (  -0.3750001   0.7938567   1.2220680  )
        61           Ga  tau(  61) = (   0.2499998   0.1443377   0.4071284  )
        62           Ga  tau(  62) = (   0.2499998   0.1443377   0.8145982  )
        63           Ga  tau(  63) = (   0.2499998   0.1443377   1.2220680  )
        64           Ga  tau(  64) = (   0.1249998   0.3608440   0.4071284  )
        65           Ga  tau(  65) = (   0.1249998   0.3608440   0.8145982  )
        66           Ga  tau(  66) = (   0.1249998   0.3608440   1.2220680  )
        67           Ga  tau(  67) = (  -0.0000002   0.5773504   0.4071284  )
        68           Ga  tau(  68) = (  -0.0000002   0.5773504   0.8145982  )
        69           Ga  tau(  69) = (  -0.0000002   0.5773504   1.2220680  )
        70           Ga  tau(  70) = (  -0.1250002   0.7938567   0.4071284  )
        71           Ga  tau(  71) = (  -0.1250002   0.7938567   0.8145982  )
        72           Ga  tau(  72) = (  -0.1250002   0.7938567   1.2220680  )
        73           Ga  tau(  73) = (   0.4999998   0.1443377   0.4071284  )
        74           Ga  tau(  74) = (   0.4999998   0.1443377   0.8145982  )
        75           Ga  tau(  75) = (   0.4999998   0.1443377   1.2220680  )
        76           Ga  tau(  76) = (   0.3749998   0.3608440   0.4071284  )
        77           Ga  tau(  77) = (   0.3749998   0.3608440   0.8145982  )
        78           Ga  tau(  78) = (   0.3749998   0.3608440   1.2220680  )
        79           Ga  tau(  79) = (   0.2499998   0.5773504   0.4071284  )
        80           Ga  tau(  80) = (   0.2499998   0.5773504   0.8145982  )
        81           Ga  tau(  81) = (   0.2499998   0.5773504   1.2220680  )
        82           Ga  tau(  82) = (   0.1249998   0.7938567   0.4071284  )
        83           Ga  tau(  83) = (   0.1249998   0.7938567   0.8145982  )
        84           Ga  tau(  84) = (   0.1249998   0.7938567   1.2220680  )
        85           Ga  tau(  85) = (   0.7499998   0.1443377   0.4071284  )
        86           Ga  tau(  86) = (   0.7499998   0.1443377   0.8145982  )
        87           Ga  tau(  87) = (   0.7499998   0.1443377   1.2220680  )
        88           Ga  tau(  88) = (   0.6249998   0.3608440   0.4071284  )
        89           Ga  tau(  89) = (   0.6249998   0.3608440   0.8145982  )
        90           Ga  tau(  90) = (   0.6249998   0.3608440   1.2220680  )
        91           Ga  tau(  91) = (   0.4999998   0.5773504   0.4071284  )
        92           Ga  tau(  92) = (   0.4999998   0.5773504   0.8145982  )
        93           Ga  tau(  93) = (   0.4999998   0.5773504   1.2220680  )
        94           Ga  tau(  94) = (   0.3749998   0.7938567   0.4071284  )
        95           Ga  tau(  95) = (   0.3749998   0.7938567   0.8145982  )
        96           Ga  tau(  96) = (   0.3749998   0.7938567   1.2220680  )
        97           N   tau(  97) = (   0.1250001   0.0721687   0.7643472  )
        98           N   tau(  98) = (   0.1250001   0.0721687   1.1718169  )
        99           N   tau(  99) = (   0.0000001   0.2886751   0.3568774  )
       100           N   tau( 100) = (   0.0000001   0.2886751   0.7643472  )
       101           N   tau( 101) = (   0.0000001   0.2886751   1.1718169  )
       102           N   tau( 102) = (  -0.1249999   0.5051814   0.3568774  )
       103           N   tau( 103) = (  -0.1249999   0.5051814   0.7643472  )
       104           N   tau( 104) = (  -0.1249999   0.5051814   1.1718169  )
       105           N   tau( 105) = (  -0.2499999   0.7216878   0.3568774  )
       106           N   tau( 106) = (  -0.2499999   0.7216878   0.7643472  )
       107           N   tau( 107) = (  -0.2499999   0.7216878   1.1718169  )
       108           N   tau( 108) = (   0.3750001   0.0721687   0.3568774  )
       109           N   tau( 109) = (   0.3750001   0.0721687   0.7643472  )
       110           N   tau( 110) = (   0.3750001   0.0721687   1.1718169  )
       111           N   tau( 111) = (   0.2500001   0.2886751   0.3568774  )
       112           N   tau( 112) = (   0.2500001   0.2886751   0.7643472  )
       113           N   tau( 113) = (   0.2500001   0.2886751   1.1718169  )
       114           N   tau( 114) = (   0.1250001   0.5051814   0.3568774  )
       115           N   tau( 115) = (   0.1250001   0.5051814   0.7643472  )
       116           N   tau( 116) = (   0.1250001   0.5051814   1.1718169  )
       117           N   tau( 117) = (   0.0000001   0.7216878   0.3568774  )
       118           N   tau( 118) = (   0.0000001   0.7216878   0.7643472  )
       119           N   tau( 119) = (   0.0000001   0.7216878   1.1718169  )
       120           N   tau( 120) = (   0.6250001   0.0721687   0.3568774  )
       121           N   tau( 121) = (   0.6250001   0.0721687   0.7643472  )
       122           N   tau( 122) = (   0.6250001   0.0721687   1.1718169  )
       123           N   tau( 123) = (   0.5000001   0.2886751   0.3568774  )
       124           N   tau( 124) = (   0.5000001   0.2886751   0.7643472  )
       125           N   tau( 125) = (   0.5000001   0.2886751   1.1718169  )
       126           N   tau( 126) = (   0.3750001   0.5051814   0.3568774  )
       127           N   tau( 127) = (   0.3750001   0.5051814   0.7643472  )
       128           N   tau( 128) = (   0.3750001   0.5051814   1.1718169  )
       129           N   tau( 129) = (   0.2500001   0.7216878   0.3568774  )
       130           N   tau( 130) = (   0.2500001   0.7216878   0.7643472  )
       131           N   tau( 131) = (   0.2500001   0.7216878   1.1718169  )
       132           N   tau( 132) = (   0.8750001   0.0721687   0.3568774  )
       133           N   tau( 133) = (   0.8750001   0.0721687   0.7643472  )
       134           N   tau( 134) = (   0.8750001   0.0721687   1.1718169  )
       135           N   tau( 135) = (   0.7500001   0.2886751   0.3568774  )
       136           N   tau( 136) = (   0.7500001   0.2886751   0.7643472  )
       137           N   tau( 137) = (   0.7500001   0.2886751   1.1718169  )
       138           N   tau( 138) = (   0.6250001   0.5051814   0.3568774  )
       139           N   tau( 139) = (   0.6250001   0.5051814   0.7643472  )
       140           N   tau( 140) = (   0.6250001   0.5051814   1.1718169  )
       141           N   tau( 141) = (   0.5000001   0.7216878   0.3568774  )
       142           N   tau( 142) = (   0.5000001   0.7216878   0.7643472  )
       143           N   tau( 143) = (   0.5000001   0.7216878   1.1718169  )
       144           N   tau( 144) = (  -0.0000002   0.1443377   0.1531425  )
       145           N   tau( 145) = (  -0.0000002   0.1443377   0.5606123  )
       146           N   tau( 146) = (  -0.0000002   0.1443377   0.9680820  )
       147           N   tau( 147) = (  -0.1250002   0.3608440   0.1531425  )
       148           N   tau( 148) = (  -0.1250002   0.3608440   0.5606123  )
       149           N   tau( 149) = (  -0.1250002   0.3608440   0.9680820  )
       150           N   tau( 150) = (  -0.2500002   0.5773504   0.1531425  )
       151           N   tau( 151) = (  -0.2500002   0.5773504   0.5606123  )
       152           N   tau( 152) = (  -0.2500002   0.5773504   0.9680820  )
       153           N   tau( 153) = (  -0.3750001   0.7938567   0.1531425  )
       154           N   tau( 154) = (  -0.3750001   0.7938567   0.5606123  )
       155           N   tau( 155) = (  -0.3750001   0.7938567   0.9680820  )
       156           N   tau( 156) = (   0.2499998   0.1443377   0.1531425  )
       157           N   tau( 157) = (   0.2499998   0.1443377   0.5606123  )
       158           N   tau( 158) = (   0.2499998   0.1443377   0.9680820  )
       159           N   tau( 159) = (   0.1249998   0.3608440   0.1531425  )
       160           N   tau( 160) = (   0.1249998   0.3608440   0.5606123  )
       161           N   tau( 161) = (   0.1249998   0.3608440   0.9680820  )
       162           N   tau( 162) = (  -0.0000002   0.5773504   0.1531425  )
       163           N   tau( 163) = (  -0.0000002   0.5773504   0.5606123  )
       164           N   tau( 164) = (  -0.0000002   0.5773504   0.9680820  )
       165           N   tau( 165) = (  -0.1250002   0.7938567   0.1531425  )
       166           N   tau( 166) = (  -0.1250002   0.7938567   0.5606123  )
       167           N   tau( 167) = (  -0.1250002   0.7938567   0.9680820  )
       168           N   tau( 168) = (   0.4999998   0.1443377   0.1531425  )
       169           N   tau( 169) = (   0.4999998   0.1443377   0.5606123  )
       170           N   tau( 170) = (   0.4999998   0.1443377   0.9680820  )
       171           N   tau( 171) = (   0.3749998   0.3608440   0.1531425  )
       172           N   tau( 172) = (   0.3749998   0.3608440   0.5606123  )
       173           N   tau( 173) = (   0.3749998   0.3608440   0.9680820  )
       174           N   tau( 174) = (   0.2499998   0.5773504   0.1531425  )
       175           N   tau( 175) = (   0.2499998   0.5773504   0.5606123  )
       176           N   tau( 176) = (   0.2499998   0.5773504   0.9680820  )
       177           N   tau( 177) = (   0.1249998   0.7938567   0.1531425  )
       178           N   tau( 178) = (   0.1249998   0.7938567   0.5606123  )
       179           N   tau( 179) = (   0.1249998   0.7938567   0.9680820  )
       180           N   tau( 180) = (   0.7499998   0.1443377   0.1531425  )
       181           N   tau( 181) = (   0.7499998   0.1443377   0.5606123  )
       182           N   tau( 182) = (   0.7499998   0.1443377   0.9680820  )
       183           N   tau( 183) = (   0.6249998   0.3608440   0.1531425  )
       184           N   tau( 184) = (   0.6249998   0.3608440   0.5606123  )
       185           N   tau( 185) = (   0.6249998   0.3608440   0.9680820  )
       186           N   tau( 186) = (   0.4999998   0.5773504   0.1531425  )
       187           N   tau( 187) = (   0.4999998   0.5773504   0.5606123  )
       188           N   tau( 188) = (   0.4999998   0.5773504   0.9680820  )
       189           N   tau( 189) = (   0.3749998   0.7938567   0.1531425  )
       190           N   tau( 190) = (   0.3749998   0.7938567   0.5606123  )
       191           N   tau( 191) = (   0.3749998   0.7938567   0.9680820  )
       192           Ga  tau( 192) = (   0.1250001   0.0721687   0.3568774  )

   Crystallographic axes

     site n.     atom                  positions (cryst. coord.)
         1           Ga  tau(   1) = (  0.1666667  0.0833333  0.1663874  )
         2           Ga  tau(   2) = (  0.1666667  0.0833333  0.4997208  )
         3           Ga  tau(   3) = (  0.1666667  0.0833333  0.8330541  )
         4           Ga  tau(   4) = (  0.1666667  0.3333333  0.1663874  )
         5           Ga  tau(   5) = (  0.1666667  0.3333333  0.4997208  )
         6           Ga  tau(   6) = (  0.1666667  0.3333333  0.8330541  )
         7           Ga  tau(   7) = (  0.1666667  0.5833333  0.1663874  )
         8           Ga  tau(   8) = (  0.1666667  0.5833333  0.4997208  )
         9           Ga  tau(   9) = (  0.1666667  0.5833333  0.8330541  )
        10           Ga  tau(  10) = (  0.1666667  0.8333333  0.1663874  )
        11           Ga  tau(  11) = (  0.1666667  0.8333333  0.4997208  )
        12           Ga  tau(  12) = (  0.1666667  0.8333333  0.8330541  )
        13           Ga  tau(  13) = (  0.4166667  0.0833333  0.1663874  )
        14           Ga  tau(  14) = (  0.4166667  0.0833333  0.4997208  )
        15           Ga  tau(  15) = (  0.4166667  0.0833333  0.8330541  )
        16           Ga  tau(  16) = (  0.4166667  0.3333333  0.1663874  )
        17           Ga  tau(  17) = (  0.4166667  0.3333333  0.4997208  )
        18           Ga  tau(  18) = (  0.4166667  0.3333333  0.8330541  )
        19           Ga  tau(  19) = (  0.4166667  0.5833333  0.1663874  )
        20           Ga  tau(  20) = (  0.4166667  0.5833333  0.4997208  )
        21           Ga  tau(  21) = (  0.4166667  0.5833333  0.8330541  )
        22           Ga  tau(  22) = (  0.4166667  0.8333333  0.1663874  )
        23           Ga  tau(  23) = (  0.4166667  0.8333333  0.4997208  )
        24           Ga  tau(  24) = (  0.4166667  0.8333333  0.8330541  )
        25           Ga  tau(  25) = (  0.6666667  0.0833333  0.1663874  )
        26           Ga  tau(  26) = (  0.6666667  0.0833333  0.4997208  )
        27           Ga  tau(  27) = (  0.6666667  0.0833333  0.8330541  )
        28           Ga  tau(  28) = (  0.6666667  0.3333333  0.1663874  )
        29           Ga  tau(  29) = (  0.6666667  0.3333333  0.4997208  )
        30           Ga  tau(  30) = (  0.6666667  0.3333333  0.8330541  )
        31           Ga  tau(  31) = (  0.6666667  0.5833333  0.1663874  )
        32           Ga  tau(  32) = (  0.6666667  0.5833333  0.4997208  )
        33           Ga  tau(  33) = (  0.6666667  0.5833333  0.8330541  )
        34           Ga  tau(  34) = (  0.6666667  0.8333333  0.1663874  )
        35           Ga  tau(  35) = (  0.6666667  0.8333333  0.4997208  )
        36           Ga  tau(  36) = (  0.6666667  0.8333333  0.8330541  )
        37           Ga  tau(  37) = (  0.9166667  0.0833333  0.1663874  )
        38           Ga  tau(  38) = (  0.9166667  0.0833333  0.4997208  )
        39           Ga  tau(  39) = (  0.9166667  0.0833333  0.8330541  )
        40           Ga  tau(  40) = (  0.9166667  0.3333333  0.1663874  )
        41           Ga  tau(  41) = (  0.9166667  0.3333333  0.4997208  )
        42           Ga  tau(  42) = (  0.9166667  0.3333333  0.8330541  )
        43           Ga  tau(  43) = (  0.9166667  0.5833333  0.1663874  )
        44           Ga  tau(  44) = (  0.9166667  0.5833333  0.4997208  )
        45           Ga  tau(  45) = (  0.9166667  0.5833333  0.8330541  )
        46           Ga  tau(  46) = (  0.9166667  0.8333333  0.1663874  )
        47           Ga  tau(  47) = (  0.9166667  0.8333333  0.4997208  )
        48           Ga  tau(  48) = (  0.9166667  0.8333333  0.8330541  )
        49           Ga  tau(  49) = (  0.0833333  0.1666668  0.3330541  )
        50           Ga  tau(  50) = (  0.0833333  0.1666668  0.6663874  )
        51           Ga  tau(  51) = (  0.0833333  0.1666668  0.9997208  )
        52           Ga  tau(  52) = (  0.0833333  0.4166668  0.3330541  )
        53           Ga  tau(  53) = (  0.0833333  0.4166668  0.6663874  )
        54           Ga  tau(  54) = (  0.0833333  0.4166668  0.9997208  )
        55           Ga  tau(  55) = (  0.0833333  0.6666668  0.3330541  )
        56           Ga  tau(  56) = (  0.0833333  0.6666668  0.6663874  )
        57           Ga  tau(  57) = (  0.0833333  0.6666668  0.9997208  )
        58           Ga  tau(  58) = (  0.0833333  0.9166668  0.3330541  )
        59           Ga  tau(  59) = (  0.0833333  0.9166668  0.6663874  )
        60           Ga  tau(  60) = (  0.0833333  0.9166668  0.9997208  )
        61           Ga  tau(  61) = (  0.3333332  0.1666668  0.3330541  )
        62           Ga  tau(  62) = (  0.3333332  0.1666668  0.6663874  )
        63           Ga  tau(  63) = (  0.3333332  0.1666668  0.9997208  )
        64           Ga  tau(  64) = (  0.3333332  0.4166668  0.3330541  )
        65           Ga  tau(  65) = (  0.3333332  0.4166668  0.6663874  )
        66           Ga  tau(  66) = (  0.3333332  0.4166668  0.9997208  )
        67           Ga  tau(  67) = (  0.3333332  0.6666668  0.3330541  )
        68           Ga  tau(  68) = (  0.3333332  0.6666668  0.6663874  )
        69           Ga  tau(  69) = (  0.3333332  0.6666668  0.9997208  )
        70           Ga  tau(  70) = (  0.3333332  0.9166668  0.3330541  )
        71           Ga  tau(  71) = (  0.3333332  0.9166668  0.6663874  )
        72           Ga  tau(  72) = (  0.3333332  0.9166668  0.9997208  )
        73           Ga  tau(  73) = (  0.5833332  0.1666668  0.3330541  )
        74           Ga  tau(  74) = (  0.5833332  0.1666668  0.6663874  )
        75           Ga  tau(  75) = (  0.5833332  0.1666668  0.9997208  )
        76           Ga  tau(  76) = (  0.5833332  0.4166668  0.3330541  )
        77           Ga  tau(  77) = (  0.5833332  0.4166668  0.6663874  )
        78           Ga  tau(  78) = (  0.5833332  0.4166668  0.9997208  )
        79           Ga  tau(  79) = (  0.5833332  0.6666668  0.3330541  )
        80           Ga  tau(  80) = (  0.5833332  0.6666668  0.6663874  )
        81           Ga  tau(  81) = (  0.5833332  0.6666668  0.9997208  )
        82           Ga  tau(  82) = (  0.5833332  0.9166668  0.3330541  )
        83           Ga  tau(  83) = (  0.5833332  0.9166668  0.6663874  )
        84           Ga  tau(  84) = (  0.5833332  0.9166668  0.9997208  )
        85           Ga  tau(  85) = (  0.8333332  0.1666668  0.3330541  )
        86           Ga  tau(  86) = (  0.8333332  0.1666668  0.6663874  )
        87           Ga  tau(  87) = (  0.8333332  0.1666668  0.9997208  )
        88           Ga  tau(  88) = (  0.8333332  0.4166668  0.3330541  )
        89           Ga  tau(  89) = (  0.8333332  0.4166668  0.6663874  )
        90           Ga  tau(  90) = (  0.8333332  0.4166668  0.9997208  )
        91           Ga  tau(  91) = (  0.8333332  0.6666668  0.3330541  )
        92           Ga  tau(  92) = (  0.8333332  0.6666668  0.6663874  )
        93           Ga  tau(  93) = (  0.8333332  0.6666668  0.9997208  )
        94           Ga  tau(  94) = (  0.8333332  0.9166668  0.3330541  )
        95           Ga  tau(  95) = (  0.8333332  0.9166668  0.6663874  )
        96           Ga  tau(  96) = (  0.8333332  0.9166668  0.9997208  )
        97           N   tau(  97) = (  0.1666667  0.0833333  0.6252792  )
        98           N   tau(  98) = (  0.1666667  0.0833333  0.9586126  )
        99           N   tau(  99) = (  0.1666667  0.3333333  0.2919459  )
       100           N   tau( 100) = (  0.1666667  0.3333333  0.6252792  )
       101           N   tau( 101) = (  0.1666667  0.3333333  0.9586126  )
       102           N   tau( 102) = (  0.1666667  0.5833333  0.2919459  )
       103           N   tau( 103) = (  0.1666667  0.5833333  0.6252792  )
       104           N   tau( 104) = (  0.1666667  0.5833333  0.9586126  )
       105           N   tau( 105) = (  0.1666667  0.8333333  0.2919459  )
       106           N   tau( 106) = (  0.1666667  0.8333333  0.6252792  )
       107           N   tau( 107) = (  0.1666667  0.8333333  0.9586126  )
       108           N   tau( 108) = (  0.4166667  0.0833333  0.2919459  )
       109           N   tau( 109) = (  0.4166667  0.0833333  0.6252792  )
       110           N   tau( 110) = (  0.4166667  0.0833333  0.9586126  )
       111           N   tau( 111) = (  0.4166667  0.3333333  0.2919459  )
       112           N   tau( 112) = (  0.4166667  0.3333333  0.6252792  )
       113           N   tau( 113) = (  0.4166667  0.3333333  0.9586126  )
       114           N   tau( 114) = (  0.4166667  0.5833333  0.2919459  )
       115           N   tau( 115) = (  0.4166667  0.5833333  0.6252792  )
       116           N   tau( 116) = (  0.4166667  0.5833333  0.9586126  )
       117           N   tau( 117) = (  0.4166667  0.8333333  0.2919459  )
       118           N   tau( 118) = (  0.4166667  0.8333333  0.6252792  )
       119           N   tau( 119) = (  0.4166667  0.8333333  0.9586126  )
       120           N   tau( 120) = (  0.6666667  0.0833333  0.2919459  )
       121           N   tau( 121) = (  0.6666667  0.0833333  0.6252792  )
       122           N   tau( 122) = (  0.6666667  0.0833333  0.9586126  )
       123           N   tau( 123) = (  0.6666667  0.3333333  0.2919459  )
       124           N   tau( 124) = (  0.6666667  0.3333333  0.6252792  )
       125           N   tau( 125) = (  0.6666667  0.3333333  0.9586126  )
       126           N   tau( 126) = (  0.6666667  0.5833333  0.2919459  )
       127           N   tau( 127) = (  0.6666667  0.5833333  0.6252792  )
       128           N   tau( 128) = (  0.6666667  0.5833333  0.9586126  )
       129           N   tau( 129) = (  0.6666667  0.8333333  0.2919459  )
       130           N   tau( 130) = (  0.6666667  0.8333333  0.6252792  )
       131           N   tau( 131) = (  0.6666667  0.8333333  0.9586126  )
       132           N   tau( 132) = (  0.9166667  0.0833333  0.2919459  )
       133           N   tau( 133) = (  0.9166667  0.0833333  0.6252792  )
       134           N   tau( 134) = (  0.9166667  0.0833333  0.9586126  )
       135           N   tau( 135) = (  0.9166667  0.3333333  0.2919459  )
       136           N   tau( 136) = (  0.9166667  0.3333333  0.6252792  )
       137           N   tau( 137) = (  0.9166667  0.3333333  0.9586126  )
       138           N   tau( 138) = (  0.9166667  0.5833333  0.2919459  )
       139           N   tau( 139) = (  0.9166667  0.5833333  0.6252792  )
       140           N   tau( 140) = (  0.9166667  0.5833333  0.9586126  )
       141           N   tau( 141) = (  0.9166667  0.8333333  0.2919459  )
       142           N   tau( 142) = (  0.9166667  0.8333333  0.6252792  )
       143           N   tau( 143) = (  0.9166667  0.8333333  0.9586126  )
       144           N   tau( 144) = (  0.0833333  0.1666668  0.1252792  )
       145           N   tau( 145) = (  0.0833333  0.1666668  0.4586126  )
       146           N   tau( 146) = (  0.0833333  0.1666668  0.7919459  )
       147           N   tau( 147) = (  0.0833333  0.4166668  0.1252792  )
       148           N   tau( 148) = (  0.0833333  0.4166668  0.4586126  )
       149           N   tau( 149) = (  0.0833333  0.4166668  0.7919459  )
       150           N   tau( 150) = (  0.0833333  0.6666668  0.1252792  )
       151           N   tau( 151) = (  0.0833333  0.6666668  0.4586126  )
       152           N   tau( 152) = (  0.0833333  0.6666668  0.7919459  )
       153           N   tau( 153) = (  0.0833333  0.9166668  0.1252792  )
       154           N   tau( 154) = (  0.0833333  0.9166668  0.4586126  )
       155           N   tau( 155) = (  0.0833333  0.9166668  0.7919459  )
       156           N   tau( 156) = (  0.3333332  0.1666668  0.1252792  )
       157           N   tau( 157) = (  0.3333332  0.1666668  0.4586126  )
       158           N   tau( 158) = (  0.3333332  0.1666668  0.7919459  )
       159           N   tau( 159) = (  0.3333332  0.4166668  0.1252792  )
       160           N   tau( 160) = (  0.3333332  0.4166668  0.4586126  )
       161           N   tau( 161) = (  0.3333332  0.4166668  0.7919459  )
       162           N   tau( 162) = (  0.3333332  0.6666668  0.1252792  )
       163           N   tau( 163) = (  0.3333332  0.6666668  0.4586126  )
       164           N   tau( 164) = (  0.3333332  0.6666668  0.7919459  )
       165           N   tau( 165) = (  0.3333332  0.9166668  0.1252792  )
       166           N   tau( 166) = (  0.3333332  0.9166668  0.4586126  )
       167           N   tau( 167) = (  0.3333332  0.9166668  0.7919459  )
       168           N   tau( 168) = (  0.5833332  0.1666668  0.1252792  )
       169           N   tau( 169) = (  0.5833332  0.1666668  0.4586126  )
       170           N   tau( 170) = (  0.5833332  0.1666668  0.7919459  )
       171           N   tau( 171) = (  0.5833332  0.4166668  0.1252792  )
       172           N   tau( 172) = (  0.5833332  0.4166668  0.4586126  )
       173           N   tau( 173) = (  0.5833332  0.4166668  0.7919459  )
       174           N   tau( 174) = (  0.5833332  0.6666668  0.1252792  )
       175           N   tau( 175) = (  0.5833332  0.6666668  0.4586126  )
       176           N   tau( 176) = (  0.5833332  0.6666668  0.7919459  )
       177           N   tau( 177) = (  0.5833332  0.9166668  0.1252792  )
       178           N   tau( 178) = (  0.5833332  0.9166668  0.4586126  )
       179           N   tau( 179) = (  0.5833332  0.9166668  0.7919459  )
       180           N   tau( 180) = (  0.8333332  0.1666668  0.1252792  )
       181           N   tau( 181) = (  0.8333332  0.1666668  0.4586126  )
       182           N   tau( 182) = (  0.8333332  0.1666668  0.7919459  )
       183           N   tau( 183) = (  0.8333332  0.4166668  0.1252792  )
       184           N   tau( 184) = (  0.8333332  0.4166668  0.4586126  )
       185           N   tau( 185) = (  0.8333332  0.4166668  0.7919459  )
       186           N   tau( 186) = (  0.8333332  0.6666668  0.1252792  )
       187           N   tau( 187) = (  0.8333332  0.6666668  0.4586126  )
       188           N   tau( 188) = (  0.8333332  0.6666668  0.7919459  )
       189           N   tau( 189) = (  0.8333332  0.9166668  0.1252792  )
       190           N   tau( 190) = (  0.8333332  0.9166668  0.4586126  )
       191           N   tau( 191) = (  0.8333332  0.9166668  0.7919459  )
       192           Ga  tau( 192) = (  0.1666667  0.0833333  0.2919459  )

     number of k points=     4  Gaussian smearing, width (Ry)=  0.0100
                       cart. coord. in units 2pi/alat
        k(    1) = (   0.0000000   0.0000000   0.0000000), wk =   0.2500000
        k(    2) = (   0.0000000   0.0000000  -0.4090283), wk =   0.2500000
        k(    3) = (   0.0000000  -0.5773503   0.0000000), wk =   0.7500000
        k(    4) = (   0.0000000  -0.5773503  -0.4090283), wk =   0.7500000

                       cryst. coord.
        k(    1) = (   0.0000000   0.0000000   0.0000000), wk =   0.2500000
        k(    2) = (   0.0000000   0.0000000  -0.5000000), wk =   0.2500000
        k(    3) = (   0.0000000  -0.5000000   0.0000000), wk =   0.7500000
        k(    4) = (   0.0000000  -0.5000000  -0.5000000), wk =   0.7500000

     Dense  grid:  1726709 G-vectors     FFT dimensions: ( 160, 160, 180)

     Smooth grid:  1235535 G-vectors     FFT dimensions: ( 144, 144, 160)

     Dynamical RAM for                 wfc:      38.29 MB

     Dynamical RAM for     wfc (w. buffer):      38.29 MB

     Dynamical RAM for           str. fact:       0.82 MB

     Dynamical RAM for           local pot:       0.00 MB

     Dynamical RAM for          nlocal pot:      92.27 MB

     Dynamical RAM for                qrad:       3.00 MB

     Dynamical RAM for          rho,v,vnew:       2.99 MB

     Dynamical RAM for               rhoin:       1.00 MB

     Dynamical RAM for            rho*nmix:       6.59 MB

     Dynamical RAM for           G-vectors:       1.69 MB

     Dynamical RAM for          h,s,v(r/c):     792.19 MB

     Dynamical RAM for          <psi|beta>:      39.77 MB

     Dynamical RAM for                 psi:     153.17 MB

     Dynamical RAM for                hpsi:     153.17 MB

     Dynamical RAM for                spsi:     153.17 MB

     Dynamical RAM for      wfcinit/wfcrot:     101.35 MB

     Dynamical RAM for           addusdens:      29.44 MB

     Dynamical RAM for          addusforce:      49.47 MB

     Dynamical RAM for         addusstress:      20.84 MB

     Estimated static dynamical RAM per process >     144.23 MB

     Estimated max dynamical RAM per process >       1.41 GB

     Estimated total dynamical RAM >     359.34 GB

     Atomic positions and unit cell read from directory:
     ./GaN.save/
     Atomic positions from file used, from input discarded
 

     Check: negative core charge=   -0.000003

     The initial density is read from file :
     ./GaN.save/charge-density



     %%%%%%%%%%%%%%%%%%%%%%%%%%%%%%%%%%%%%%%%%%%%%%%%%%%%%%%%%%%%%%%%%%%%%%%%
     %                                                                      %
     % You are using vdW-DF, which was implemented by the Thonhauser group. %
     % Please cite the following two papers that made this development      %
     % possible and the two reviews that describe the various versions:     %
     %                                                                      %
     %   T. Thonhauser et al., PRL 115, 136402 (2015).                      %
     %   T. Thonhauser et al., PRB 76, 125112 (2007).                       %
     %   K. Berland et al., Rep. Prog. Phys. 78, 066501 (2015).             %
     %   D.C. Langreth et al., J. Phys.: Condens. Matter 21, 084203 (2009). %
     %                                                                      %
     % If you are calculating stress with vdW-DF, please also cite:         %
     %                                                                      %
     %   R. Sabatini et al., J. Phys.: Condens. Matter 24, 424209 (2012).   %
     %                                                                      %
     %%%%%%%%%%%%%%%%%%%%%%%%%%%%%%%%%%%%%%%%%%%%%%%%%%%%%%%%%%%%%%%%%%%%%%%%

     %%%%%%%%%%%%%%%%%%%%%%%%%%%%%%%%%%%%%%%%%%%%%%%%%%%%%%%%%%%%%%%%%%%%%%%%
     %                                                                      %
     %  vdW-DF NEWS:                                                        %
     %                                                                      %
     %  * vdW-DF3 is now available. DOI: 10.1021/acs.jctc.0c00471           %
     %    use with input_dft = 'vdW-DF3-opt1' or 'vdW-DF3-opt2'             %
     %                                                                      %
     %  * Unscreened and range-separated vdW-DF hybrid functionals          %
     %    DOI: 10.1063/1.4986522 and 10.1088/1361-648X/ac2ad2               %
     %    use with input_dft = 'vdW-DF-cx0' (etc) and 'vdW-DF-ahcx'         %
     %                                                                      %
     %%%%%%%%%%%%%%%%%%%%%%%%%%%%%%%%%%%%%%%%%%%%%%%%%%%%%%%%%%%%%%%%%%%%%%%%


     Carrying out vdW-DF run using the following parameters:
     Nqs    =  20  Npoints =  1024  r_max =  100.000
     q_mesh =  0.00001000  0.04494208  0.09755937  0.15916263
               0.23128650  0.31572767  0.41458969  0.53033537
               0.66584808  0.82450364  1.01025438  1.22772762
               1.48234092  1.78043706  2.12944203  2.53805004
               3.01644009  3.57652955  4.23227104  5.00000000


     -----------------------------------------------
     Non-local corr. energy    =      52.69952233 Ry
     -----------------------------------------------

     Wavefunctions not found or not readable, recomputing them from scratch
     Starting wfcs are 1253 randomized atomic wfcs
     Checking if some PAW data can be deallocated... 
       PAW data deallocated on   95 nodes for type:  1
       PAW data deallocated on  161 nodes for type:  2

     total cpu time spent up to now is       30.3 secs

     Self-consistent Calculation

     iteration #  1     ecut=    70.00 Ry     beta= 0.70
     Davidson diagonalization with overlap

---- Real-time Memory Report at c_bands before calling an iterative solver
           578 MiB given to the printing process from OS
             0 MiB allocation reported by mallinfo(arena+hblkhd)
       1888443 MiB available memory on the node where the printing process lives
------------------
     ethr =  1.00E-05,  avg # of iterations = 28.0

     Threshold (ethr) on eigenvalues was too large:
     Diagonalizing with lowered threshold

     Davidson diagonalization with overlap

---- Real-time Memory Report at c_bands before calling an iterative solver
          1541 MiB given to the printing process from OS
             0 MiB allocation reported by mallinfo(arena+hblkhd)
       1890030 MiB available memory on the node where the printing process lives
------------------
     c_bands:  4 eigenvalues not converged
     ethr =  2.21E-08,  avg # of iterations = 55.0


     -----------------------------------------------
     Non-local corr. energy    =      52.69946703 Ry
     -----------------------------------------------


     total cpu time spent up to now is     1600.0 secs

     End of self-consistent calculation

          k = 0.0000 0.0000 0.0000 (154543 PWs)   bands (ev):

    -6.8972  -6.7353  -6.7353  -6.7084  -6.6508  -6.6415  -6.6414  -6.6092
    -6.6092  -6.5975  -6.5846  -6.5328  -6.4875  -6.4864  -6.4864  -6.4672
    -6.4621  -6.4621  -6.4231  -6.4230  -6.4090  -6.3927  -6.3927  -6.3719
    -6.3635  -6.3635  -6.3569  -6.3530  -6.3530  -6.3496  -6.3440  -6.3440
    -6.3426  -6.3311  -6.3311  -6.3280  -6.3129  -6.3077  -6.3077  -6.3059
    -6.3059  -6.3041  -6.2983  -6.2983  -6.2863  -6.2734  -6.2716  -6.2712
    -6.2712  -6.2667  -6.2619  -6.2619  -6.2576  -6.2576  -6.2570  -6.2510
    -6.2492  -6.2492  -6.2463  -6.2452  -6.2385  -6.2385  -6.2267  -6.2238
    -6.2238  -6.2201  -6.2192  -6.2192  -6.2165  -6.2070  -6.2016  -6.2013
    -6.2013  -6.1984  -6.1984  -6.1930  -6.1930  -6.1929  -6.1850  -6.1850
    -6.1808  -6.1690  -6.1690  -6.1689  -6.1677  -6.1677  -6.1606  -6.1605
    -6.1605  -6.1574  -6.1550  -6.1550  -6.1532  -6.1532  -6.1455  -6.1392
    -6.1392  -6.0851  -6.0173  -6.0173  -5.7355  -5.7143  -5.7143  -5.7136
    -5.6797  -5.6580  -5.6580  -5.5691  -5.5691  -5.4984  -5.4984  -5.4952
    -5.4756  -5.4756  -5.4725  -5.3641  -5.3640  -5.3165  -5.2898  -5.2898
    -5.2876  -5.2876  -5.2790  -5.2790  -5.2672  -5.2671  -5.2580  -5.2567
    -5.2493  -5.2493  -5.2417  -5.2371  -5.2349  -5.2322  -5.2322  -5.2238
    -5.2238  -5.2183  -5.2183  -5.2183  -5.2105  -5.2105  -5.2096  -5.1994
    -5.1994  -5.1974  -5.1955  -5.1955  -5.1931  -5.1931  -5.1882  -5.1873
    -5.1809  -5.1809  -5.1794  -5.1792  -5.1792  -5.1749  -5.1749  -5.1734
    -5.1707  -5.1707  -5.1627  -5.1623  -5.1623  -5.1480  -5.1468  -5.1468
    -5.1466  -5.1453  -5.1407  -5.1407  -5.1404  -5.1373  -5.1372  -5.1354
    -5.1322  -5.1308  -5.1308  -5.1287  -5.1287  -5.1237  -5.1234  -5.1234
    -5.1218  -5.1151  -5.1144  -5.1144  -5.1135  -5.1135  -5.1091  -5.1091
    -5.1088  -5.1067  -5.1023  -5.1023  -5.0977  -5.0977  -5.0968  -5.0965
    -5.0965  -5.0957  -5.0933  -5.0930  -5.0930  -5.0881  -5.0877  -5.0872
    -5.0872  -5.0866  -5.0866  -5.0832  -5.0832  -5.0815  -5.0792  -5.0792
    -5.0740  -5.0740  -5.0732  -5.0727  -5.0727  -5.0725  -5.0697  -5.0686
    -5.0686  -5.0646  -5.0629  -5.0629  -5.0614  -5.0614  -5.0613  -5.0601
    -5.0577  -5.0577  -5.0547  -5.0542  -5.0524  -5.0524  -5.0514  -5.0493
    -5.0493  -5.0463  -5.0457  -5.0457  -5.0449  -5.0449  -5.0425  -5.0424
    -5.0423  -5.0416  -5.0399  -5.0399  -5.0373  -5.0373  -5.0355  -5.0355
    -5.0347  -5.0324  -5.0324  -5.0297  -5.0289  -5.0271  -5.0271  -5.0268
    -5.0268  -5.0254  -5.0254  -5.0233  -5.0233  -5.0233  -5.0232  -5.0191
    -5.0191  -5.0152  -5.0150  -5.0150  -5.0145  -5.0144  -5.0144  -5.0119
    -5.0111  -5.0111  -5.0102  -5.0072  -5.0072  -5.0039  -5.0039  -5.0031
    -5.0017  -5.0017  -5.0004  -5.0000  -4.9974  -4.9973  -4.9973  -4.9955
    -4.9955  -4.9953  -4.9949  -4.9932  -4.9932  -4.9918  -4.9918  -4.9913
    -4.9892  -4.9892  -4.9867  -4.9826  -4.9826  -4.9824  -4.9807  -4.9798
    -4.9790  -4.9790  -4.9786  -4.9769  -4.9750  -4.9750  -4.9740  -4.9740
    -4.9739  -4.9728  -4.9707  -4.9707  -4.9673  -4.9673  -4.9645  -4.9644
    -4.9643  -4.9622  -4.9621  -4.9618  -4.9618  -4.9593  -4.9593  -4.9577
    -4.9577  -4.9573  -4.9555  -4.9555  -4.9537  -4.9537  -4.9528  -4.9524
    -4.9524  -4.9515  -4.9495  -4.9491  -4.9491  -4.9487  -4.9455  -4.9455
    -4.9437  -4.9437  -4.9427  -4.9407  -4.9407  -4.9407  -4.9378  -4.9370
    -4.9370  -4.9361  -4.9361  -4.9320  -4.9313  -4.9313  -4.9309  -4.9295
    -4.9280  -4.9258  -4.9258  -4.9258  -4.9244  -4.9244  -4.9203  -4.9203
    -4.9196  -4.9196  -4.9187  -4.9187  -4.9158  -4.9158  -4.9132  -4.9121
    -4.9117  -4.9113  -4.9113  -4.9098  -4.9098  -4.9080  -4.9080  -4.9062
    -4.9062  -4.9042  -4.9022  -4.9022  -4.9016  -4.9009  -4.9009  -4.9007
    -4.8999  -4.8991  -4.8991  -4.8975  -4.8947  -4.8947  -4.8913  -4.8913
    -4.8905  -4.8904  -4.8902  -4.8885  -4.8885  -4.8862  -4.8862  -4.8828
    -4.8822  -4.8788  -4.8788  -4.8779  -4.8775  -4.8775  -4.8713  -4.8713
    -4.8703  -4.8702  -4.8702  -4.8676  -4.8668  -4.8668  -4.8660  -4.8639
    -4.8639  -4.8607  -4.8575  -4.8575  -4.8560  -4.8560  -4.8554  -4.8554
    -4.8520  -4.8518  -4.8518  -4.8509  -4.8464  -4.8452  -4.8452  -4.8445
    -4.8414  -4.8414  -4.8373  -4.8373  -4.8348  -4.8348  -4.8342  -4.8302
    -4.8275  -4.8256  -4.8255  -4.8255  -4.8246  -4.8246  -4.8220  -4.8220
    -4.8208  -4.8168  -4.8168  -4.8105  -4.8105  -4.8083  -4.8083  -4.8074
    -4.8031  -4.8031  -4.8020  -4.8004  -4.8004  -4.7997  -4.7996  -4.7922
    -4.7907  -4.7907  -4.7903  -4.7860  -4.7860  -4.7832  -4.7832  -4.7702
    -4.7702  -4.7701  -4.7488  -4.7487  -4.7258  -4.7060  -4.5225  -4.5171
    -4.5171  -4.5055  -4.5055  -4.4774  -4.4774  -4.4680  -4.4680  -4.4532
    -4.4509  -4.4022  -4.2202  -4.1785  -3.8172  -3.7996  -3.7996  -3.7732
    -3.7522  -3.7522  -3.7099  -3.7099  -3.6933  -3.6933  -3.6799  -3.6799
    -3.6653  -3.6564  -3.6555  -3.6555  -3.6329  -3.5957  -3.5693  -3.5693
    -3.5479  -3.5478  -3.5246  -3.5156  -3.4928  -3.4817  -3.4739  -3.4739
    -3.4598  -3.4598  -3.4559  -3.4559  -3.4126  -3.3878  -3.3828  -3.3828
    -3.3695  -3.3695  -3.3679  -3.2463  -3.1913  -3.1913  -3.0852  -3.0825
    -3.0825  -3.0795  -3.0752  -3.0662  -3.0662  -3.0346  -3.0346  -3.0290
    -3.0153  -3.0153  -3.0144  -3.0003  -3.0003  -2.9971  -2.9971  -2.9903
    -2.9885  -2.9773  -2.9773  -2.8940  -2.8856  -2.8856  -2.7223  -2.7202
    -2.7103  -2.7103  -2.6912  -2.6912   1.4110   2.1103   2.2435   2.3657
     2.3658   2.3712   2.3957   2.3958   2.6398   2.6524   2.6524   2.7421
     2.7421   2.7895   2.8622   2.8622   2.8658   2.9002   2.9021   2.9021
     2.9043   2.9339   2.9395   2.9396   2.9432   2.9432   2.9588   2.9696
     2.9696   3.0042   3.0042   3.0094   3.0395   3.0396   3.0828   3.2597
     3.2741   3.2741   3.2940   3.3143   3.3143   3.3676   3.3677   3.3995
     3.4030   3.4156   3.4307   3.4308   3.4532   3.4549   3.4549   3.4683
     3.4683   3.6448   3.6448   3.6449   3.6744   3.6794   3.6795   3.7001
     3.7001   3.7113   3.7113   3.7128   3.7269   3.7304   3.7305   3.7344
     3.7391   3.8671   3.9088   3.9089   3.9257   3.9670   3.9670   4.2962
     4.8207   4.8207   4.8900   4.8933   4.8933   4.9415   4.9493   4.9493
     4.9653   4.9886   4.9964   4.9964   5.0103   5.0103   5.0237   5.0340
     5.0341   5.0383   5.0419   5.0447   5.0448   5.0658   5.0754   5.0754
     5.0868   5.0868   5.0930   5.1030   5.1030   5.1472   5.1473   5.1879
     5.2022   5.2022   5.2500   5.2582   5.2787   5.2787   5.2827   5.2880
     5.2880   5.3194   5.3900   5.3900   5.5489   5.8945   5.8945   5.9472
     5.9485   5.9485   5.9981   6.0008   6.0008   6.0262   6.0262   6.0448
     6.0448   6.0448   6.0552   6.0553   6.0706   6.0787   6.1339   6.1339
     6.1367   6.1550   6.1550   6.1720   6.1763   6.1871   6.1871   6.1915
     6.2001   6.2002   6.2215   6.2233   6.2233   6.2302   6.2302   6.2719
     6.2959   6.3510   6.3640   6.3640   6.3739   6.4594   6.4594   6.4962
     6.4962   6.4992   6.4994   6.5198   6.5215   6.5215   6.5404   6.5404
     6.6162   6.6162   6.6222   6.6319   6.6494   6.6774   6.6775   6.7999
     6.8000   6.8292   6.8620   6.8621   6.8661   6.8953   6.9042   6.9138
     6.9138   6.9612   6.9613   6.9760   7.0019   7.0108   7.0267   7.0267
     7.0607   7.0607   7.0962   7.0963   7.1889   7.2178   7.2551   7.2565
     7.2565   7.2961   7.2962   7.3164   7.3165   7.3267   7.3377   7.3490
     7.3532   7.3533   7.3538   7.3539   7.3853   7.3854   7.4219   7.4325
     7.4473   7.4474   7.4489   7.5300   7.5300   7.5365   7.5599   7.5601
     7.5601   7.5659   7.5748   7.5748   7.5805   7.5806   7.6076   7.6076
     7.6253   7.6767   7.6767   7.7019   7.7115   7.7115   7.7228   7.7228
     7.7454   7.7489   7.7529   7.7529   7.8362   7.8363   7.8785   7.9150
     7.9207   7.9207   7.9650   7.9747   7.9747   7.9817   7.9817   7.9990
     8.0207   8.0207   8.0347   8.0649   8.0840   8.0841   8.1050   8.1051
     8.1817   8.1817   8.2070   8.2070   8.2289   8.3259   8.3259   8.3533
     8.3999   8.3999   8.4181   8.5210   8.5210   8.6151   8.6151   8.7745
     8.8679   8.8680   9.8151  10.0857  10.0858  10.4126  12.0806  12.1352
    12.5987  12.6723  12.6855  12.6856  12.7874  12.7874  12.7963  12.8279
    12.8771  12.8771  12.8984  12.9360  12.9538  12.9538  13.0658  13.1235
    13.1235  13.1866  13.1867  13.2016  13.2356  13.2357  13.2478  13.2547
    13.2547  13.2654  13.3997  13.7276  13.7276  13.7874  13.7875  13.8008
    13.8570  13.9317  13.9644  13.9644  14.0386  14.0387  14.0525  14.1372
    14.1373  14.3087  14.3363  14.3619  14.3626  14.3626  14.3867  14.3867
    14.4304  14.4465  14.4465  14.4521  14.4521  14.4702  14.4863  14.4865
    14.4865  14.5090  14.5131  14.5131  14.5293  14.5376  14.5376  14.5544
    14.5544  14.5845  14.5846  14.5905  14.7339  14.7339  14.7899  14.7953
    14.7953  14.8096  14.8983  14.9211  14.9232  14.9232  14.9243  14.9649
    14.9649  14.9892  14.9892  14.9933  15.0015  15.0015  15.0150  15.0150
    15.0366  15.0754  15.0755  15.0800  15.1653  15.1653  15.2122  15.5205
    15.7821  15.8084  15.8084  15.8755  15.9531  15.9531  15.9821  15.9821
    16.0271  16.0271  16.0298  16.0692  16.1301  16.1301  16.1356  16.1669
    16.1678  16.1679  16.1745  16.1804  16.1804  16.2051  16.2051  16.2234
    16.2374  16.2633  16.2633  16.2851  16.2983  16.2983  16.4044  16.4044
    16.4143  16.4389  16.4389  16.4585  16.4585  16.4645  16.4811  16.4901
    16.5130  16.5130  16.5148  16.5405  16.5408  16.5409  16.5694  16.5694
    16.5893  16.5894  16.5981  16.6155  16.6243  16.6263  16.6263  16.6478
    16.6479  16.6589  16.6589  16.6652  16.6693  16.6752  16.6752  16.6941
    16.6979  16.6979  16.7079  16.7080  16.7084  16.7142  16.7225  16.7233

     occupation numbers 
     1.0000   1.0000   1.0000   1.0000   1.0000   1.0000   1.0000   1.0000
     1.0000   1.0000   1.0000   1.0000   1.0000   1.0000   1.0000   1.0000
     1.0000   1.0000   1.0000   1.0000   1.0000   1.0000   1.0000   1.0000
     1.0000   1.0000   1.0000   1.0000   1.0000   1.0000   1.0000   1.0000
     1.0000   1.0000   1.0000   1.0000   1.0000   1.0000   1.0000   1.0000
     1.0000   1.0000   1.0000   1.0000   1.0000   1.0000   1.0000   1.0000
     1.0000   1.0000   1.0000   1.0000   1.0000   1.0000   1.0000   1.0000
     1.0000   1.0000   1.0000   1.0000   1.0000   1.0000   1.0000   1.0000
     1.0000   1.0000   1.0000   1.0000   1.0000   1.0000   1.0000   1.0000
     1.0000   1.0000   1.0000   1.0000   1.0000   1.0000   1.0000   1.0000
     1.0000   1.0000   1.0000   1.0000   1.0000   1.0000   1.0000   1.0000
     1.0000   1.0000   1.0000   1.0000   1.0000   1.0000   1.0000   1.0000
     1.0000   1.0000   1.0000   1.0000   1.0000   1.0000   1.0000   1.0000
     1.0000   1.0000   1.0000   1.0000   1.0000   1.0000   1.0000   1.0000
     1.0000   1.0000   1.0000   1.0000   1.0000   1.0000   1.0000   1.0000
     1.0000   1.0000   1.0000   1.0000   1.0000   1.0000   1.0000   1.0000
     1.0000   1.0000   1.0000   1.0000   1.0000   1.0000   1.0000   1.0000
     1.0000   1.0000   1.0000   1.0000   1.0000   1.0000   1.0000   1.0000
     1.0000   1.0000   1.0000   1.0000   1.0000   1.0000   1.0000   1.0000
     1.0000   1.0000   1.0000   1.0000   1.0000   1.0000   1.0000   1.0000
     1.0000   1.0000   1.0000   1.0000   1.0000   1.0000   1.0000   1.0000
     1.0000   1.0000   1.0000   1.0000   1.0000   1.0000   1.0000   1.0000
     1.0000   1.0000   1.0000   1.0000   1.0000   1.0000   1.0000   1.0000
     1.0000   1.0000   1.0000   1.0000   1.0000   1.0000   1.0000   1.0000
     1.0000   1.0000   1.0000   1.0000   1.0000   1.0000   1.0000   1.0000
     1.0000   1.0000   1.0000   1.0000   1.0000   1.0000   1.0000   1.0000
     1.0000   1.0000   1.0000   1.0000   1.0000   1.0000   1.0000   1.0000
     1.0000   1.0000   1.0000   1.0000   1.0000   1.0000   1.0000   1.0000
     1.0000   1.0000   1.0000   1.0000   1.0000   1.0000   1.0000   1.0000
     1.0000   1.0000   1.0000   1.0000   1.0000   1.0000   1.0000   1.0000
     1.0000   1.0000   1.0000   1.0000   1.0000   1.0000   1.0000   1.0000
     1.0000   1.0000   1.0000   1.0000   1.0000   1.0000   1.0000   1.0000
     1.0000   1.0000   1.0000   1.0000   1.0000   1.0000   1.0000   1.0000
     1.0000   1.0000   1.0000   1.0000   1.0000   1.0000   1.0000   1.0000
     1.0000   1.0000   1.0000   1.0000   1.0000   1.0000   1.0000   1.0000
     1.0000   1.0000   1.0000   1.0000   1.0000   1.0000   1.0000   1.0000
     1.0000   1.0000   1.0000   1.0000   1.0000   1.0000   1.0000   1.0000
     1.0000   1.0000   1.0000   1.0000   1.0000   1.0000   1.0000   1.0000
     1.0000   1.0000   1.0000   1.0000   1.0000   1.0000   1.0000   1.0000
     1.0000   1.0000   1.0000   1.0000   1.0000   1.0000   1.0000   1.0000
     1.0000   1.0000   1.0000   1.0000   1.0000   1.0000   1.0000   1.0000
     1.0000   1.0000   1.0000   1.0000   1.0000   1.0000   1.0000   1.0000
     1.0000   1.0000   1.0000   1.0000   1.0000   1.0000   1.0000   1.0000
     1.0000   1.0000   1.0000   1.0000   1.0000   1.0000   1.0000   1.0000
     1.0000   1.0000   1.0000   1.0000   1.0000   1.0000   1.0000   1.0000
     1.0000   1.0000   1.0000   1.0000   1.0000   1.0000   1.0000   1.0000
     1.0000   1.0000   1.0000   1.0000   1.0000   1.0000   1.0000   1.0000
     1.0000   1.0000   1.0000   1.0000   1.0000   1.0000   1.0000   1.0000
     1.0000   1.0000   1.0000   1.0000   1.0000   1.0000   1.0000   1.0000
     1.0000   1.0000   1.0000   1.0000   1.0000   1.0000   1.0000   1.0000
     1.0000   1.0000   1.0000   1.0000   1.0000   1.0000   1.0000   1.0000
     1.0000   1.0000   1.0000   1.0000   1.0000   1.0000   1.0000   1.0000
     1.0000   1.0000   1.0000   1.0000   1.0000   1.0000   1.0000   1.0000
     1.0000   1.0000   1.0000   1.0000   1.0000   1.0000   1.0000   1.0000
     1.0000   1.0000   1.0000   1.0000   1.0000   1.0000   1.0000   1.0000
     1.0000   1.0000   1.0000   1.0000   1.0000   1.0000   1.0000   1.0000
     1.0000   1.0000   1.0000   1.0000   1.0000   1.0000   1.0000   1.0000
     1.0000   1.0000   1.0000   1.0000   1.0000   1.0000   1.0000   1.0000
     1.0000   1.0000   1.0000   1.0000   1.0000   1.0000   1.0000   1.0000
     1.0000   1.0000   1.0000   1.0000   1.0000   1.0000   1.0000   1.0000
     1.0000   1.0000   1.0000   1.0000   1.0000   1.0000   1.0000   1.0000
     1.0000   1.0000   1.0000   1.0000   1.0000   1.0000   1.0000   1.0000
     1.0000   1.0000   1.0000   1.0000   1.0000   1.0000   1.0000   1.0000
     1.0000   1.0000   1.0000   1.0000   1.0000   1.0000   1.0000   1.0000
     1.0000   1.0000   1.0000   1.0000   1.0000   1.0000   1.0000   1.0000
     1.0000   1.0000   1.0000   1.0000   1.0000   1.0000   1.0000   1.0000
     1.0000   1.0000   1.0000   1.0000   1.0000   1.0000   1.0000   1.0000
     1.0000   1.0000   1.0000   1.0000   1.0000   1.0000   1.0000   1.0000
     1.0000   1.0000   1.0000   1.0000   1.0000   1.0000   1.0000   1.0000
     1.0000   1.0000   1.0000   1.0000   1.0000   1.0000   1.0000   1.0000
     1.0000   1.0000   1.0000   1.0000   1.0000   1.0000   1.0000   1.0000
     1.0000   1.0000   1.0000   1.0000   1.0000   1.0000   1.0000   1.0000
     1.0000   1.0000   1.0000   1.0000   1.0000   1.0000   1.0000   1.0000
     1.0000   1.0000   1.0000   1.0000   1.0000   1.0000   1.0000   1.0000
     1.0000   1.0000   1.0000   1.0000   1.0000   1.0000   1.0000   1.0000
     1.0000   1.0000   1.0000   1.0000   1.0000   1.0000   1.0000   1.0000
     1.0000   1.0000   1.0000   1.0000   1.0000   1.0000   1.0000   1.0000
     1.0000   1.0000   1.0000   1.0000   1.0000   1.0000   1.0000   1.0000
     1.0000   1.0000   1.0000   1.0000   1.0000   1.0000   1.0000   1.0000
     1.0000   1.0000   1.0000   1.0000   1.0000   1.0000   1.0000   1.0000
     1.0000   1.0000   1.0000   1.0000   1.0000   1.0000   1.0000   1.0000
     1.0000   1.0000   1.0000   1.0000   1.0000   1.0000   1.0000   1.0000
     1.0000   1.0000   1.0000   1.0000   1.0000   1.0000   1.0000   1.0000
     1.0000   1.0000   1.0000   1.0000   1.0000   1.0000   1.0000   1.0000
     1.0000   1.0000   1.0000   1.0000   1.0000   1.0000   1.0000   1.0000
     1.0000   1.0000   1.0000   1.0000   1.0000   1.0000   1.0000   1.0000
     1.0000   1.0000   1.0000   1.0000   1.0000   1.0000   1.0000   1.0000
     1.0000   1.0000   1.0000   1.0000   1.0000   1.0000   1.0000   1.0000
     1.0000   1.0000   1.0000   1.0000   1.0000   1.0000   1.0000   1.0000
     1.0000   1.0000   1.0000   1.0000   1.0000   1.0000   1.0000   1.0000
     1.0000   1.0000   1.0000   1.0000   1.0000   1.0000   1.0000   1.0000
     1.0000   1.0000   1.0000   1.0000   1.0000   1.0000   1.0000   1.0000
     1.0000   1.0000   1.0000   1.0000   1.0000   1.0000   1.0000   1.0000
     1.0000   1.0000   1.0000   1.0000   1.0000   1.0000   1.0000   1.0000
     1.0000   1.0000   1.0000   1.0000   1.0000   1.0000   1.0000   1.0000
     1.0000   1.0000   1.0000   1.0000   1.0000   1.0000   1.0000   1.0000
     1.0000   1.0000   1.0000   1.0000   1.0000   1.0000   1.0000   1.0000
     1.0000   1.0000   1.0000   1.0000   1.0000   1.0000   1.0000   1.0000
     1.0000   1.0000   1.0000   1.0000   1.0000   1.0000   1.0000   1.0000
     1.0000   1.0000   1.0000   1.0000   1.0000   1.0000   1.0000   1.0000
     1.0000   1.0000   1.0000   1.0000   1.0000   1.0000   1.0000   1.0000
     1.0000   1.0000   1.0000   1.0000   1.0000   1.0000   1.0000   1.0000
     1.0000   1.0000   1.0000   1.0000   1.0000   1.0000   1.0000   1.0000
     1.0000   1.0000   1.0000   1.0000   1.0000   1.0000   1.0000   1.0000
     1.0000   1.0000   1.0000   1.0000   1.0000   1.0000   1.0000   1.0000
     1.0000   1.0000   1.0000   1.0000   1.0000   1.0000   1.0000   1.0000
     1.0000   1.0000   1.0000   1.0000   1.0000   1.0000   1.0000   1.0000
     1.0000   1.0000   1.0000   1.0000   1.0000   1.0000   1.0000   1.0000
     1.0000   1.0000   0.5843   0.0047   0.0046   0.0000   0.0000   0.0000
     0.0000   0.0000   0.0000   0.0000   0.0000   0.0000   0.0000   0.0000
     0.0000   0.0000   0.0000   0.0000   0.0000   0.0000   0.0000   0.0000
     0.0000   0.0000   0.0000   0.0000   0.0000   0.0000   0.0000   0.0000
     0.0000   0.0000   0.0000   0.0000   0.0000   0.0000   0.0000   0.0000
     0.0000   0.0000   0.0000   0.0000   0.0000   0.0000   0.0000   0.0000
     0.0000   0.0000   0.0000   0.0000   0.0000   0.0000   0.0000   0.0000
     0.0000   0.0000   0.0000   0.0000   0.0000   0.0000   0.0000   0.0000
     0.0000   0.0000   0.0000   0.0000   0.0000   0.0000   0.0000   0.0000
     0.0000   0.0000   0.0000   0.0000   0.0000   0.0000   0.0000   0.0000
     0.0000   0.0000   0.0000   0.0000   0.0000   0.0000   0.0000   0.0000
     0.0000   0.0000   0.0000   0.0000   0.0000   0.0000   0.0000   0.0000
     0.0000   0.0000   0.0000   0.0000   0.0000   0.0000   0.0000   0.0000
     0.0000   0.0000   0.0000   0.0000   0.0000   0.0000   0.0000   0.0000
     0.0000   0.0000   0.0000   0.0000   0.0000   0.0000   0.0000   0.0000
     0.0000   0.0000   0.0000   0.0000   0.0000   0.0000   0.0000   0.0000
     0.0000   0.0000   0.0000   0.0000   0.0000   0.0000   0.0000   0.0000
     0.0000   0.0000   0.0000   0.0000   0.0000   0.0000   0.0000   0.0000
     0.0000   0.0000   0.0000   0.0000   0.0000   0.0000   0.0000   0.0000
     0.0000   0.0000   0.0000   0.0000   0.0000   0.0000   0.0000   0.0000
     0.0000   0.0000   0.0000   0.0000   0.0000   0.0000   0.0000   0.0000
     0.0000   0.0000   0.0000   0.0000   0.0000   0.0000   0.0000   0.0000

          k = 0.0000 0.0000-0.4090 (154532 PWs)   bands (ev):

    -6.8853  -6.7408  -6.7343  -6.7343  -6.6451  -6.6410  -6.6410  -6.6099
    -6.6099  -6.5889  -6.5846  -6.5463  -6.4823  -6.4823  -6.4622  -6.4622
    -6.4588  -6.4484  -6.4233  -6.4233  -6.4162  -6.3968  -6.3968  -6.3878
    -6.3769  -6.3769  -6.3765  -6.3665  -6.3665  -6.3536  -6.3388  -6.3338
    -6.3338  -6.3283  -6.3171  -6.3171  -6.3144  -6.3144  -6.3032  -6.2988
    -6.2988  -6.2952  -6.2896  -6.2894  -6.2893  -6.2738  -6.2737  -6.2732
    -6.2712  -6.2653  -6.2633  -6.2632  -6.2612  -6.2577  -6.2577  -6.2520
    -6.2520  -6.2484  -6.2428  -6.2420  -6.2409  -6.2409  -6.2298  -6.2249
    -6.2249  -6.2205  -6.2202  -6.2163  -6.2163  -6.2090  -6.2007  -6.2007
    -6.2002  -6.2002  -6.2000  -6.1927  -6.1924  -6.1924  -6.1850  -6.1850
    -6.1810  -6.1688  -6.1688  -6.1687  -6.1673  -6.1673  -6.1610  -6.1610
    -6.1606  -6.1571  -6.1545  -6.1545  -6.1534  -6.1534  -6.1455  -6.1392
    -6.1392  -6.0846  -6.0173  -6.0173  -5.7357  -5.7143  -5.7143  -5.7136
    -5.6797  -5.6580  -5.6580  -5.5691  -5.5691  -5.4984  -5.4984  -5.4952
    -5.4756  -5.4756  -5.4726  -5.3641  -5.3641  -5.3165  -5.2898  -5.2898
    -5.2876  -5.2876  -5.2790  -5.2790  -5.2671  -5.2671  -5.2580  -5.2567
    -5.2493  -5.2492  -5.2413  -5.2371  -5.2349  -5.2321  -5.2321  -5.2240
    -5.2240  -5.2181  -5.2181  -5.2180  -5.2104  -5.2104  -5.2087  -5.1994
    -5.1994  -5.1973  -5.1957  -5.1957  -5.1931  -5.1931  -5.1881  -5.1860
    -5.1809  -5.1809  -5.1796  -5.1792  -5.1792  -5.1751  -5.1751  -5.1733
    -5.1705  -5.1705  -5.1627  -5.1623  -5.1623  -5.1490  -5.1470  -5.1468
    -5.1468  -5.1454  -5.1409  -5.1409  -5.1401  -5.1382  -5.1382  -5.1364
    -5.1328  -5.1326  -5.1326  -5.1283  -5.1283  -5.1249  -5.1239  -5.1239
    -5.1215  -5.1139  -5.1138  -5.1138  -5.1124  -5.1124  -5.1103  -5.1087
    -5.1087  -5.1063  -5.1025  -5.1025  -5.1011  -5.0992  -5.0992  -5.0973
    -5.0953  -5.0953  -5.0952  -5.0911  -5.0911  -5.0885  -5.0877  -5.0877
    -5.0866  -5.0866  -5.0864  -5.0836  -5.0836  -5.0788  -5.0783  -5.0783
    -5.0762  -5.0746  -5.0746  -5.0738  -5.0715  -5.0713  -5.0713  -5.0691
    -5.0691  -5.0674  -5.0647  -5.0647  -5.0617  -5.0616  -5.0598  -5.0598
    -5.0587  -5.0582  -5.0582  -5.0559  -5.0533  -5.0522  -5.0522  -5.0506
    -5.0491  -5.0491  -5.0466  -5.0466  -5.0461  -5.0453  -5.0453  -5.0437
    -5.0433  -5.0432  -5.0414  -5.0395  -5.0395  -5.0390  -5.0390  -5.0368
    -5.0341  -5.0340  -5.0330  -5.0330  -5.0285  -5.0285  -5.0285  -5.0259
    -5.0259  -5.0245  -5.0242  -5.0242  -5.0210  -5.0210  -5.0197  -5.0183
    -5.0183  -5.0181  -5.0157  -5.0157  -5.0124  -5.0121  -5.0121  -5.0119
    -5.0110  -5.0088  -5.0088  -5.0058  -5.0057  -5.0057  -5.0046  -5.0040
    -5.0040  -5.0036  -5.0024  -5.0024  -4.9988  -4.9984  -4.9976  -4.9976
    -4.9966  -4.9966  -4.9966  -4.9953  -4.9939  -4.9939  -4.9939  -4.9898
    -4.9898  -4.9867  -4.9867  -4.9838  -4.9838  -4.9824  -4.9811  -4.9803
    -4.9794  -4.9794  -4.9778  -4.9775  -4.9775  -4.9769  -4.9740  -4.9740
    -4.9721  -4.9716  -4.9716  -4.9688  -4.9688  -4.9664  -4.9648  -4.9648
    -4.9643  -4.9643  -4.9629  -4.9627  -4.9619  -4.9619  -4.9605  -4.9605
    -4.9579  -4.9578  -4.9563  -4.9563  -4.9546  -4.9545  -4.9545  -4.9539
    -4.9538  -4.9507  -4.9502  -4.9502  -4.9496  -4.9450  -4.9450  -4.9445
    -4.9427  -4.9427  -4.9415  -4.9397  -4.9397  -4.9377  -4.9371  -4.9371
    -4.9364  -4.9364  -4.9319  -4.9312  -4.9300  -4.9290  -4.9290  -4.9282
    -4.9243  -4.9240  -4.9240  -4.9229  -4.9229  -4.9204  -4.9204  -4.9198
    -4.9190  -4.9190  -4.9174  -4.9174  -4.9170  -4.9125  -4.9114  -4.9107
    -4.9107  -4.9080  -4.9073  -4.9073  -4.9070  -4.9070  -4.9047  -4.9047
    -4.9029  -4.9029  -4.9020  -4.9020  -4.9009  -4.9009  -4.9005  -4.9002
    -4.8996  -4.8991  -4.8991  -4.8959  -4.8958  -4.8914  -4.8903  -4.8903
    -4.8903  -4.8886  -4.8886  -4.8858  -4.8853  -4.8853  -4.8819  -4.8817
    -4.8785  -4.8785  -4.8775  -4.8772  -4.8772  -4.8715  -4.8715  -4.8702
    -4.8695  -4.8695  -4.8671  -4.8668  -4.8663  -4.8663  -4.8640  -4.8640
    -4.8606  -4.8577  -4.8577  -4.8558  -4.8558  -4.8557  -4.8557  -4.8522
    -4.8520  -4.8520  -4.8515  -4.8462  -4.8455  -4.8455  -4.8450  -4.8416
    -4.8416  -4.8372  -4.8372  -4.8348  -4.8348  -4.8344  -4.8304  -4.8278
    -4.8256  -4.8256  -4.8255  -4.8248  -4.8248  -4.8219  -4.8219  -4.8211
    -4.8168  -4.8168  -4.8105  -4.8105  -4.8084  -4.8084  -4.8074  -4.8030
    -4.8030  -4.8020  -4.8003  -4.8003  -4.7997  -4.7997  -4.7922  -4.7904
    -4.7899  -4.7899  -4.7860  -4.7860  -4.7703  -4.7703  -4.7701  -4.7700
    -4.7700  -4.7280  -4.7280  -4.7146  -4.7014  -4.6892  -4.6507  -4.6468
    -4.6468  -4.6211  -4.6211  -4.6176  -4.6098  -4.1947  -4.1946  -4.1815
    -4.1815  -4.1620  -4.1494  -4.1494  -4.1231  -4.1231  -4.1128  -4.1061
    -4.0973  -3.8142  -3.7660  -3.7565  -3.7565  -3.6771  -3.6771  -3.6108
    -3.6108  -3.5985  -3.5887  -3.5860  -3.5778  -3.5729  -3.5729  -3.5560
    -3.5560  -3.4868  -3.4417  -3.4417  -3.4314  -3.4101  -3.4101  -3.3448
    -3.3285  -3.3285  -3.3284  -3.3062  -3.3062  -3.2712  -3.2712  -3.2594
    -3.2516  -3.2516  -3.2477  -3.2449  -3.2449  -3.2372  -3.2317  -3.2273
    -3.2273  -3.2194  -3.2142  -3.2142  -3.1659  -3.1659  -3.1650  -3.1556
    -3.1556  -3.1470  -3.0557  -3.0246  -3.0246  -2.9051  -2.9000  -2.9000
    -2.8947  -2.8841  -2.8679  -2.8679  -2.8366  -2.8366  -2.7501  -2.7474
    -2.7432  -2.7432  -2.7299  -2.7299   1.4023   2.2445   2.4227   2.4613
     2.4613   2.4718   2.4718   2.5426   2.5561   2.5561   2.5662   2.5822
     2.5899   2.5899   2.6655   2.8377   2.8377   2.9600   2.9780   2.9970
     3.0017   3.0017   3.0057   3.0593   3.0593   3.0843   3.0843   3.0866
     3.0866   3.1001   3.1070   3.1070   3.1117   3.1372   3.1422   3.1423
     3.1569   3.1569   3.1733   3.1733   3.1739   3.1759   3.1791   3.1791
     3.1954   3.1979   3.1979   3.2058   3.2059   3.2517   3.2907   3.4052
     3.4053   3.4728   3.4983   3.4984   3.5099   3.6832   3.6832   3.7201
     3.8052   3.8053   3.8269   3.8281   3.8281   3.8331   3.8360   3.8360
     3.8905   4.3081   4.3082   4.3189   4.3377   4.3378   4.3678   4.3695
     4.3695   4.3714   4.3714   4.3979   4.7375   4.9620   4.9838   4.9926
     4.9926   5.0336   5.0336   5.0376   5.0640   5.0640   5.0889   5.1033
     5.1050   5.1050   5.1080   5.1080   5.1187   5.1777   5.2031   5.2031
     5.2384   5.2515   5.2515   5.2555   5.2621   5.2621   5.2672   5.2672
     5.3102   5.3454   5.3455   5.3653   5.3825   5.4405   5.4444   5.4444
     5.4766   5.4766   5.5462   5.5623   5.5623   5.5842   5.5869   5.5869
     5.6441   5.6442   5.6504   5.6762   5.6762   5.6776   5.6981   5.7044
     5.7044   5.7077   5.7204   5.7205   5.7275   5.7276   5.7416   5.7612
     5.8389   5.8390   5.8439   5.8440   5.8459   5.8674   5.9144   5.9145
     6.3230   6.3420   6.3420   6.3578   6.3998   6.3998   6.4011   6.5929
     6.5929   6.6290   6.6686   6.6686   6.7094   6.7285   6.7286   6.7744
     6.7762   6.7762   6.7825   6.8038   6.8038   6.8267   6.8461   6.8462
     6.8550   6.8746   6.8746   6.9029   6.9029   6.9056   6.9241   6.9415
     6.9552   6.9552   6.9738   6.9739   6.9904   7.0011   7.0012   7.0018
     7.0063   7.0188   7.0189   7.0210   7.0210   7.0495   7.0692   7.0923
     7.0923   7.1001   7.1160   7.1166   7.1166   7.1230   7.1264   7.1265
     7.1404   7.1552   7.1552   7.1736   7.1737   7.1827   7.2149   7.2149
     7.2199   7.2414   7.2528   7.2528   7.2751   7.2751   7.3279   7.3280
     7.3333   7.3456   7.3463   7.3463   7.3610   7.3610   7.3878   7.3905
     7.3905   7.3982   7.3982   7.4201   7.5358   7.5977   7.6057   7.6057
     7.6252   7.6253   7.6537   7.6542   7.6542   7.6727   7.6766   7.6813
     7.6813   7.7204   7.7888   7.7889   7.8295   7.8296   7.8298   7.9699
     7.9700   8.0043   8.0202   8.0202   8.0344   8.0495   8.0496   8.0901
     8.0901   8.1355   8.1424   8.1455   8.1723   8.1723   8.1850   8.1850
     8.1968   8.2260   8.2260   8.2494   8.3046   8.3113   8.3114   8.3206
     8.3207   8.3438   8.3438   8.3552   8.3567   8.3567   8.6920   8.6921
     8.8522   8.8523   9.7620  10.0825  10.0826  11.0891  11.1991  12.5970
    12.6612  12.6612  12.6684  12.7239  12.8001  12.8001  12.8149  12.8425
    12.8732  12.8834  12.9337  12.9337  12.9532  12.9619  12.9619  13.1127
    13.1127  13.1143  13.1977  13.1977  13.3377  13.4271  13.4272  13.4422
    13.4759  13.4760  13.5109  13.6797  13.6798  13.7805  13.8200  13.8200
    13.8677  13.8812  13.8812  13.8951  13.8952  13.9255  13.9280  13.9280
    13.9837  14.0082  14.0127  14.0128  14.1793  14.2367  14.2368  14.3651
    14.4098  14.4661  14.4661  14.4835  14.5028  14.5028  14.5115  14.5317
    14.5317  14.5516  14.5696  14.5697  14.5926  14.5926  14.5972  14.6080
    14.6081  14.6435  14.6436  14.6492  14.6732  14.7444  14.7732  14.7732
    14.7768  14.7768  14.8595  14.8662  14.8662  14.8983  14.8983  14.9076
    14.9094  14.9094  14.9380  14.9417  14.9417  14.9851  15.0395  15.0395
    15.0634  15.0986  15.0986  15.1030  15.3708  15.6666  15.6769  15.6769
    15.7902  15.7902  15.8336  15.8557  15.8557  15.9003  15.9690  16.0321
    16.0399  16.0399  16.1045  16.1045  16.1464  16.1464  16.1657  16.2172
    16.2326  16.2326  16.2404  16.2507  16.2507  16.2572  16.2572  16.2693
    16.2870  16.2870  16.2937  16.2964  16.2964  16.3087  16.3140  16.3141
    16.3273  16.3481  16.3481  16.3571  16.3691  16.3691  16.3907  16.4197
    16.4197  16.4217  16.4250  16.4250  16.4549  16.4704  16.4704  16.4841
    16.5459  16.5556  16.5556  16.5695  16.6177  16.6223  16.6224  16.6326
    16.6405  16.6405  16.6418  16.6418  16.6853  16.6900  16.6900  16.6957
    16.7076  16.7142  16.7142  16.7246  16.7246  16.7531  16.7532  16.8066

     occupation numbers 
     1.0000   1.0000   1.0000   1.0000   1.0000   1.0000   1.0000   1.0000
     1.0000   1.0000   1.0000   1.0000   1.0000   1.0000   1.0000   1.0000
     1.0000   1.0000   1.0000   1.0000   1.0000   1.0000   1.0000   1.0000
     1.0000   1.0000   1.0000   1.0000   1.0000   1.0000   1.0000   1.0000
     1.0000   1.0000   1.0000   1.0000   1.0000   1.0000   1.0000   1.0000
     1.0000   1.0000   1.0000   1.0000   1.0000   1.0000   1.0000   1.0000
     1.0000   1.0000   1.0000   1.0000   1.0000   1.0000   1.0000   1.0000
     1.0000   1.0000   1.0000   1.0000   1.0000   1.0000   1.0000   1.0000
     1.0000   1.0000   1.0000   1.0000   1.0000   1.0000   1.0000   1.0000
     1.0000   1.0000   1.0000   1.0000   1.0000   1.0000   1.0000   1.0000
     1.0000   1.0000   1.0000   1.0000   1.0000   1.0000   1.0000   1.0000
     1.0000   1.0000   1.0000   1.0000   1.0000   1.0000   1.0000   1.0000
     1.0000   1.0000   1.0000   1.0000   1.0000   1.0000   1.0000   1.0000
     1.0000   1.0000   1.0000   1.0000   1.0000   1.0000   1.0000   1.0000
     1.0000   1.0000   1.0000   1.0000   1.0000   1.0000   1.0000   1.0000
     1.0000   1.0000   1.0000   1.0000   1.0000   1.0000   1.0000   1.0000
     1.0000   1.0000   1.0000   1.0000   1.0000   1.0000   1.0000   1.0000
     1.0000   1.0000   1.0000   1.0000   1.0000   1.0000   1.0000   1.0000
     1.0000   1.0000   1.0000   1.0000   1.0000   1.0000   1.0000   1.0000
     1.0000   1.0000   1.0000   1.0000   1.0000   1.0000   1.0000   1.0000
     1.0000   1.0000   1.0000   1.0000   1.0000   1.0000   1.0000   1.0000
     1.0000   1.0000   1.0000   1.0000   1.0000   1.0000   1.0000   1.0000
     1.0000   1.0000   1.0000   1.0000   1.0000   1.0000   1.0000   1.0000
     1.0000   1.0000   1.0000   1.0000   1.0000   1.0000   1.0000   1.0000
     1.0000   1.0000   1.0000   1.0000   1.0000   1.0000   1.0000   1.0000
     1.0000   1.0000   1.0000   1.0000   1.0000   1.0000   1.0000   1.0000
     1.0000   1.0000   1.0000   1.0000   1.0000   1.0000   1.0000   1.0000
     1.0000   1.0000   1.0000   1.0000   1.0000   1.0000   1.0000   1.0000
     1.0000   1.0000   1.0000   1.0000   1.0000   1.0000   1.0000   1.0000
     1.0000   1.0000   1.0000   1.0000   1.0000   1.0000   1.0000   1.0000
     1.0000   1.0000   1.0000   1.0000   1.0000   1.0000   1.0000   1.0000
     1.0000   1.0000   1.0000   1.0000   1.0000   1.0000   1.0000   1.0000
     1.0000   1.0000   1.0000   1.0000   1.0000   1.0000   1.0000   1.0000
     1.0000   1.0000   1.0000   1.0000   1.0000   1.0000   1.0000   1.0000
     1.0000   1.0000   1.0000   1.0000   1.0000   1.0000   1.0000   1.0000
     1.0000   1.0000   1.0000   1.0000   1.0000   1.0000   1.0000   1.0000
     1.0000   1.0000   1.0000   1.0000   1.0000   1.0000   1.0000   1.0000
     1.0000   1.0000   1.0000   1.0000   1.0000   1.0000   1.0000   1.0000
     1.0000   1.0000   1.0000   1.0000   1.0000   1.0000   1.0000   1.0000
     1.0000   1.0000   1.0000   1.0000   1.0000   1.0000   1.0000   1.0000
     1.0000   1.0000   1.0000   1.0000   1.0000   1.0000   1.0000   1.0000
     1.0000   1.0000   1.0000   1.0000   1.0000   1.0000   1.0000   1.0000
     1.0000   1.0000   1.0000   1.0000   1.0000   1.0000   1.0000   1.0000
     1.0000   1.0000   1.0000   1.0000   1.0000   1.0000   1.0000   1.0000
     1.0000   1.0000   1.0000   1.0000   1.0000   1.0000   1.0000   1.0000
     1.0000   1.0000   1.0000   1.0000   1.0000   1.0000   1.0000   1.0000
     1.0000   1.0000   1.0000   1.0000   1.0000   1.0000   1.0000   1.0000
     1.0000   1.0000   1.0000   1.0000   1.0000   1.0000   1.0000   1.0000
     1.0000   1.0000   1.0000   1.0000   1.0000   1.0000   1.0000   1.0000
     1.0000   1.0000   1.0000   1.0000   1.0000   1.0000   1.0000   1.0000
     1.0000   1.0000   1.0000   1.0000   1.0000   1.0000   1.0000   1.0000
     1.0000   1.0000   1.0000   1.0000   1.0000   1.0000   1.0000   1.0000
     1.0000   1.0000   1.0000   1.0000   1.0000   1.0000   1.0000   1.0000
     1.0000   1.0000   1.0000   1.0000   1.0000   1.0000   1.0000   1.0000
     1.0000   1.0000   1.0000   1.0000   1.0000   1.0000   1.0000   1.0000
     1.0000   1.0000   1.0000   1.0000   1.0000   1.0000   1.0000   1.0000
     1.0000   1.0000   1.0000   1.0000   1.0000   1.0000   1.0000   1.0000
     1.0000   1.0000   1.0000   1.0000   1.0000   1.0000   1.0000   1.0000
     1.0000   1.0000   1.0000   1.0000   1.0000   1.0000   1.0000   1.0000
     1.0000   1.0000   1.0000   1.0000   1.0000   1.0000   1.0000   1.0000
     1.0000   1.0000   1.0000   1.0000   1.0000   1.0000   1.0000   1.0000
     1.0000   1.0000   1.0000   1.0000   1.0000   1.0000   1.0000   1.0000
     1.0000   1.0000   1.0000   1.0000   1.0000   1.0000   1.0000   1.0000
     1.0000   1.0000   1.0000   1.0000   1.0000   1.0000   1.0000   1.0000
     1.0000   1.0000   1.0000   1.0000   1.0000   1.0000   1.0000   1.0000
     1.0000   1.0000   1.0000   1.0000   1.0000   1.0000   1.0000   1.0000
     1.0000   1.0000   1.0000   1.0000   1.0000   1.0000   1.0000   1.0000
     1.0000   1.0000   1.0000   1.0000   1.0000   1.0000   1.0000   1.0000
     1.0000   1.0000   1.0000   1.0000   1.0000   1.0000   1.0000   1.0000
[...]
     Non-local corr. energy    =      52.69946703 Ry
     -----------------------------------------------

          total   stress  (Ry/bohr**3)                   (kbar)     P=       -5.19
  -0.00005046   0.00000000   0.00000000           -7.42        0.00        0.00
   0.00000000  -0.00005046   0.00000000            0.00       -7.42        0.00
   0.00000000   0.00000000  -0.00000499            0.00        0.00       -0.73

     kinetic stress (kbar)  18455.05      0.00      0.00
                                0.00  18455.05      0.00
                                0.00      0.00  18463.25

     local   stress (kbar)   5674.82     -0.07     -0.00
                               -0.07   5674.72      0.00
                               -0.00      0.00   3738.42

     nonloc. stress (kbar)     95.62      0.00      0.00
                                0.00     95.62      0.00
                                0.00      0.00    101.52

     hartree stress (kbar)  19720.13     -0.00     -0.00
                               -0.00  19720.13      0.00
                               -0.00      0.00  20580.17

     exc-cor stress (kbar)   5297.51      0.00     -0.00
                                0.00   5297.51      0.00
                               -0.00      0.00   5298.60

     corecor stress (kbar) -14244.15     -0.00     -0.00
                               -0.00 -14244.15      0.00
                               -0.00      0.00 -14243.93

     ewald   stress (kbar) -35169.84      0.10      0.00
                                0.10 -35169.72     -0.00
                                0.00     -0.00 -34101.09

     hubbard stress (kbar)      0.00      0.00      0.00
                                0.00      0.00      0.00
                                0.00      0.00      0.00

     DFT-D   stress (kbar)      0.00      0.00      0.00
                                0.00      0.00      0.00
                                0.00      0.00      0.00

     XDM     stress (kbar)      0.00      0.00      0.00
                                0.00      0.00      0.00
                                0.00      0.00      0.00

     dft-nl  stress (kbar)    163.43     -0.00     -0.00
                               -0.00    163.43     -0.00
                               -0.00     -0.00    162.32

     TS-vdW  stress (kbar)      0.00      0.00      0.00
                                0.00      0.00      0.00
                                0.00      0.00      0.00

     MDB     stress (kbar)      0.00      0.00      0.00
                                0.00      0.00      0.00
                                0.00      0.00      0.00

     3D-RISM stress (kbar)      0.00      0.00      0.00
                                0.00      0.00      0.00
                                0.00      0.00      0.00


     BFGS Geometry Optimization
     Energy error            =      0.0E+00 Ry
     Gradient error          =      8.3E-04 Ry/Bohr

     bfgs converged in   1 scf cycles and   0 bfgs steps
     (criteria: energy <  1.0E-04 Ry, force <  1.0E-03 Ry/Bohr)

     End of BFGS Geometry Optimization

     Final energy             =  -30235.2893803374 Ry
Begin final coordinates

ATOMIC_POSITIONS (angstrom)
Ga            1.6222756606        0.9366198184        2.1510257417
Ga            1.6222756606        0.9366198184        7.9210511174
Ga            1.6222756606        0.9366198184       13.1924798667
Ga           -0.0065652811        3.7519907788        2.6059979835
Ga           -0.0022384488        3.7920057908        7.9841027228
Ga           -0.0022933745        3.7604102382       13.1921857575
Ga           -1.6188967196        6.5582916804        2.6233452268
Ga           -1.6165844052        6.5596266958        7.9492553339
Ga           -1.6200308929        6.5576368651       13.2228146850
Ga           -3.2430588717        9.3577621161        2.6059979835
Ga           -3.2062414386        9.3415017568        7.9841027228
Ga           -3.2336314527        9.3572519661       13.1921857575
Ga            4.8748789042        0.9395519725        2.6059979835
Ga            4.9073695050        0.9157973199        7.9841027228
Ga            4.8800344166        0.9316426632       13.1921857575
Ga            3.2511166023        3.7519907788        2.6059979835
Ga            3.2467897700        3.7920057908        7.9841027228
Ga            3.2468446957        3.7604102382       13.1921857575
Ga            1.6222756606        6.5581183059        2.6373328143
Ga            1.6222756606        6.5692532294        7.9439808562
Ga            1.6222756606        6.5632532856       13.2261280783
Ga            0.0015393238        9.3653159869        2.6373328143
Ga            0.0111824504        9.3597485252        7.9439808562
Ga            0.0059863466        9.3627484971       13.2261280783
Ga            8.1113724947        0.9327215068        2.6233452268
Ga            8.1113724947        0.9300514760        7.9492553339
Ga            8.1113724947        0.9340311373       13.2228146850
Ga            6.4920281782        3.7481727455        2.6304475251
Ga            6.4941582586        3.7494025479        7.9489377659
Ga            6.4926035455        3.7485049339       13.2211723636
Ga            4.8634480408        6.5582916804        2.6233452268
Ga            4.8611357264        6.5596266958        7.9492553339
Ga            4.8645822141        6.5576368651       13.2228146850
Ga            3.2430119974        9.3653159869        2.6373328143
Ga            3.2333688708        9.3597485252        7.9439808562
Ga            3.2385649746        9.3627484971       13.2261280783
Ga           11.3478660853        0.9395519725        2.6059979835
Ga           11.3153754845        0.9157973199        7.9841027228
Ga           11.3427105729        0.9316426632       13.1921857575
Ga            9.7307168113        3.7481727455        2.6304475251
Ga            9.7285867309        3.7494025479        7.9489377659
Ga            9.7301414440        3.7485049339       13.2211723636
Ga            8.1113724947        6.5529593767        2.6304475251
Ga            8.1113724947        6.5504997718        7.9489377659
Ga            8.1113724947        6.5522949997       13.2211723636
Ga            6.4876101929        9.3577621161        2.6059979835
Ga            6.4507927598        9.3415017568        7.9841027228
Ga            6.4781827739        9.3572519661       13.1921857575
Ga           -0.3055090609        2.0496270507        5.4516942304
Ga           -0.0004778411        1.8735171938       10.5731878331
Ga           -0.0449692804        1.8992043383       15.7484206572
Ga           -1.6581010230        4.7240127408        5.2975360162
Ga           -1.6319739341        4.6888479634       10.5892779160
Ga           -1.6281786566        4.6889891822       15.8498087068
Ga           -3.2270346245        7.4414854522        5.2975360162
Ga           -3.2444246705        7.4816945636       10.5892779160
Ga           -3.2424047327        7.4849107609       15.8498087068
Ga           -4.8668245904        9.9500572973        5.4516942304
Ga           -4.8668245904       10.3022770111       10.5731878331
Ga           -4.8668245904       10.2509027222       15.7484206572
Ga            3.5500535484        2.0496270507        5.4516942304
Ga            3.2450223286        1.8735171938       10.5731878331
Ga            3.2895137679        1.8992043383       15.7484206572
Ga            1.6222722437        4.6986065400        5.3068202309
Ga            1.6222722437        4.6990167585       10.5921093303
Ga            1.6222722437        4.6884088075       15.8449901009
Ga            0.0078609405        7.4975048032        5.2921785925
Ga            0.0015629218        7.4938686404       10.5877370298
Ga            0.0014607219        7.4938096353       15.8613936886
Ga           -1.6088504062       10.2950751355        5.3068202309
Ga           -1.6084951467       10.2948700263       10.5921093303
Ga           -1.6176819017       10.3001740017       15.8449901009
Ga            6.5424354764        1.8838132059        5.2975360162
Ga            6.4989183414        1.8787688718       10.5892779160
Ga            6.4971430018        1.8754114557       15.8498087068
Ga            4.9026455105        4.7240127408        5.2975360162
Ga            4.8765184216        4.6888479634       10.5892779160
Ga            4.8727231441        4.6889891822       15.8498087068
Ga            3.2366835470        7.4975048032        5.2921785925
Ga            3.2429815657        7.4938686404       10.5877370298
Ga            3.2430837656        7.4938096353       15.8613936886
Ga            1.6222722437       10.2937472047        5.2921785925
Ga            1.6222722437       10.3010195303       10.5877370298
Ga            1.6222722437       10.3011375406       15.8613936886
Ga            9.6803026792        1.8838132059        5.2975360162
Ga            9.7238198143        1.8787688718       10.5892779160
Ga            9.7255951539        1.8754114557       15.8498087068
Ga            8.1113690779        4.6831037996        5.2946036434
Ga            8.1113690779        4.6831037996       10.5879505198
Ga            8.1113690779        4.6831037996       15.8579317734
Ga            6.4715791119        7.4414854522        5.2975360162
Ga            6.4889691579        7.4816945636       10.5892779160
Ga            6.4869492201        7.4849107609       15.8498087068
Ga            4.8533948937       10.2950751355        5.3068202309
Ga            4.8530396342       10.2948700263       10.5921093303
Ga            4.8622263892       10.3001740017       15.8449901009
N             1.6222756606        0.9366198184        9.9041107824
N             1.6222756606        0.9366198184       15.2052435830
N            -0.0165769982        3.7824423615        4.6224265435
N            -0.0005586985        3.7569373304        9.9476555652
N            -0.0027292600        3.7719059400       15.1790423177
N            -1.6109963859        6.5628529402        4.6220931615
N            -1.6200828302        6.5576068791        9.9282098585
N            -1.6193439101        6.5580334949       15.2115356420
N            -3.2216928860        9.3338659235        4.6224265435
N            -3.2357717411        9.3604906935        9.9476555652
N            -3.2238938257        9.3511266273       15.1790423177
N             4.9062566070        0.9329965825        4.6224265435
N             4.8761594522        0.9318768436        9.9476555652
N             4.8902079291        0.9262723002       15.1790423177
N             3.2611283194        3.7824423615        4.6224265435
N             3.2451100197        3.7569373304        9.9476555652
N             3.2472805812        3.7719059400       15.1790423177
N             1.6222756606        6.5540644164        4.6338435575
N             1.6222756606        6.5617511089        9.9252384564
N             1.6222756606        6.5601456179       15.2146873805
N            -0.0019714475        9.3673429317        4.6338435575
N             0.0046854235        9.3634995855        9.9252384564
N             0.0032950275        9.3643023310       15.2146873805
N             8.1113724947        0.9235989872        4.6220931615
N             8.1113724947        0.9340911093        9.9282098585
N             8.1113724947        0.9332378779       15.2115356420
N             6.4909665743        3.7475598281        4.6329473490
N             6.4910221628        3.7475919222        9.9279393038
N             6.4907461398        3.7474325602       15.2100535824
N             4.8555477071        6.5628529402        4.6220931615
N             4.8646341514        6.5576068791        9.9282098585
N             4.8638952313        6.5580334949       15.2115356420
N             3.2465227687        9.3673429317        4.6338435575
N             3.2398658977        9.3634995855        9.9252384564
N             3.2412562937        9.3643023310       15.2146873805
N            11.3164883825        0.9329965825        4.6224265435
N            11.3465855373        0.9318768436        9.9476555652
N            11.3325370604        0.9262723002       15.1790423177
N             9.7317784152        3.7475598281        4.6329473490
N             9.7317228267        3.7475919222        9.9279393038
N             9.7319988497        3.7474325602       15.2100535824
N             8.1113724947        6.5541852113        4.6329473490
N             8.1113724947        6.5541210233        9.9279393038
N             8.1113724947        6.5544397471       15.2100535824
N             6.4662442072        9.3338659235        4.6224265435
N             6.4803230623        9.3604906935        9.9476555652
N             6.4684451469        9.3511266273       15.1790423177
N            -0.0575131206        1.9064465278        1.8802045239
N            -0.0405603556        1.8966588443        7.3568953704
N            -0.0026489888        1.8747707065       12.5611454485
N            -1.6264072061        4.6861328853        1.9833704418
N            -1.6258824605        4.6866345008        7.2813590726
N            -1.6303955352        4.6874637666       12.5675910498
N            -3.2439926331        7.4878730305        1.9833704418
N            -3.2432958486        7.4880766657        7.2813590726
N            -3.2448342207        7.4837535956       12.5675910498
N            -4.8668245904       10.2364183431        1.8802045239
N            -4.8668245904       10.2559937100        7.3568953704
N            -4.8668245904       10.2997699857       12.5611454485
N             3.3020576081        1.9064465278        1.8802045239
N             3.2851048431        1.8966588443        7.3568953704
N             3.2471934763        1.8747707065       12.5611454485
N             1.6222722437        4.6786784406        1.9858920593
N             1.6222722437        4.6854447815        7.2882455305
N             1.6222722437        4.6947112155       12.5658158285
N             0.0016830940        7.4939380219        1.9907133490
N            -0.0002189632        7.4928398686        7.2788385581
N             0.0006750178        7.4933560088       12.5719971111
N            -1.6261086466       10.3050391852        1.9858920593
N            -1.6202488235       10.3016560147        7.2882455305
N            -1.6122238563       10.2970227978       12.5658158285
N             6.4937836508        1.8753054830        1.9833704418
N             6.4939556898        1.8746002323        7.2813590726
N             6.4969303924        1.8780940367       12.5675910498
N             4.8709516936        4.6861328853        1.9833704418
N             4.8704269480        4.6866345008        7.2813590726
N             4.8749400227        4.6874637666       12.5675910498
N             3.2428613935        7.4939380219        1.9907133490
N             3.2447634507        7.4928398686        7.2788385581
N             3.2438694697        7.4933560088       12.5719971111
N             1.6222722437       10.3008807673        1.9907133490
N             1.6222722437       10.3030770739        7.2788385581
N             1.6222722437       10.3020447935       12.5719971111
N             9.7289545049        1.8753054830        1.9833704418
N             9.7287824659        1.8746002323        7.2813590726
N             9.7258077633        1.8780940367       12.5675910498
N             8.1113690779        4.6831037996        1.9875566453
N             8.1113690779        4.6831037996        7.2805219261
N             8.1113690779        4.6831037996       12.5701158991
N             6.4885371205        7.4878730305        1.9833704418
N             6.4878403360        7.4880766657        7.2813590726
N             6.4893787081        7.4837535956       12.5675910498
N             4.8706531341       10.3050391852        1.9858920593
N             4.8647933110       10.3016560147        7.2882455305
N             4.8567683438       10.2970227978       12.5658158285
Ga            1.6222756606        0.9366198184        4.4843514505
End final coordinates



     Writing all to output data dir ./GaN.save/
 
     init_run     :     25.81s CPU     28.21s WALL (       1 calls)
     electrons    :   1551.67s CPU   1570.77s WALL (       1 calls)
     forces       :     10.39s CPU     10.60s WALL (       1 calls)
     stress       :    173.46s CPU    175.70s WALL (       1 calls)

     Called by init_run:
     wfcinit      :     16.02s CPU     18.06s WALL (       1 calls)
     wfcinit:atom :      0.08s CPU      0.08s WALL (       1 calls)
     wfcinit:wfcr :     15.47s CPU     17.35s WALL (       1 calls)
     potinit      :      1.01s CPU      1.21s WALL (       1 calls)
     hinit0       :      0.74s CPU      0.78s WALL (       1 calls)

     Called by electrons:
     c_bands      :   1542.82s CPU   1561.27s WALL (       2 calls)
     sum_band     :      6.91s CPU      7.06s WALL (       2 calls)
     v_of_rho     :      1.19s CPU      1.29s WALL (       2 calls)
     v_h          :      0.01s CPU      0.01s WALL (       2 calls)
     v_xc         :      2.23s CPU      2.35s WALL (       4 calls)
     newd         :      0.24s CPU      0.24s WALL (       2 calls)
     PAW_pot      :      0.56s CPU      0.57s WALL (       2 calls)
     mix_rho      :      0.00s CPU      0.00s WALL (       2 calls)
     vdW_kernel   :      0.16s CPU      0.16s WALL (       1 calls)

     Called by c_bands:
     init_us_2    :      0.34s CPU      0.43s WALL (       5 calls)
     init_us_2:cp :      0.34s CPU      0.43s WALL (       5 calls)
     cegterg      :   1348.43s CPU   1364.90s WALL (       6 calls)

     Called by sum_band:
     sum_band:wei :      0.01s CPU      0.01s WALL (       2 calls)
     sum_band:loo :      6.46s CPU      6.51s WALL (       2 calls)
     sum_band:buf :      0.00s CPU      0.00s WALL (       2 calls)
     sum_band:ini :      0.21s CPU      0.22s WALL (       2 calls)
     sum_band:cal :      3.87s CPU      3.89s WALL (       2 calls)
     sum_band:bec :      0.05s CPU      0.05s WALL (       2 calls)
     addusdens    :      0.24s CPU      0.26s WALL (       2 calls)
     addusd:skk   :      0.02s CPU      0.03s WALL (       4 calls)
     addusd:dgemm :      0.09s CPU      0.10s WALL (       4 calls)
     addusd:qvan2 :      0.03s CPU      0.03s WALL (       4 calls)

     Called by *egterg:
     cdiaghg      :    998.71s CPU   1006.97s WALL (     111 calls)
     cegterg:over :     74.56s CPU     76.91s WALL (     110 calls)
     cegterg:upda :     44.34s CPU     45.02s WALL (     110 calls)
     cegterg:last :     36.19s CPU     36.45s WALL (       9 calls)
     h_psi        :    146.58s CPU    149.04s WALL (     117 calls)
     s_psi        :     45.58s CPU     46.60s WALL (     117 calls)
     g_psi        :      0.30s CPU      0.30s WALL (     110 calls)

     Called by h_psi:
     h_psi:calbec :     49.52s CPU     49.90s WALL (     117 calls)
     vloc_psi     :     50.72s CPU     51.26s WALL (     117 calls)
     add_vuspsi   :     45.54s CPU     46.65s WALL (     117 calls)

     General routines
     calbec       :     63.06s CPU     63.55s WALL (     124 calls)
     fft          :      1.11s CPU      1.15s WALL (     294 calls)
     ffts         :      0.02s CPU      0.02s WALL (       4 calls)
     fftw         :     49.80s CPU     50.31s WALL (   49646 calls)
     interpolate  :      0.01s CPU      0.01s WALL (       2 calls)
 
     Parallel routines

     PAW routines
     PAW_pot      :      0.56s CPU      0.57s WALL (       2 calls)
     PAW_symme    :      0.01s CPU      0.01s WALL (       3 calls)
 
     PWSCF        :  29m24.15s CPU  29m53.84s WALL

 
   This run was terminated on:  19:52:19  17Feb2024            

=------------------------------------------------------------------------------=
   JOB DONE.
=------------------------------------------------------------------------------=
