
     Program PWSCF v.7.1 starts on 18Feb2024 at 10:43:24 

     This program is part of the open-source Quantum ESPRESSO suite
     for quantum simulation of materials; please cite
         "P. Giannozzi et al., J. Phys.:Condens. Matter 21 395502 (2009);
         "P. Giannozzi et al., J. Phys.:Condens. Matter 29 465901 (2017);
         "P. Giannozzi et al., J. Chem. Phys. 152 154105 (2020);
          URL http://www.quantum-espresso.org", 
     in publications or presentations arising from this work. More details at
     http://www.quantum-espresso.org/quote

     Parallel version (MPI & OpenMP), running on     128 processor cores
     Number of MPI processes:               128
     Threads/MPI process:                     1

     MPI processes distributed on     1 nodes
     1928897 MiB available memory on the printing compute node when the environment starts
 
     Reading input from espresso.pwi
Warning: card &CELL ignored
Warning: card    CELL_DYNAMICS    = 'BFGS' ignored
Warning: card / ignored

     Current dimensions of program PWSCF are:
     Max number of different atomic species (ntypx) = 10
     Max number of k-points (npk) =  40000
     Max angular momentum in pseudopotentials (lmaxx) =  4
     file Pb.pbe-dn-kjpaw_psl.1.0.0.UPF: wavefunction(s)  6S 6P 5D renormalized
     file I.pbe-dn-kjpaw_psl.1.0.0.UPF: wavefunction(s)  5S 5P renormalized

     **************************************************************************
     Initializing libbeef V0.1.2 with the BEEF-vdW functional.
     Citation: Wellendorff et al., PRB 85, 235149 (2012).
     **************************************************************************


     IMPORTANT: XC functional enforced from input :
     Exchange-correlation= BEEF-VDW
                           (   1   4  43  14   2   0   0)
     Any further DFT definition will be discarded
     Please, verify this is what you really want

 
     R & G space division:  proc/nbgrp/npool/nimage =     128
     Subspace diagonalization in iterative solution of the eigenvalue problem:
     a serial algorithm will be used

 
     Parallelization info
     --------------------
     sticks:   dense  smooth     PW     G-vecs:    dense   smooth      PW
     Min         238     190     47                26450    18922    2361
     Max         239     191     48                26459    18933    2368
     Sum       30589   24439   6121              3386231  2422955  302835
 
     Using Slab Decomposition
 


     bravais-lattice index     =            4
     lattice parameter (alat)  =      35.6120  a.u.
     unit-cell volume          =   30624.9051 (a.u.)^3
     number of atoms/cell      =           95
     number of atomic types    =            2
     number of electrons       =      1524.00
     number of Kohn-Sham states=          914
     kinetic-energy cutoff     =      70.0000  Ry
     charge density cutoff     =     350.0000  Ry
     scf convergence threshold =      1.0E-07
     mixing beta               =       0.7000
     number of iterations used =            8  plain     mixing
     Exchange-correlation= BEEF-VDW
                           (   1   4  43  14   2   0   0)

     celldm(1)=  35.612033  celldm(2)=   0.000000  celldm(3)=   0.782986
     celldm(4)=   0.000000  celldm(5)=   0.000000  celldm(6)=   0.000000

     crystal axes: (cart. coord. in units of alat)
               a(1) = (   1.000000   0.000000   0.000000 )  
               a(2) = (  -0.500000   0.866025   0.000000 )  
               a(3) = (   0.000000   0.000000   0.782986 )  

     reciprocal axes: (cart. coord. in units 2 pi/alat)
               b(1) = (  1.000000  0.577350 -0.000000 )  
               b(2) = (  0.000000  1.154701  0.000000 )  
               b(3) = (  0.000000 -0.000000  1.277163 )  


     PseudoPot. # 1 for Pb read from file:
     /trace/group/acmegroup/atimmins/packages/espresso/pseudo/psl_1.0.0/pslibrary.1.0.0/pbe/PSEUDOPOTENTIALS/Pb.pbe-dn-kjpaw_psl.1.0.0.UPF
     MD5 check sum: 39ab5b8a6bbd56b7735ad9f188aac93a
     Pseudo is Projector augmented-wave + core cor, Zval = 14.0
     Generated using 'atomic' code by A. Dal Corso  v.7.1
     Shape of augmentation charge: PSQ
     Using radial grid of 1281 points,  6 beta functions with: 
                l(1) =   0
                l(2) =   0
                l(3) =   1
                l(4) =   1
                l(5) =   2
                l(6) =   2
     Q(r) pseudized with 0 coefficients 


     PseudoPot. # 2 for I  read from file:
     /trace/group/acmegroup/atimmins/packages/espresso/pseudo/psl_1.0.0/pslibrary.1.0.0/pbe/PSEUDOPOTENTIALS/I.pbe-dn-kjpaw_psl.1.0.0.UPF
     MD5 check sum: bfa8781bc1224d19af3f3980e3fab11e
     Pseudo is Projector augmented-wave + core cor, Zval = 17.0
     Generated using 'atomic' code by A. Dal Corso  v.7.1
     Shape of augmentation charge: PSQ
     Using radial grid of 1247 points,  6 beta functions with: 
                l(1) =   0
                l(2) =   0
                l(3) =   1
                l(4) =   1
                l(5) =   2
                l(6) =   2
     Q(r) pseudized with 0 coefficients 


     atomic species   valence    mass     pseudopotential
        Pb            14.00   207.20000     Pb( 1.00)
        I             17.00   126.90447     I ( 1.00)

     No symmetry found


                                    s                        frac. trans.

      isym =  1     identity                                     

 cryst.   s( 1) = (     1          0          0      )
                  (     0          1          0      )
                  (     0          0          1      )

 cart.    s( 1) = (  1.0000000  0.0000000  0.0000000 )
                  (  0.0000000  1.0000000  0.0000000 )
                  (  0.0000000  0.0000000  1.0000000 )


     point group C_1 (1)    
     there are  1 classes
     the character table:

       E    
A      1.00

     the symmetry operations in each class and the name of the first element:

     E        1
          identity                                               

   Cartesian axes

     site n.     atom                  positions (alat units)
         1           Pb  tau(   1) = (   0.1250034   0.2164918   0.3914896  )
         2           Pb  tau(   2) = (   0.0000077   0.4329926   0.7829784  )
         3           Pb  tau(   3) = (   0.0000026   0.4329971   0.3914855  )
         4           Pb  tau(   4) = (  -0.1249932   0.6494980   0.7829742  )
         5           Pb  tau(   5) = (  -0.1249983   0.6495025   0.3914814  )
         6           Pb  tau(   6) = (  -0.2499940   0.8660033   0.7829701  )
         7           Pb  tau(   7) = (  -0.2499991   0.8660078   0.3914773  )
         8           Pb  tau(   8) = (   0.3750085   0.2164863   0.7829857  )
         9           Pb  tau(   9) = (   0.3750034   0.2164908   0.3914929  )
        10           Pb  tau(  10) = (   0.2500077   0.4329916   0.7829816  )
        11           Pb  tau(  11) = (   0.2500026   0.4329962   0.3914888  )
        12           Pb  tau(  12) = (   0.1250068   0.6494970   0.7829775  )
        13           Pb  tau(  13) = (   0.1250017   0.6495015   0.3914847  )
        14           Pb  tau(  14) = (   0.0000060   0.8660024   0.7829734  )
        15           Pb  tau(  15) = (   0.0000009   0.8660069   0.3914805  )
        16           Pb  tau(  16) = (   0.6250085   0.2164853   0.7829890  )
        17           Pb  tau(  17) = (   0.6250034   0.2164898   0.3914962  )
        18           Pb  tau(  18) = (   0.5000077   0.4329907   0.7829849  )
        19           Pb  tau(  19) = (   0.5000026   0.4329952   0.3914920  )
        20           Pb  tau(  20) = (   0.3750068   0.6494960   0.7829808  )
        21           Pb  tau(  21) = (   0.3750017   0.6495006   0.3914879  )
        22           Pb  tau(  22) = (   0.2500060   0.8660014   0.7829766  )
        23           Pb  tau(  23) = (   0.2500009   0.8660059   0.3914838  )
        24           Pb  tau(  24) = (   0.8750085   0.2164844   0.7829923  )
        25           Pb  tau(  25) = (   0.8750034   0.2164889   0.3914994  )
        26           Pb  tau(  26) = (   0.7500077   0.4329897   0.7829881  )
        27           Pb  tau(  27) = (   0.7500026   0.4329942   0.3914953  )
        28           Pb  tau(  28) = (   0.6250068   0.6494951   0.7829840  )
        29           Pb  tau(  29) = (   0.6250017   0.6494996   0.3914912  )
        30           Pb  tau(  30) = (   0.5000060   0.8660004   0.7829799  )
        31           Pb  tau(  31) = (   0.5000009   0.8660050   0.3914870  )
        32           I   tau(  32) = (   0.1250054   0.0721550   0.2909325  )
        33           I   tau(  33) = (   0.1250105   0.0721505   0.6824253  )
        34           I   tau(  34) = (   0.0000045   0.2886603   0.2909283  )
        35           I   tau(  35) = (   0.0000096   0.2886558   0.6824212  )
        36           I   tau(  36) = (  -0.1249963   0.5051657   0.2909242  )
        37           I   tau(  37) = (  -0.1249912   0.5051612   0.6824171  )
        38           I   tau(  38) = (  -0.2499971   0.7216710   0.2909201  )
        39           I   tau(  39) = (  -0.2499920   0.7216665   0.6824129  )
        40           I   tau(  40) = (   0.3750054   0.0721540   0.2909357  )
        41           I   tau(  41) = (   0.3750105   0.0721495   0.6824286  )
        42           I   tau(  42) = (   0.2500045   0.2886594   0.2909316  )
        43           I   tau(  43) = (   0.2500096   0.2886548   0.6824244  )
        44           I   tau(  44) = (   0.1250037   0.5051647   0.2909275  )
        45           I   tau(  45) = (   0.1250088   0.5051602   0.6824203  )
        46           I   tau(  46) = (   0.0000029   0.7216701   0.2909233  )
        47           I   tau(  47) = (   0.0000080   0.7216656   0.6824162  )
        48           I   tau(  48) = (   0.6250054   0.0721530   0.2909390  )
        49           I   tau(  49) = (   0.6250105   0.0721485   0.6824318  )
        50           I   tau(  50) = (   0.5000045   0.2886584   0.2909348  )
        51           I   tau(  51) = (   0.5000096   0.2886539   0.6824277  )
        52           I   tau(  52) = (   0.3750037   0.5051638   0.2909307  )
        53           I   tau(  53) = (   0.3750088   0.5051592   0.6824236  )
        54           I   tau(  54) = (   0.2500029   0.7216691   0.2909266  )
        55           I   tau(  55) = (   0.2500080   0.7216646   0.6824194  )
        56           I   tau(  56) = (   0.8750054   0.0721521   0.2909422  )
        57           I   tau(  57) = (   0.8750105   0.0721476   0.6824351  )
        58           I   tau(  58) = (   0.7500045   0.2886574   0.2909381  )
        59           I   tau(  59) = (   0.7500096   0.2886529   0.6824310  )
        60           I   tau(  60) = (   0.6250037   0.5051628   0.2909340  )
        61           I   tau(  61) = (   0.6250088   0.5051583   0.6824268  )
        62           I   tau(  62) = (   0.5000029   0.7216681   0.2909299  )
        63           I   tau(  63) = (   0.5000080   0.7216636   0.6824227  )
        64           I   tau(  64) = (  -0.0000017   0.1443297   0.1005555  )
        65           I   tau(  65) = (   0.0000034   0.1443252   0.4920483  )
        66           I   tau(  66) = (  -0.1250025   0.3608351   0.1005514  )
        67           I   tau(  67) = (  -0.1249974   0.3608306   0.4920442  )
        68           I   tau(  68) = (  -0.2500034   0.5773404   0.1005472  )
        69           I   tau(  69) = (  -0.2499983   0.5773359   0.4920401  )
        70           I   tau(  70) = (  -0.3750042   0.7938458   0.1005431  )
        71           I   tau(  71) = (  -0.3749991   0.7938413   0.4920360  )
        72           I   tau(  72) = (   0.2499983   0.1443288   0.1005587  )
        73           I   tau(  73) = (   0.2500034   0.1443242   0.4920516  )
        74           I   tau(  74) = (   0.1249975   0.3608341   0.1005546  )
        75           I   tau(  75) = (   0.1250026   0.3608296   0.4920475  )
        76           I   tau(  76) = (  -0.0000034   0.5773395   0.1005505  )
        77           I   tau(  77) = (   0.0000017   0.5773350   0.4920433  )
        78           I   tau(  78) = (  -0.1250042   0.7938448   0.1005464  )
        79           I   tau(  79) = (  -0.1249991   0.7938403   0.4920392  )
        80           I   tau(  80) = (   0.4999983   0.1443278   0.1005620  )
        81           I   tau(  81) = (   0.5000034   0.1443233   0.4920548  )
        82           I   tau(  82) = (   0.3749975   0.3608332   0.1005579  )
        83           I   tau(  83) = (   0.3750026   0.3608286   0.4920507  )
        84           I   tau(  84) = (   0.2499966   0.5773385   0.1005537  )
        85           I   tau(  85) = (   0.2500017   0.5773340   0.4920466  )
        86           I   tau(  86) = (   0.1249958   0.7938439   0.1005496  )
        87           I   tau(  87) = (   0.1250009   0.7938394   0.4920425  )
        88           I   tau(  88) = (   0.7499983   0.1443268   0.1005653  )
        89           I   tau(  89) = (   0.7500034   0.1443223   0.4920581  )
        90           I   tau(  90) = (   0.6249975   0.3608322   0.1005611  )
        91           I   tau(  91) = (   0.6250026   0.3608277   0.4920540  )
        92           I   tau(  92) = (   0.4999966   0.5773376   0.1005570  )
        93           I   tau(  93) = (   0.5000017   0.5773330   0.4920499  )
        94           I   tau(  94) = (   0.3749958   0.7938429   0.1005529  )
        95           I   tau(  95) = (   0.3750009   0.7938384   0.4920457  )

   Crystallographic axes

     site n.     atom                  positions (cryst. coord.)
         1           Pb  tau(   1) = (  0.2499950  0.2499832  0.4999959  )
         2           Pb  tau(   2) = (  0.2499961  0.4999768  0.9999906  )
         3           Pb  tau(   3) = (  0.2499936  0.4999820  0.4999906  )
         4           Pb  tau(   4) = (  0.2499947  0.7499757  0.9999854  )
         5           Pb  tau(   5) = (  0.2499922  0.7499809  0.4999854  )
         6           Pb  tau(   6) = (  0.2499932  0.9999745  0.9999801  )
         7           Pb  tau(   7) = (  0.2499908  0.9999797  0.4999801  )
         8           Pb  tau(   8) = (  0.4999969  0.2499768  1.0000001  )
         9           Pb  tau(   9) = (  0.4999944  0.2499821  0.5000001  )
        10           Pb  tau(  10) = (  0.4999955  0.4999757  0.9999948  )
        11           Pb  tau(  11) = (  0.4999930  0.4999809  0.4999948  )
        12           Pb  tau(  12) = (  0.4999941  0.7499745  0.9999895  )
        13           Pb  tau(  13) = (  0.4999916  0.7499798  0.4999895  )
        14           Pb  tau(  14) = (  0.4999927  0.9999734  0.9999843  )
        15           Pb  tau(  15) = (  0.4999902  0.9999786  0.4999843  )
        16           Pb  tau(  16) = (  0.7499964  0.2499757  1.0000042  )
        17           Pb  tau(  17) = (  0.7499939  0.2499809  0.5000042  )
        18           Pb  tau(  18) = (  0.7499950  0.4999746  0.9999990  )
        19           Pb  tau(  19) = (  0.7499925  0.4999798  0.4999990  )
        20           Pb  tau(  20) = (  0.7499935  0.7499734  0.9999937  )
        21           Pb  tau(  21) = (  0.7499910  0.7499786  0.4999937  )
        22           Pb  tau(  22) = (  0.7499921  0.9999723  0.9999884  )
        23           Pb  tau(  23) = (  0.7499896  0.9999775  0.4999884  )
        24           Pb  tau(  24) = (  0.9999958  0.2499746  1.0000084  )
        25           Pb  tau(  25) = (  0.9999933  0.2499798  0.5000084  )
        26           Pb  tau(  26) = (  0.9999944  0.4999735  1.0000031  )
        27           Pb  tau(  27) = (  0.9999919  0.4999787  0.5000031  )
        28           Pb  tau(  28) = (  0.9999930  0.7499723  0.9999979  )
        29           Pb  tau(  29) = (  0.9999905  0.7499775  0.4999979  )
        30           Pb  tau(  30) = (  0.9999916  0.9999712  0.9999926  )
        31           Pb  tau(  31) = (  0.9999891  0.9999764  0.4999926  )
        32           I   tau(  32) = (  0.1666641  0.0833174  0.3715680  )
        33           I   tau(  33) = (  0.1666666  0.0833122  0.8715680  )
        34           I   tau(  34) = (  0.1666626  0.3333162  0.3715628  )
        35           I   tau(  35) = (  0.1666651  0.3333110  0.8715628  )
        36           I   tau(  36) = (  0.1666612  0.5833151  0.3715575  )
        37           I   tau(  37) = (  0.1666637  0.5833099  0.8715575  )
        38           I   tau(  38) = (  0.1666598  0.8333139  0.3715522  )
        39           I   tau(  39) = (  0.1666623  0.8333087  0.8715522  )
        40           I   tau(  40) = (  0.4166635  0.0833163  0.3715722  )
        41           I   tau(  41) = (  0.4166660  0.0833111  0.8715722  )
        42           I   tau(  42) = (  0.4166621  0.3333151  0.3715669  )
        43           I   tau(  43) = (  0.4166646  0.3333099  0.8715669  )
        44           I   tau(  44) = (  0.4166607  0.5833140  0.3715617  )
        45           I   tau(  45) = (  0.4166632  0.5833088  0.8715617  )
        46           I   tau(  46) = (  0.4166593  0.8333128  0.3715564  )
        47           I   tau(  47) = (  0.4166618  0.8333076  0.8715564  )
        48           I   tau(  48) = (  0.6666629  0.0833152  0.3715764  )
        49           I   tau(  49) = (  0.6666654  0.0833099  0.8715764  )
        50           I   tau(  50) = (  0.6666615  0.3333140  0.3715711  )
        51           I   tau(  51) = (  0.6666640  0.3333088  0.8715711  )
        52           I   tau(  52) = (  0.6666601  0.5833129  0.3715658  )
        53           I   tau(  53) = (  0.6666626  0.5833076  0.8715658  )
        54           I   tau(  54) = (  0.6666587  0.8333117  0.3715606  )
        55           I   tau(  55) = (  0.6666612  0.8333065  0.8715606  )
        56           I   tau(  56) = (  0.9166624  0.0833141  0.3715805  )
        57           I   tau(  57) = (  0.9166649  0.0833088  0.8715805  )
        58           I   tau(  58) = (  0.9166610  0.3333129  0.3715752  )
        59           I   tau(  59) = (  0.9166635  0.3333077  0.8715752  )
        60           I   tau(  60) = (  0.9166596  0.5833118  0.3715700  )
        61           I   tau(  61) = (  0.9166621  0.5833065  0.8715700  )
        62           I   tau(  62) = (  0.9166582  0.8333106  0.3715647  )
        63           I   tau(  63) = (  0.9166607  0.8333054  0.8715647  )
        64           I   tau(  64) = (  0.0833271  0.1666576  0.1284257  )
        65           I   tau(  65) = (  0.0833296  0.1666524  0.6284257  )
        66           I   tau(  66) = (  0.0833257  0.4166565  0.1284204  )
        67           I   tau(  67) = (  0.0833282  0.4166513  0.6284204  )
        68           I   tau(  68) = (  0.0833243  0.6666553  0.1284152  )
        69           I   tau(  69) = (  0.0833268  0.6666501  0.6284152  )
        70           I   tau(  70) = (  0.0833229  0.9166542  0.1284099  )
        71           I   tau(  71) = (  0.0833254  0.9166489  0.6284099  )
        72           I   tau(  72) = (  0.3333265  0.1666565  0.1284299  )
        73           I   tau(  73) = (  0.3333290  0.1666513  0.6284299  )
        74           I   tau(  74) = (  0.3333251  0.4166554  0.1284246  )
        75           I   tau(  75) = (  0.3333276  0.4166501  0.6284246  )
        76           I   tau(  76) = (  0.3333237  0.6666542  0.1284193  )
        77           I   tau(  77) = (  0.3333262  0.6666490  0.6284193  )
        78           I   tau(  78) = (  0.3333223  0.9166531  0.1284141  )
        79           I   tau(  79) = (  0.3333248  0.9166478  0.6284141  )
        80           I   tau(  80) = (  0.5833260  0.1666554  0.1284340  )
        81           I   tau(  81) = (  0.5833285  0.1666502  0.6284340  )
        82           I   tau(  82) = (  0.5833246  0.4166542  0.1284287  )
        83           I   tau(  83) = (  0.5833271  0.4166490  0.6284287  )
        84           I   tau(  84) = (  0.5833232  0.6666531  0.1284235  )
        85           I   tau(  85) = (  0.5833257  0.6666479  0.6284235  )
        86           I   tau(  86) = (  0.5833218  0.9166519  0.1284182  )
        87           I   tau(  87) = (  0.5833243  0.9166467  0.6284182  )
        88           I   tau(  88) = (  0.8333254  0.1666543  0.1284382  )
        89           I   tau(  89) = (  0.8333279  0.1666491  0.6284382  )
        90           I   tau(  90) = (  0.8333240  0.4166531  0.1284329  )
        91           I   tau(  91) = (  0.8333265  0.4166479  0.6284329  )
        92           I   tau(  92) = (  0.8333226  0.6666520  0.1284276  )
        93           I   tau(  93) = (  0.8333251  0.6666468  0.6284276  )
        94           I   tau(  94) = (  0.8333212  0.9166508  0.1284224  )
        95           I   tau(  95) = (  0.8333237  0.9166456  0.6284224  )

     number of k points=     1  Gaussian smearing, width (Ry)=  0.0100
                       cart. coord. in units 2pi/alat
        k(    1) = (   0.0000000   0.0000000   0.0000000), wk =   2.0000000

                       cryst. coord.
        k(    1) = (   0.0000000   0.0000000   0.0000000), wk =   2.0000000

     Dense  grid:  3386231 G-vectors     FFT dimensions: ( 216, 216, 180)

     Smooth grid:  2422955 G-vectors     FFT dimensions: ( 192, 192, 150)

     Dynamical RAM for                 wfc:      33.00 MB

     Dynamical RAM for     wfc (w. buffer):      33.00 MB

     Dynamical RAM for           str. fact:       0.81 MB

     Dynamical RAM for           local pot:       0.00 MB

     Dynamical RAM for          nlocal pot:      61.73 MB

     Dynamical RAM for                qrad:       3.00 MB

     Dynamical RAM for          rho,v,vnew:       3.35 MB

     Dynamical RAM for               rhoin:       1.12 MB

     Dynamical RAM for            rho*nmix:       6.46 MB

     Dynamical RAM for           G-vectors:       1.66 MB

     Dynamical RAM for          h,s,v(r/c):     611.86 MB

     Dynamical RAM for          <psi|beta>:      23.85 MB

     Dynamical RAM for                 psi:     131.99 MB

     Dynamical RAM for                hpsi:     131.99 MB

     Dynamical RAM for                spsi:     131.99 MB

     Dynamical RAM for      wfcinit/wfcrot:      85.12 MB

     Dynamical RAM for           addusdens:     100.92 MB

     Dynamical RAM for          addusforce:     152.23 MB

     Dynamical RAM for         addusstress:      81.14 MB

     Estimated static dynamical RAM per process >     109.43 MB

     Estimated max dynamical RAM per process >       1.12 GB

     Estimated total dynamical RAM >     143.45 GB

     Atomic positions and unit cell read from directory:
     ./PbI2.save/
     Atomic positions from file used, from input discarded
 

     Check: negative core charge=   -0.000001

     The initial density is read from file :
     ./PbI2.save/charge-density



     %%%%%%%%%%%%%%%%%%%%%%%%%%%%%%%%%%%%%%%%%%%%%%%%%%%%%%%%%%%%%%%%%%%%%%%%
     %                                                                      %
     % You are using vdW-DF, which was implemented by the Thonhauser group. %
     % Please cite the following two papers that made this development      %
     % possible and the two reviews that describe the various versions:     %
     %                                                                      %
     %   T. Thonhauser et al., PRL 115, 136402 (2015).                      %
     %   T. Thonhauser et al., PRB 76, 125112 (2007).                       %
     %   K. Berland et al., Rep. Prog. Phys. 78, 066501 (2015).             %
     %   D.C. Langreth et al., J. Phys.: Condens. Matter 21, 084203 (2009). %
     %                                                                      %
     % If you are calculating stress with vdW-DF, please also cite:         %
     %                                                                      %
     %   R. Sabatini et al., J. Phys.: Condens. Matter 24, 424209 (2012).   %
     %                                                                      %
     %%%%%%%%%%%%%%%%%%%%%%%%%%%%%%%%%%%%%%%%%%%%%%%%%%%%%%%%%%%%%%%%%%%%%%%%

     %%%%%%%%%%%%%%%%%%%%%%%%%%%%%%%%%%%%%%%%%%%%%%%%%%%%%%%%%%%%%%%%%%%%%%%%
     %                                                                      %
     %  vdW-DF NEWS:                                                        %
     %                                                                      %
     %  * vdW-DF3 is now available. DOI: 10.1021/acs.jctc.0c00471           %
     %    use with input_dft = 'vdW-DF3-opt1' or 'vdW-DF3-opt2'             %
     %                                                                      %
     %  * Unscreened and range-separated vdW-DF hybrid functionals          %
     %    DOI: 10.1063/1.4986522 and 10.1088/1361-648X/ac2ad2               %
     %    use with input_dft = 'vdW-DF-cx0' (etc) and 'vdW-DF-ahcx'         %
     %                                                                      %
     %%%%%%%%%%%%%%%%%%%%%%%%%%%%%%%%%%%%%%%%%%%%%%%%%%%%%%%%%%%%%%%%%%%%%%%%


     Carrying out vdW-DF run using the following parameters:
     Nqs    =  20  Npoints =  1024  r_max =  100.000
     q_mesh =  0.00001000  0.04494208  0.09755937  0.15916263
               0.23128650  0.31572767  0.41458969  0.53033537
               0.66584808  0.82450364  1.01025438  1.22772762
               1.48234092  1.78043706  2.12944203  2.53805004
               3.01644009  3.57652955  4.23227104  5.00000000


     -----------------------------------------------
     Non-local corr. energy    =      45.78093157 Ry
     -----------------------------------------------

     Wavefunctions not found or not readable, recomputing them from scratch
     Starting wfcs are  855 randomized atomic wfcs +   59 random wfcs
     Checking if some PAW data can be deallocated... 
       PAW data deallocated on   66 nodes for type:  1
       PAW data deallocated on   62 nodes for type:  2

     total cpu time spent up to now is       16.2 secs

     Self-consistent Calculation

     iteration #  1     ecut=    70.00 Ry     beta= 0.70
     Davidson diagonalization with overlap

---- Real-time Memory Report at c_bands before calling an iterative solver
           484 MiB given to the printing process from OS
             0 MiB allocation reported by mallinfo(arena+hblkhd)
       1906758 MiB available memory on the node where the printing process lives
------------------
     c_bands:  1 eigenvalues not converged
     ethr =  1.00E-05,  avg # of iterations = 40.0

     Threshold (ethr) on eigenvalues was too large:
     Diagonalizing with lowered threshold

     Davidson diagonalization with overlap

---- Real-time Memory Report at c_bands before calling an iterative solver
          1209 MiB given to the printing process from OS
             0 MiB allocation reported by mallinfo(arena+hblkhd)
       1894736 MiB available memory on the node where the printing process lives
------------------
     c_bands:  2 eigenvalues not converged
     ethr =  1.15E-08,  avg # of iterations = 60.0


     -----------------------------------------------
     Non-local corr. energy    =      45.78102069 Ry
     -----------------------------------------------


     total cpu time spent up to now is      916.2 secs

     End of self-consistent calculation

          k = 0.0000 0.0000 0.0000 (302835 PWs)   bands (ev):

   -41.0945 -41.0945 -41.0945 -41.0945 -41.0945 -41.0944 -41.0944 -41.0944
   -41.0944 -41.0943 -41.0943 -41.0943 -41.0939 -41.0938 -41.0938 -41.0937
   -41.0937 -41.0937 -41.0936 -41.0936 -41.0936 -41.0935 -41.0935 -41.0935
   -41.0935 -41.0935 -41.0935 -41.0935 -41.0935 -41.0935 -41.0934 -41.0934
   -41.0934 -41.0934 -41.0934 -41.0934 -41.0933 -41.0933 -41.0933 -41.0932
   -41.0932 -41.0932 -41.0919 -41.0919 -41.0918 -41.0917 -41.0917 -41.0917
   -41.0915 -41.0915 -41.0915 -41.0914 -41.0914 -41.0914 -41.0910 -41.0910
   -41.0910 -41.0909 -41.0909 -41.0909 -41.0909 -41.0909 -41.0909 -41.0909
   -41.0909 -41.0908 -41.0908 -41.0908 -41.0908 -41.0908 -41.0908 -41.0908
   -41.0906 -41.0906 -41.0906 -41.0906 -41.0906 -41.0906 -41.0905 -41.0905
   -41.0905 -41.0905 -41.0905 -41.0904 -41.0898 -41.0897 -41.0897 -41.0897
   -41.0897 -41.0897 -41.0896 -41.0896 -41.0896 -41.0896 -41.0896 -41.0896
   -41.0893 -41.0893 -41.0893 -41.0893 -41.0893 -41.0893 -41.0892 -41.0892
   -41.0892 -41.0892 -41.0891 -41.0891 -41.0890 -41.0890 -41.0890 -41.0890
   -41.0890 -41.0890 -41.0889 -41.0889 -41.0889 -41.0889 -41.0889 -41.0888
   -41.0861 -41.0861 -41.0861 -41.0861 -41.0861 -41.0861 -41.0860 -41.0860
   -41.0860 -41.0859 -41.0859 -41.0859 -41.0848 -41.0848 -41.0848 -41.0847
   -41.0847 -41.0846 -41.0839 -41.0839 -41.0839 -41.0838 -41.0838 -41.0838
   -41.0836 -41.0836 -41.0835 -41.0835 -41.0834 -41.0834 -41.0728 -41.0728
   -41.0726 -41.0726 -41.0716 -41.0716 -41.0715 -41.0715 -41.0712 -41.0711
   -40.7597 -40.7597 -40.7596 -40.7596 -40.7585 -40.7585 -40.7583 -40.7583
   -40.7580 -40.7578 -40.7549 -40.7549 -40.7549 -40.7548 -40.7548 -40.7547
   -40.7547 -40.7547 -40.7547 -40.7545 -40.7545 -40.7545 -40.7465 -40.7465
   -40.7464 -40.7463 -40.7463 -40.7463 -40.7425 -40.7425 -40.7425 -40.7424
   -40.7423 -40.7423 -40.7406 -40.7406 -40.7406 -40.7405 -40.7405 -40.7404
   -40.7294 -40.7294 -40.7294 -40.7293 -40.7293 -40.7292 -40.7278 -40.7278
   -40.7278 -40.7276 -40.7276 -40.7276 -40.7273 -40.7273 -40.7273 -40.7272
   -40.7271 -40.7271 -40.7238 -40.7238 -40.7238 -40.7237 -40.7237 -40.7236
   -40.7232 -40.7232 -40.7232 -40.7231 -40.7230 -40.7230 -40.6662 -40.6662
   -40.6661 -40.6661 -40.6661 -40.6661 -40.6660 -40.6660 -40.6660 -40.6660
   -40.6660 -40.6660 -40.6651 -40.6651 -40.6651 -40.6651 -40.6651 -40.6650
   -40.6650 -40.6649 -40.6649 -40.6649 -40.6649 -40.6649 -40.6463 -40.6463
   -40.6463 -40.6463 -40.6463 -40.6463 -40.6462 -40.6462 -40.6462 -40.6461
   -40.6461 -40.6461 -40.6398 -40.6397 -40.6397 -40.6397 -40.6397 -40.6397
   -40.6396 -40.6396 -40.6396 -40.6396 -40.6396 -40.6395 -40.6356 -40.6356
   -40.6356 -40.6356 -40.6356 -40.6356 -40.6355 -40.6355 -40.6355 -40.6355
   -40.6355 -40.6355 -40.4202 -40.4202 -40.4202 -40.4201 -40.4201 -40.4201
   -40.4190 -40.4190 -40.4190 -40.4189 -40.4189 -40.4189 -40.3376 -40.3376
   -40.3376 -40.3375 -40.3375 -40.3375 -40.3351 -40.3351 -40.3351 -40.3350
   -40.3350 -40.3350 -40.3099 -40.3099 -40.3099 -40.3098 -40.3098 -40.3098
   -13.2686 -13.2685 -13.2651 -13.2618 -13.2618 -13.2611 -13.2592 -13.2592
   -13.2588 -13.2580 -13.2580 -13.2567 -13.2538 -13.2538 -13.2518 -13.2492
   -13.2492 -13.2475 -13.2468 -13.2468 -13.2466 -13.2466 -13.2462 -13.2461
   -13.2448 -13.2448 -13.2445 -13.2426 -13.2425 -13.2425 -13.2422 -13.2422
   -13.2414 -13.2410 -13.2410 -13.2409 -13.2409 -13.2407 -13.2402 -13.2397
   -13.2397 -13.2396 -13.2395 -13.2393 -13.2393 -13.2385 -13.2383 -13.2383
   -13.2382 -13.2377 -13.2377 -13.2371 -13.2371 -13.2356 -13.2356 -13.2352
   -13.2352 -13.2350 -13.2340 -13.2336 -13.2335 -13.2330 -13.2327 -13.2327
   -13.2325 -13.2325 -13.2317 -13.2309 -13.2309 -13.2294 -13.2294 -13.2291
   -13.2290 -13.2290 -13.2265 -13.2265 -13.2256 -13.2256 -13.2253 -13.2240
   -12.9220 -12.9214 -12.9157 -12.9157 -12.9135 -12.9135 -12.9111 -12.9111
   -12.9105 -12.9105 -12.9070 -12.9058 -12.9017 -12.9016 -12.8995 -12.8995
   -12.8994 -12.8994 -12.8968 -12.8968 -12.8968 -12.8968 -12.8959 -12.8951
   -12.8949 -12.8949 -12.8945 -12.8944 -12.8938 -12.8938 -12.8769 -12.8750
   -12.8750 -12.8683 -12.8683 -12.8682 -12.8605 -12.8602 -12.8602 -12.8594
   -12.8594 -12.8594 -12.8526 -12.8525 -12.8525 -12.7865 -12.7822 -12.7822
   -12.7734 -12.7734 -12.7681 -12.7642 -12.7603 -12.7603 -12.7585 -12.7582
   -12.7581 -12.7581 -12.7561 -12.7561 -12.7539 -12.7539 -12.7532 -12.7505
   -12.7505 -12.7499 -12.7459 -12.7459 -12.7417 -12.7321 -12.7314 -12.7314
   -12.7297 -12.7297 -12.7289  -8.3928  -8.1972  -8.1972  -8.1955  -8.1948
    -8.1948  -8.1937  -7.9628  -7.9622  -7.9455  -7.9455  -7.9433  -7.9420
    -7.9420  -7.9377  -7.9266  -7.9266  -7.9191  -7.8742  -7.8742  -7.8722
    -7.8710  -7.8710  -7.8698  -7.8263  -7.8263  -7.8247  -7.8190  -7.8089
    -7.8089  -7.8079  -7.8049  -7.8049  -7.8008  -7.7799  -7.7799  -7.7599
    -7.7599  -7.6842  -7.5959  -7.5814  -7.5814  -7.5554  -7.5553  -7.5355
    -7.5258  -7.4849  -7.4812  -7.4790  -7.4790  -7.4554  -7.4485  -7.4485
    -7.4361  -7.4361  -7.4151  -7.4151  -7.3771  -7.2957  -7.2523  -7.2523
    -7.1624  -7.1623  -7.1323  -3.9692  -3.9660  -3.9660  -3.9571  -3.9562
    -3.9562  -3.9560  -3.9534  -3.9534  -3.6916  -3.6899  -3.6899  -3.6878
    -3.6878  -3.6851  -3.6038  -3.6036  -3.6036  -3.5683  -3.5683  -3.4954
    -3.4954  -3.4933  -3.4692  -3.3547  -3.3209  -3.2991  -3.2991  -3.2109
    -3.2109  -3.0749   0.6290   0.6290   0.6299   0.9384   0.9395   0.9395
     0.9396   0.9430   0.9430   1.0993   1.1039   1.1039   1.1051   1.1116
     1.1116   1.1311   1.1311   1.1325   1.2509   1.2549   1.2549   1.2583
     1.2583   1.2623   1.3601   1.3601   1.3914   1.4064   1.4064   1.4405
     1.4777   1.5012   1.5012   1.5256   1.5319   1.5319   1.5459   1.5543
     1.5752   1.5752   1.5757   1.5757   1.5802   1.5820   1.5820   1.6051
     1.6051   1.6294   1.6294   1.6308   1.6335   1.6877   1.7651   1.7651
     1.8542   1.8548   1.8588   1.8588   1.8703   1.8703   1.9338   1.9396
     1.9396   1.9406   1.9406   1.9424   2.0106   2.0106   2.0309   2.0360
     2.0394   2.0394   2.0544   2.0968   2.1217   2.1217   2.1362   2.1410
     2.1467   2.1467   2.1610   2.1611   2.1702   2.1974   2.2136   2.2136
     2.2541   2.2541   2.2608   2.2608   2.2770   2.2994   2.2994   2.3452
     2.3452   2.3496   2.3761   2.3922   2.3923   2.3947   2.4005   2.4005
     2.4107   2.4283   2.4283   2.4372   2.4525   2.4525   2.4757   2.5114
     2.5118   2.5136   2.5136   2.5143   2.5143   2.5146   2.5191   2.5192
     2.6061   2.6061   2.6112   2.6112   2.6130   2.6130   2.6130   2.6143
     2.6844   2.6844   2.7450   2.7523   2.7642   2.7642   2.7682   2.7714
     2.7714   2.8283   2.8557   2.8766   2.8766   2.8915   2.8915   2.8939
     2.8994   2.8994   2.9003   2.9087   2.9087   2.9339   2.9339   2.9375
     2.9484   2.9635   2.9635   2.9667   2.9667   2.9677   2.9710   2.9795
     2.9795   2.9821   2.9875   2.9875   2.9943   3.0116   3.0116   3.0302
     3.0339   3.0479   3.0479   3.0646   3.0646   3.0854   3.1737   3.1737
     3.1989   3.3115   3.3115   3.3455   3.3492   3.3579   3.3579   3.3631
     3.3631   3.4224   3.4341   3.4341   3.4515   3.5086   3.5086   3.5134
     3.5185   3.5186   5.6814   6.1688   6.2552   6.2579   6.2579   6.2589
     6.2589   6.2735   6.3760   6.3760   6.3880   6.5164   6.5164   6.6683
     6.6683   6.7079   6.7086   6.7086   6.7282   6.7888   6.7949   6.8022
     6.8022   6.8069   6.8069   6.8942   6.8942   6.8960   6.8992   6.9003
     6.9003   6.9018   6.9018   6.9537   7.0108   7.0108   7.0234   7.0298
     7.0299   7.0487   7.0487   7.0515   7.0574   7.0574   7.0577   7.0791
     7.0791   7.0941   7.0987   7.1006   7.1006   7.2674   7.2675   7.2759
     7.2759   7.2759   7.2827   7.2827   7.2886   7.3015   7.3071   7.3224
     7.3224   7.3367   7.3669   7.3669   7.3690   7.3859   7.3859   7.3927
     7.4069   7.4069   7.4249   7.4456   7.4456   7.4525   7.4899   7.4899
     7.5150   7.5463   7.5463   7.5679   7.5679   7.5859   7.6400   7.7358
     7.7358   7.7531   7.7531   7.8681   7.9465   7.9791   7.9791   9.0191
     9.0197   9.0197   9.6140   9.6347   9.6347   9.6380   9.6380   9.6392
     9.6466   9.7126   9.7235   9.7235   9.9004   9.9004   9.9058   9.9058
     9.9136   9.9384   9.9750   9.9750  10.0308  10.0452  10.1147  10.1147
    10.1164  10.1164  10.1274  10.1285  10.1285  10.1298  10.2420  10.4294
    10.4429  10.4429  10.4960  10.5459  10.5459  10.6129  10.6316  10.6316
    10.6735  10.6835  10.6835  10.7691  10.7766  10.7766  10.7776  10.7776
    10.7781  10.8112  10.9859  10.9859  11.0433  11.0433  11.0520  11.0861
    11.0861  11.0866

     occupation numbers 
     1.0000   1.0000   1.0000   1.0000   1.0000   1.0000   1.0000   1.0000
     1.0000   1.0000   1.0000   1.0000   1.0000   1.0000   1.0000   1.0000
     1.0000   1.0000   1.0000   1.0000   1.0000   1.0000   1.0000   1.0000
     1.0000   1.0000   1.0000   1.0000   1.0000   1.0000   1.0000   1.0000
     1.0000   1.0000   1.0000   1.0000   1.0000   1.0000   1.0000   1.0000
     1.0000   1.0000   1.0000   1.0000   1.0000   1.0000   1.0000   1.0000
     1.0000   1.0000   1.0000   1.0000   1.0000   1.0000   1.0000   1.0000
     1.0000   1.0000   1.0000   1.0000   1.0000   1.0000   1.0000   1.0000
     1.0000   1.0000   1.0000   1.0000   1.0000   1.0000   1.0000   1.0000
     1.0000   1.0000   1.0000   1.0000   1.0000   1.0000   1.0000   1.0000
     1.0000   1.0000   1.0000   1.0000   1.0000   1.0000   1.0000   1.0000
     1.0000   1.0000   1.0000   1.0000   1.0000   1.0000   1.0000   1.0000
     1.0000   1.0000   1.0000   1.0000   1.0000   1.0000   1.0000   1.0000
     1.0000   1.0000   1.0000   1.0000   1.0000   1.0000   1.0000   1.0000
     1.0000   1.0000   1.0000   1.0000   1.0000   1.0000   1.0000   1.0000
     1.0000   1.0000   1.0000   1.0000   1.0000   1.0000   1.0000   1.0000
     1.0000   1.0000   1.0000   1.0000   1.0000   1.0000   1.0000   1.0000
     1.0000   1.0000   1.0000   1.0000   1.0000   1.0000   1.0000   1.0000
     1.0000   1.0000   1.0000   1.0000   1.0000   1.0000   1.0000   1.0000
     1.0000   1.0000   1.0000   1.0000   1.0000   1.0000   1.0000   1.0000
     1.0000   1.0000   1.0000   1.0000   1.0000   1.0000   1.0000   1.0000
     1.0000   1.0000   1.0000   1.0000   1.0000   1.0000   1.0000   1.0000
     1.0000   1.0000   1.0000   1.0000   1.0000   1.0000   1.0000   1.0000
     1.0000   1.0000   1.0000   1.0000   1.0000   1.0000   1.0000   1.0000
     1.0000   1.0000   1.0000   1.0000   1.0000   1.0000   1.0000   1.0000
     1.0000   1.0000   1.0000   1.0000   1.0000   1.0000   1.0000   1.0000
     1.0000   1.0000   1.0000   1.0000   1.0000   1.0000   1.0000   1.0000
     1.0000   1.0000   1.0000   1.0000   1.0000   1.0000   1.0000   1.0000
     1.0000   1.0000   1.0000   1.0000   1.0000   1.0000   1.0000   1.0000
     1.0000   1.0000   1.0000   1.0000   1.0000   1.0000   1.0000   1.0000
     1.0000   1.0000   1.0000   1.0000   1.0000   1.0000   1.0000   1.0000
     1.0000   1.0000   1.0000   1.0000   1.0000   1.0000   1.0000   1.0000
     1.0000   1.0000   1.0000   1.0000   1.0000   1.0000   1.0000   1.0000
     1.0000   1.0000   1.0000   1.0000   1.0000   1.0000   1.0000   1.0000
     1.0000   1.0000   1.0000   1.0000   1.0000   1.0000   1.0000   1.0000
     1.0000   1.0000   1.0000   1.0000   1.0000   1.0000   1.0000   1.0000
     1.0000   1.0000   1.0000   1.0000   1.0000   1.0000   1.0000   1.0000
     1.0000   1.0000   1.0000   1.0000   1.0000   1.0000   1.0000   1.0000
     1.0000   1.0000   1.0000   1.0000   1.0000   1.0000   1.0000   1.0000
     1.0000   1.0000   1.0000   1.0000   1.0000   1.0000   1.0000   1.0000
     1.0000   1.0000   1.0000   1.0000   1.0000   1.0000   1.0000   1.0000
     1.0000   1.0000   1.0000   1.0000   1.0000   1.0000   1.0000   1.0000
     1.0000   1.0000   1.0000   1.0000   1.0000   1.0000   1.0000   1.0000
     1.0000   1.0000   1.0000   1.0000   1.0000   1.0000   1.0000   1.0000
     1.0000   1.0000   1.0000   1.0000   1.0000   1.0000   1.0000   1.0000
     1.0000   1.0000   1.0000   1.0000   1.0000   1.0000   1.0000   1.0000
     1.0000   1.0000   1.0000   1.0000   1.0000   1.0000   1.0000   1.0000
     1.0000   1.0000   1.0000   1.0000   1.0000   1.0000   1.0000   1.0000
     1.0000   1.0000   1.0000   1.0000   1.0000   1.0000   1.0000   1.0000
     1.0000   1.0000   1.0000   1.0000   1.0000   1.0000   1.0000   1.0000
     1.0000   1.0000   1.0000   1.0000   1.0000   1.0000   1.0000   1.0000
     1.0000   1.0000   1.0000   1.0000   1.0000   1.0000   1.0000   1.0000
     1.0000   1.0000   1.0000   1.0000   1.0000   1.0000   1.0000   1.0000
     1.0000   1.0000   1.0000   1.0000   1.0000   1.0000   1.0000   1.0000
     1.0000   1.0000   1.0000   1.0000   1.0000   1.0000   1.0000   1.0000
     1.0000   1.0000   1.0000   1.0000   1.0000   1.0000   1.0000   1.0000
     1.0000   1.0000   1.0000   1.0000   1.0000   1.0000   1.0000   1.0000
     1.0000   1.0000   1.0000   1.0000   1.0000   1.0000   1.0000   1.0000
     1.0000   1.0000   1.0000   1.0000   1.0000   1.0000   1.0000   1.0000
     1.0000   1.0000   1.0000   1.0000   1.0000   1.0000   1.0000   1.0000
     1.0000   1.0000   1.0000   1.0000   1.0000   1.0000   1.0000   1.0000
     1.0000   1.0000   1.0000   1.0000   1.0000   1.0000   1.0000   1.0000
     1.0000   1.0000   1.0000   1.0000   1.0000   1.0000   1.0000   1.0000
     1.0000   1.0000   1.0000   1.0000   1.0000   1.0000   1.0000   1.0000
     1.0000   1.0000   1.0000   1.0000   1.0000   1.0000   1.0000   1.0000
     1.0000   1.0000   1.0000   1.0000   1.0000   1.0000   1.0000   1.0000
     1.0000   1.0000   1.0000   1.0000   1.0000   1.0000   1.0000   1.0000
     1.0000   1.0000   1.0000   1.0000   1.0000   1.0000   1.0000   1.0000
     1.0000   1.0000   1.0000   1.0000   1.0000   1.0000   1.0000   1.0000
     1.0000   1.0000   1.0000   1.0000   1.0000   1.0000   1.0000   1.0000
     1.0000   1.0000   1.0000   1.0000   1.0000   1.0000   1.0000   1.0000
     1.0000   1.0000   1.0000   1.0000   1.0000   1.0000   1.0000   1.0000
     1.0000   1.0000   1.0000   1.0000   1.0000   1.0000   1.0000   1.0000
     1.0000   1.0000   1.0000   1.0000   1.0000   1.0000   1.0000   1.0000
     1.0000   1.0000   1.0000   1.0000   1.0000   1.0000   1.0000   1.0000
     1.0000   1.0000   1.0000   1.0000   1.0000   1.0000   1.0000   1.0000
     1.0000   1.0000   1.0000   1.0000   1.0000   1.0000   1.0000   1.0000
     1.0000   1.0000   1.0000   1.0000   1.0000   1.0000   1.0000   1.0000
     1.0000   1.0000   1.0000   1.0000   1.0000   1.0000   1.0000   1.0000
     1.0000   1.0000   1.0000   1.0000   1.0000   1.0000   1.0000   1.0000
     1.0000   1.0000   1.0000   1.0000   1.0000   1.0000   1.0000   1.0000
     1.0000   1.0000   1.0000   1.0000   1.0000   1.0000   1.0000   1.0000
     1.0000   1.0000   1.0000   1.0000   1.0000   1.0000   1.0000   1.0000
     1.0000   1.0000   1.0000   1.0000   1.0000   1.0000   1.0000   1.0000
     1.0000   1.0000   1.0000   1.0000   1.0000   1.0000   1.0000   1.0000
     1.0000   1.0000   1.0000   1.0000   1.0000   1.0000   1.0000   1.0000
     1.0000   1.0000   1.0000   1.0000   1.0000   1.0000   1.0000   1.0000
     1.0000   1.0000   1.0000   1.0000   1.0000   1.0000   1.0000   1.0000
     1.0000   1.0000   1.0000   1.0000   1.0000   1.0000   1.0000   1.0000
     1.0000   1.0000   1.0000   1.0000   1.0000   1.0000   1.0000   1.0000
     1.0000   1.0000   1.0000   1.0000   1.0000   1.0000   1.0000   1.0000
     1.0000   1.0000   1.0000   1.0000   1.0000   1.0000   1.0000   1.0000
     1.0000   1.0000   1.0000   1.0000   1.0000   1.0000   1.0000   1.0000
     1.0000   1.0000   1.0000   1.0000   1.0000   1.0000   1.0000   1.0000
     1.0000   1.0000   1.0000   1.0000   1.0000   1.0000   1.0000   1.0000
     1.0000   1.0000   0.0000   0.0000   0.0000   0.0000   0.0000   0.0000
     0.0000   0.0000   0.0000   0.0000   0.0000   0.0000   0.0000   0.0000
     0.0000   0.0000   0.0000   0.0000   0.0000   0.0000   0.0000   0.0000
     0.0000   0.0000   0.0000   0.0000   0.0000   0.0000   0.0000   0.0000
     0.0000   0.0000   0.0000   0.0000   0.0000   0.0000   0.0000   0.0000
     0.0000   0.0000   0.0000   0.0000   0.0000   0.0000   0.0000   0.0000
     0.0000   0.0000   0.0000   0.0000   0.0000   0.0000   0.0000   0.0000
     0.0000   0.0000   0.0000   0.0000   0.0000   0.0000   0.0000   0.0000
     0.0000   0.0000   0.0000   0.0000   0.0000   0.0000   0.0000   0.0000
     0.0000   0.0000   0.0000   0.0000   0.0000   0.0000   0.0000   0.0000
     0.0000   0.0000   0.0000   0.0000   0.0000   0.0000   0.0000   0.0000
     0.0000   0.0000   0.0000   0.0000   0.0000   0.0000   0.0000   0.0000
     0.0000   0.0000   0.0000   0.0000   0.0000   0.0000   0.0000   0.0000
     0.0000   0.0000   0.0000   0.0000   0.0000   0.0000   0.0000   0.0000
     0.0000   0.0000   0.0000   0.0000   0.0000   0.0000   0.0000   0.0000
     0.0000   0.0000   0.0000   0.0000   0.0000   0.0000   0.0000   0.0000
     0.0000   0.0000   0.0000   0.0000   0.0000   0.0000   0.0000   0.0000
     0.0000   0.0000   0.0000   0.0000   0.0000   0.0000   0.0000   0.0000
     0.0000   0.0000   0.0000   0.0000   0.0000   0.0000   0.0000   0.0000
     0.0000   0.0000

     the Fermi energy is     4.7266 ev

!    total energy              =  -63859.16669771 Ry
     total all-electron energy =  -2207179.732360 Ry
     estimated scf accuracy    <       0.00000007 Ry
     smearing contrib. (-TS)   =      -0.00000000 Ry
     internal energy E=F+TS    =  -63859.16669771 Ry

     The total energy is F=E-TS. E is the sum of the following terms:
     one-electron contribution =  -11970.74789686 Ry
     hartree contribution      =    6672.01679850 Ry
     xc contribution           =   -4504.16556480 Ry
     ewald contribution        =   -9750.87061499 Ry
     one-center paw contrib.   =  -44305.39941956 Ry
      -> PAW hartree energy AE =      96.00102447 Ry
      -> PAW hartree energy PS =     -96.23862858 Ry
      -> PAW xc energy AE      =    -798.43841312 Ry
      -> PAW xc energy PS      =      33.31773636 Ry
      -> total E_H with PAW    =    6671.77919439 Ry
      -> total E_XC with PAW   =   -5269.28624156 Ry

     convergence has been achieved in   1 iterations


     -----------------------------------------------
     Non-local corr. energy    =      45.78102069 Ry
     -----------------------------------------------


     Forces acting on atoms (cartesian axes, Ry/au):

     atom    1 type  1   force =    -0.00000102    0.00000023   -0.00000775
     atom    2 type  1   force =     0.00001443   -0.00002768    0.00000850
     atom    3 type  1   force =    -0.00012267    0.00020939   -0.00000620
     atom    4 type  1   force =     0.00000019   -0.00000084    0.00000575
     atom    5 type  1   force =    -0.00000035    0.00000081   -0.00000656
     atom    6 type  1   force =    -0.00001440    0.00002362    0.00000906
     atom    7 type  1   force =     0.00012070   -0.00021066   -0.00000736
     atom    8 type  1   force =    -0.00003004   -0.00000002    0.00000939
     atom    9 type  1   force =     0.00024330    0.00000033   -0.00000806
     atom   10 type  1   force =    -0.00001498   -0.00002622    0.00000849
     atom   11 type  1   force =     0.00012098    0.00021193   -0.00000728
     atom   12 type  1   force =     0.00000010    0.00026508    0.00010367
     atom   13 type  1   force =     0.00000037    0.00013661    0.00017582
     atom   14 type  1   force =     0.00022953   -0.00013132    0.00010329
     atom   15 type  1   force =     0.00011803   -0.00006666    0.00017678
     atom   16 type  1   force =     0.00000050    0.00000037    0.00000727
     atom   17 type  1   force =     0.00000052    0.00000131   -0.00000639
     atom   18 type  1   force =     0.00022905    0.00013323   -0.00009071
     atom   19 type  1   force =     0.00011780    0.00006911   -0.00018908
     atom   20 type  1   force =    -0.00000076    0.00000031    0.00000643
     atom   21 type  1   force =     0.00000077    0.00000195   -0.00000750
     atom   22 type  1   force =    -0.00022906   -0.00013148    0.00010423
     atom   23 type  1   force =    -0.00011637   -0.00006645    0.00017646
     atom   24 type  1   force =     0.00002787    0.00000064    0.00000667
     atom   25 type  1   force =    -0.00024337    0.00000077   -0.00000654
     atom   26 type  1   force =    -0.00022949    0.00013209   -0.00009173
     atom   27 type  1   force =    -0.00011793    0.00006925   -0.00018926
     atom   28 type  1   force =    -0.00000065   -0.00026383   -0.00009101
     atom   29 type  1   force =     0.00000025   -0.00013359   -0.00019061
     atom   30 type  1   force =     0.00001345    0.00002355    0.00000760
     atom   31 type  1   force =    -0.00012089   -0.00020950   -0.00000682
     atom   32 type  2   force =     0.00000199    0.00012389    0.00005003
     atom   33 type  2   force =     0.00000189    0.00053025   -0.00085522
     atom   34 type  2   force =     0.00010175   -0.00006116    0.00005274
     atom   35 type  2   force =     0.00046676   -0.00027248   -0.00085397
     atom   36 type  2   force =     0.00021294   -0.00002076    0.00013393
     atom   37 type  2   force =     0.00014403   -0.00020862    0.00000137
     atom   38 type  2   force =     0.00008841    0.00019220    0.00012927
     atom   39 type  2   force =    -0.00010755    0.00022420   -0.00000184
     atom   40 type  2   force =    -0.00001962    0.00001218    0.00013749
     atom   41 type  2   force =    -0.00056631    0.00032676   -0.00011029
     atom   42 type  2   force =    -0.00010540   -0.00006197    0.00005130
     atom   43 type  2   force =    -0.00046626   -0.00027253   -0.00085476
     atom   44 type  2   force =     0.00000059   -0.00002064    0.00013848
     atom   45 type  2   force =    -0.00000125   -0.00065144   -0.00010961
     atom   46 type  2   force =     0.00006844    0.00004219    0.00018526
     atom   47 type  2   force =    -0.00012617   -0.00007022    0.00010253
     atom   48 type  2   force =    -0.00000148   -0.00008045    0.00018546
     atom   49 type  2   force =    -0.00000005    0.00014288    0.00010507
     atom   50 type  2   force =    -0.00012502   -0.00017715    0.00014015
     atom   51 type  2   force =    -0.00024936   -0.00002424    0.00000025
     atom   52 type  2   force =    -0.00021305   -0.00001749    0.00013345
     atom   53 type  2   force =    -0.00014564   -0.00020260   -0.00000240
     atom   54 type  2   force =    -0.00007133    0.00004187    0.00018255
     atom   55 type  2   force =     0.00012370   -0.00006771    0.00010598
     atom   56 type  2   force =     0.00001975    0.00001275    0.00014233
     atom   57 type  2   force =     0.00056739    0.00032573   -0.00011155
     atom   58 type  2   force =     0.00012096   -0.00017740    0.00013297
     atom   59 type  2   force =     0.00025092   -0.00002541    0.00000256
     atom   60 type  2   force =     0.00000159    0.00000083    0.00011521
     atom   61 type  2   force =     0.00000265   -0.00000086    0.00040743
     atom   62 type  2   force =    -0.00008837    0.00019658    0.00013042
     atom   63 type  2   force =     0.00010273    0.00022720    0.00000058
     atom   64 type  2   force =     0.00046335    0.00026383    0.00077497
     atom   65 type  2   force =     0.00010301    0.00006832    0.00002754
     atom   66 type  2   force =     0.00056824   -0.00032564    0.00004209
     atom   67 type  2   force =     0.00001913   -0.00001057   -0.00007009
     atom   68 type  2   force =     0.00012745    0.00006957   -0.00017445
     atom   69 type  2   force =    -0.00006589   -0.00003934   -0.00011335
     atom   70 type  2   force =    -0.00000136    0.00065463    0.00003875
     atom   71 type  2   force =    -0.00000365    0.00002875   -0.00006959
     atom   72 type  2   force =    -0.00047117    0.00026669    0.00078049
     atom   73 type  2   force =    -0.00010657    0.00005901    0.00002331
     atom   74 type  2   force =     0.00000223   -0.00054304    0.00077700
     atom   75 type  2   force =    -0.00000274   -0.00012175    0.00002144
     atom   76 type  2   force =     0.00010519   -0.00022872   -0.00007154
     atom   77 type  2   force =    -0.00008832   -0.00019080   -0.00006467
     atom   78 type  2   force =    -0.00013584    0.00020181   -0.00007276
     atom   79 type  2   force =    -0.00020766    0.00001725   -0.00005921
     atom   80 type  2   force =    -0.00024416    0.00001270   -0.00006781
     atom   81 type  2   force =    -0.00012055    0.00017177   -0.00006341
     atom   82 type  2   force =    -0.00056832   -0.00032704    0.00004232
     atom   83 type  2   force =    -0.00001879   -0.00001056   -0.00006660
     atom   84 type  2   force =    -0.00011073   -0.00022621   -0.00007061
     atom   85 type  2   force =     0.00008326   -0.00019453   -0.00006385
     atom   86 type  2   force =     0.00000244    0.00000371   -0.00048066
     atom   87 type  2   force =     0.00000428    0.00000590   -0.00004293
     atom   88 type  2   force =     0.00024871    0.00001737   -0.00006969
     atom   89 type  2   force =     0.00012718    0.00017203   -0.00005794
     atom   90 type  2   force =     0.00000344   -0.00014000   -0.00017480
     atom   91 type  2   force =     0.00000136    0.00007989   -0.00011617
     atom   92 type  2   force =    -0.00012407    0.00007447   -0.00017778
     atom   93 type  2   force =     0.00007169   -0.00003654   -0.00011331
     atom   94 type  2   force =     0.00014339    0.00020347   -0.00007174
     atom   95 type  2   force =     0.00020996    0.00002487   -0.00005868
     The non-local contrib.  to forces
     atom    1 type  1   force =     0.00000610   -0.00002436   -0.00000410
     atom    2 type  1   force =     0.04977597   -0.08621512    0.00001664
     atom    3 type  1   force =     0.00112952   -0.00197035   -0.00000664
     atom    4 type  1   force =    -0.00000434   -0.00000983    0.00000337
     atom    5 type  1   force =     0.00000342   -0.00002203    0.00000018
     atom    6 type  1   force =    -0.04978019    0.08621785    0.00001564
     atom    7 type  1   force =    -0.00112011    0.00192153   -0.00000637
     atom    8 type  1   force =    -0.09954822   -0.00001972   -0.00002079
     atom    9 type  1   force =    -0.00224452   -0.00002555   -0.00000069
     atom   10 type  1   force =    -0.04974927   -0.08622153    0.00000828
     atom   11 type  1   force =    -0.00112200   -0.00197402   -0.00000178
     atom   12 type  1   force =     0.00000759   -0.01797373    0.01992492
     atom   13 type  1   force =     0.00000006   -0.00213318   -0.00289638
     atom   14 type  1   force =    -0.01553456    0.00895268    0.01993446
     atom   15 type  1   force =    -0.00182431    0.00102677   -0.00289885
     atom   16 type  1   force =     0.00000445   -0.00003829    0.00000228
     atom   17 type  1   force =     0.00000572   -0.00002699    0.00000015
     atom   18 type  1   force =    -0.01553581   -0.00899893   -0.01991254
     atom   19 type  1   force =    -0.00182443   -0.00108007    0.00288893
     atom   20 type  1   force =     0.00002133   -0.00001549    0.00000497
     atom   21 type  1   force =     0.00000422   -0.00002477    0.00000183
     atom   22 type  1   force =     0.01555063    0.00895217    0.01993308
     atom   23 type  1   force =     0.00182748    0.00102641   -0.00290242
     atom   24 type  1   force =     0.09955407   -0.00002693   -0.00001593
     atom   25 type  1   force =     0.00225372   -0.00002694   -0.00000357
     atom   26 type  1   force =     0.01555296   -0.00899801   -0.01990816
     atom   27 type  1   force =     0.00182980   -0.00107989    0.00288789
     atom   28 type  1   force =     0.00000598    0.01792158   -0.01992268
     atom   29 type  1   force =     0.00000360    0.00208080    0.00289539
     atom   30 type  1   force =     0.04979581    0.08621037    0.00001853
     atom   31 type  1   force =     0.00112765    0.00191876   -0.00000353
     atom   32 type  2   force =     0.00001358   -0.00199156    0.26056401
     atom   33 type  2   force =     0.00000863   -0.14538480    0.19400970
     atom   34 type  2   force =    -0.00172857    0.00101632    0.26056230
     atom   35 type  2   force =    -0.12590089    0.07269961    0.19399815
     atom   36 type  2   force =    -0.00056699    0.00025035    0.25505027
     atom   37 type  2   force =    -0.03433061    0.00898954    0.21765265
     atom   38 type  2   force =    -0.00008129   -0.00060515    0.25504263
     atom   39 type  2   force =    -0.00938823   -0.03422035    0.21765033
     atom   40 type  2   force =     0.00339117   -0.00196991    0.26413536
     atom   41 type  2   force =    -0.00532728    0.00306642    0.23203442
     atom   42 type  2   force =     0.00172009    0.00100784    0.26056212
     atom   43 type  2   force =     0.12588362    0.07268626    0.19401127
     atom   44 type  2   force =    -0.00000852    0.00394096    0.26413500
     atom   45 type  2   force =    -0.00000907   -0.00612384    0.23203122
     atom   46 type  2   force =     0.00083770    0.00049738    0.25901411
     atom   47 type  2   force =    -0.00815705   -0.00469525    0.22524181
     atom   48 type  2   force =    -0.00000903   -0.00098807    0.25901606
     atom   49 type  2   force =    -0.00001114    0.00940182    0.22524914
     atom   50 type  2   force =     0.00047365    0.00039010    0.25505940
     atom   51 type  2   force =     0.02493112    0.02526119    0.21765013
     atom   52 type  2   force =     0.00056725    0.00024902    0.25504909
     atom   53 type  2   force =     0.03431906    0.00899462    0.21764546
     atom   54 type  2   force =    -0.00085865    0.00049786    0.25900665
     atom   55 type  2   force =     0.00813384   -0.00469233    0.22524654
     atom   56 type  2   force =    -0.00339415   -0.00196188    0.26414354
     atom   57 type  2   force =     0.00532528    0.00306652    0.23202966
     atom   58 type  2   force =    -0.00048855    0.00039464    0.25504475
     atom   59 type  2   force =    -0.02493887    0.02526374    0.21765289
     atom   60 type  2   force =     0.00000544    0.00002338    0.25277011
     atom   61 type  2   force =     0.00000224    0.00001448    0.22645403
     atom   62 type  2   force =     0.00009244   -0.00059684    0.25504313
     atom   63 type  2   force =     0.00938407   -0.03421657    0.21765274
     atom   64 type  2   force =    -0.12589733   -0.07267660   -0.19408560
     atom   65 type  2   force =    -0.00174242   -0.00096545   -0.26049719
     atom   66 type  2   force =     0.00531115   -0.00307106   -0.23208678
     atom   67 type  2   force =    -0.00340969    0.00196240   -0.26408162
     atom   68 type  2   force =     0.00813309    0.00469316   -0.22530012
     atom   69 type  2   force =    -0.00085369   -0.00049050   -0.25895612
     atom   70 type  2   force =    -0.00001431    0.00615396   -0.23209655
     atom   71 type  2   force =    -0.00001659   -0.00390521   -0.26408311
     atom   72 type  2   force =     0.12588373   -0.07267446   -0.19406680
     atom   73 type  2   force =     0.00173136   -0.00097534   -0.26050532
     atom   74 type  2   force =     0.00000275    0.14536441   -0.19406759
     atom   75 type  2   force =     0.00000405    0.00200040   -0.26050592
     atom   76 type  2   force =     0.00939968    0.03422003   -0.21770820
     atom   77 type  2   force =     0.00009113    0.00061981   -0.25499709
     atom   78 type  2   force =     0.03434965   -0.00896572   -0.21771449
     atom   79 type  2   force =     0.00058192   -0.00022082   -0.25498612
     atom   80 type  2   force =     0.02495120   -0.02523367   -0.21770806
     atom   81 type  2   force =     0.00049365   -0.00035524   -0.25500037
     atom   82 type  2   force =    -0.00531949   -0.00306852   -0.23208813
     atom   83 type  2   force =     0.00340620    0.00196888   -0.26408059
     atom   84 type  2   force =    -0.00940414    0.03422617   -0.21770831
     atom   85 type  2   force =    -0.00008702    0.00061093   -0.25499693
     atom   86 type  2   force =     0.00000922    0.00002155   -0.22652317
     atom   87 type  2   force =     0.00001363    0.00002727   -0.25271567
     atom   88 type  2   force =    -0.02495038   -0.02523277   -0.21770786
     atom   89 type  2   force =    -0.00048644   -0.00036013   -0.25498883
     atom   90 type  2   force =     0.00000016   -0.00938836   -0.22529901
     atom   91 type  2   force =    -0.00000457    0.00097827   -0.25896005
     atom   92 type  2   force =    -0.00814556    0.00470570   -0.22530630
     atom   93 type  2   force =     0.00084797   -0.00048470   -0.25895486
     atom   94 type  2   force =    -0.03434003   -0.00896828   -0.21771057
     atom   95 type  2   force =    -0.00057777   -0.00021468   -0.25498752
     The ionic contribution  to forces
     atom    1 type  1   force =    -0.00020874    0.00079803    0.00028978
     atom    2 type  1   force =     0.79445543   -1.37629232   -0.00088192
     atom    3 type  1   force =     0.41100364   -0.71187754   -0.00027467
     atom    4 type  1   force =     0.00018988   -0.00010775   -0.00100605
     atom    5 type  1   force =    -0.00027800    0.00006276   -0.00110329
     atom    6 type  1   force =    -0.79430619    1.37575371   -0.00106349
     atom    7 type  1   force =    -0.41149867    0.71257089   -0.00058249
     atom    8 type  1   force =    -1.58929724    0.00086842    0.00184704
     atom    9 type  1   force =    -0.82251106    0.00087160    0.00037649
     atom   10 type  1   force =    -0.79556634   -1.37618810    0.00009827
     atom   11 type  1   force =    -0.41130859   -0.71167076   -0.00016517
     atom   12 type  1   force =    -0.00018135   -0.54282014   -0.47544854
     atom   13 type  1   force =    -0.00000446   -0.33325163    0.13400396
     atom   14 type  1   force =    -0.47071623    0.27157129   -0.47580245
     atom   15 type  1   force =    -0.28887834    0.16708770    0.13427459
     atom   16 type  1   force =     0.00010860    0.00190362    0.00094161
     atom   17 type  1   force =    -0.00001502    0.00114711    0.00092247
     atom   18 type  1   force =    -0.46998996   -0.27101345    0.47543739
     atom   19 type  1   force =    -0.28854347   -0.16604119   -0.13430330
     atom   20 type  1   force =    -0.00056187    0.00014133   -0.00026398
     atom   21 type  1   force =     0.00010541    0.00019990   -0.00030265
     atom   22 type  1   force =     0.47044469    0.27160960   -0.47542906
     atom   23 type  1   force =     0.28888941    0.16711363    0.13490831
     atom   24 type  1   force =     1.58907355    0.00142275    0.00118082
     atom   25 type  1   force =     0.82238142    0.00098368    0.00101064
     atom   26 type  1   force =     0.46994990   -0.27121641    0.47490263
     atom   27 type  1   force =     0.28853356   -0.16608023   -0.13429839
     atom   28 type  1   force =    -0.00010812    0.54335101    0.47517768
     atom   29 type  1   force =    -0.00006700    0.33358895   -0.13516617
     atom   30 type  1   force =     0.79390943    1.37583601   -0.00102219
     atom   31 type  1   force =     0.41126014    0.71261873    0.00013338
     atom   32 type  2   force =     0.00001896    1.52077772  -16.33616877
     atom   33 type  2   force =    -0.00007777    9.74071399  -10.09698200
     atom   34 type  2   force =     1.31700820   -0.76061288  -16.33663114
     atom   35 type  2   force =     8.43548430   -4.86978435  -10.09669820
     atom   36 type  2   force =     0.49727104   -0.51782028  -14.97091971
     atom   37 type  2   force =     2.00904257   -0.99600785  -13.21292501
     atom   38 type  2   force =    -0.19959590    0.68888679  -14.97064208
     atom   39 type  2   force =     0.14271333    2.23784436  -13.21272803
     atom   40 type  2   force =    -1.10744844    0.63938492  -15.24134024
     atom   41 type  2   force =    -1.84775809    1.06588025  -13.26569837
     atom   42 type  2   force =    -1.31692871   -0.76062962  -16.33714282
     atom   43 type  2   force =    -8.43630640   -4.87010211  -10.09654745
     atom   44 type  2   force =     0.00014863   -1.27921025  -15.24152346
     atom   45 type  2   force =    -0.00020022   -2.13390528  -13.26537044
     atom   46 type  2   force =    -0.17230128   -0.10009236  -14.63068685
     atom   47 type  2   force =     0.04201746    0.02376287  -13.77250952
     atom   48 type  2   force =     0.00016807    0.19901143  -14.63058604
     atom   49 type  2   force =     0.00052818   -0.04882848  -13.77331441
     atom   50 type  2   force =    -0.69661591   -0.17209674  -14.97178235
     atom   51 type  2   force =    -1.86539779   -1.24191836  -13.21307773
     atom   52 type  2   force =    -0.49720461   -0.51771763  -14.97134224
     atom   53 type  2   force =    -2.00874022   -0.99509231  -13.21293203
     atom   54 type  2   force =     0.17255549   -0.10002614  -14.63069472
     atom   55 type  2   force =    -0.04159677    0.02416383  -13.77262604
     atom   56 type  2   force =     1.10736186    0.63923610  -15.24093902
     atom   57 type  2   force =     1.84773794    1.06610187  -13.26618725
     atom   58 type  2   force =     0.69680029   -0.17217004  -14.97157319
     atom   59 type  2   force =     1.86639641   -1.24178533  -13.21334888
     atom   60 type  2   force =     0.00005466   -0.00040207  -14.82971461
     atom   61 type  2   force =     0.00035843   -0.00105895  -13.47657093
     atom   62 type  2   force =     0.19953345    0.68890116  -14.97078825
     atom   63 type  2   force =    -0.14283771    2.23811350  -13.21306600
     atom   64 type  2   force =     8.43532356    4.87101617   10.09624841
     atom   65 type  2   force =     1.31733156    0.76001911   16.33699008
     atom   66 type  2   force =     1.84727157   -1.06688909   13.26524311
     atom   67 type  2   force =     1.10751840   -0.63942028   15.24169581
     atom   68 type  2   force =    -0.04207825   -0.02470905   13.77300284
     atom   69 type  2   force =     0.17221715    0.09899394   14.63044293
     atom   70 type  2   force =     0.00028610    2.13219931   13.26542286
     atom   71 type  2   force =     0.00005752    1.27824538   15.24143581
     atom   72 type  2   force =    -8.43558678    4.87116996   10.09649115
     atom   73 type  2   force =    -1.31771567    0.75963521   16.33687174
     atom   74 type  2   force =     0.00020365   -9.74043771   10.09649081
     atom   75 type  2   force =    -0.00058417   -1.52119921   16.33701088
     atom   76 type  2   force =    -0.14299091   -2.23750171   13.21346296
     atom   77 type  2   force =     0.19883297   -0.69008698   14.97161856
     atom   78 type  2   force =    -2.00952799    0.99434909   13.21335904
     atom   79 type  2   force =    -0.49803782    0.51673234   14.97173174
     atom   80 type  2   force =    -1.86697884    1.24314180   13.21324116
     atom   81 type  2   force =    -0.69681574    0.17184688   14.97095183
     atom   82 type  2   force =    -1.84723958   -1.06705678   13.26586322
     atom   83 type  2   force =    -1.10717655   -0.63929035   15.24088332
     atom   84 type  2   force =     0.14277960   -2.23754304   13.21331224
     atom   85 type  2   force =    -0.19925511   -0.68976138   14.97122260
     atom   86 type  2   force =     0.00005478   -0.00119830   13.47694874
     atom   87 type  2   force =     0.00006162   -0.00046829   14.83008704
     atom   88 type  2   force =     1.86694581    1.24324082   13.21283881
     atom   89 type  2   force =     0.69743068    0.17208935   14.97120655
     atom   90 type  2   force =     0.00026824    0.04866160   13.77245800
     atom   91 type  2   force =     0.00053714   -0.19850011   14.63054907
     atom   92 type  2   force =     0.04254955   -0.02468411   13.77290960
     atom   93 type  2   force =    -0.17165330    0.09929183   14.63023406
     atom   94 type  2   force =     2.00941974    0.99439373   13.21280035
     atom   95 type  2   force =     0.49809726    0.51726085   14.97164122
     The local contribution  to forces
     atom    1 type  1   force =     0.00020337   -0.00077562   -0.00044806
     atom    2 type  1   force =    -0.84334587    1.46095938    0.00101535
     atom    3 type  1   force =    -0.41225411    0.71405091    0.00012549
     atom    4 type  1   force =    -0.00019493    0.00011741    0.00114657
     atom    5 type  1   force =     0.00026589   -0.00003841    0.00094993
     atom    6 type  1   force =     0.84318828   -1.46043383    0.00119963
     atom    7 type  1   force =     0.41273297   -0.71469794    0.00043252
     atom    8 type  1   force =     1.68706236   -0.00083991   -0.00167401
     atom    9 type  1   force =     0.82498878   -0.00084317   -0.00053251
     atom   10 type  1   force =     0.84443489    1.46086314    0.00004350
     atom   11 type  1   force =     0.41255293    0.71384940    0.00000980
     atom   12 type  1   force =     0.00017414    0.56082578    0.45596442
     atom   13 type  1   force =     0.00000598    0.33555597   -0.13092029
     atom   14 type  1   force =     0.48627294   -0.28053417    0.45630738
     atom   15 type  1   force =     0.29084461   -0.16819442   -0.13118616
     atom   16 type  1   force =    -0.00011576   -0.00185689   -0.00079671
     atom   17 type  1   force =     0.00000845   -0.00111159   -0.00107513
     atom   18 type  1   force =     0.48555092    0.28003192   -0.45567157
     atom   19 type  1   force =     0.29051568    0.16721282    0.13091787
     atom   20 type  1   force =     0.00054741   -0.00012819    0.00040550
     atom   21 type  1   force =    -0.00010137   -0.00017366    0.00014733
     atom   22 type  1   force =    -0.48601871   -0.28057400    0.45593754
     atom   23 type  1   force =    -0.29085895   -0.16822171   -0.13181967
     atom   24 type  1   force =    -1.68684753   -0.00138709   -0.00101755
     atom   25 type  1   force =    -0.82487020   -0.00095314   -0.00116347
     atom   26 type  1   force =    -0.48553364    0.28023327   -0.45514239
     atom   27 type  1   force =    -0.29051511    0.16725152    0.13091382
     atom   28 type  1   force =     0.00010146   -0.56130129   -0.45540230
     atom   29 type  1   force =     0.00006220   -0.33583569    0.13177340
     atom   30 type  1   force =    -0.84280649   -1.46050949    0.00115377
     atom   31 type  1   force =    -0.41250074   -0.71474124   -0.00028661
     atom   32 type  2   force =    -0.00003538   -1.51866224   16.08097420
     atom   33 type  2   force =     0.00006834   -9.59790243    9.90631736
     atom   34 type  2   force =    -1.31516715    0.75953096   16.08143553
     atom   35 type  2   force =    -8.31181311    4.79837082    9.90604949
     atom   36 type  2   force =    -0.49661940    0.51753009   14.72115223
     atom   37 type  2   force =    -1.97531047    0.98705502   13.00012893
     atom   38 type  2   force =     0.19968151   -0.68818136   14.72088550
     atom   39 type  2   force =    -0.13359341   -2.20415950   12.99993594
     atom   40 type  2   force =     1.10406381   -0.63741789   14.98271733
     atom   41 type  2   force =     1.85244458   -1.06857837   13.03881128
     atom   42 type  2   force =     1.31509781    0.75955775   16.08194556
     atom   43 type  2   force =     8.31265069    4.79870284    9.90588659
     atom   44 type  2   force =    -0.00013943    1.27527731   14.98289847
     atom   45 type  2   force =     0.00021052    2.13928956   13.03848975
     atom   46 type  2   force =     0.17151156    0.09962197   14.37725266
     atom   47 type  2   force =    -0.03407429   -0.01919221   13.55230699
     atom   48 type  2   force =    -0.00015774   -0.19807742   14.37714799
     atom   49 type  2   force =    -0.00051639    0.03967385   13.55310156
     atom   50 type  2   force =     0.69606219    0.17165807   14.72199799
     atom   51 type  2   force =     1.84079522    1.21715847   13.00028552
     atom   52 type  2   force =     0.49655260    0.51742621   14.72157401
     atom   53 type  2   force =     1.97502375    0.98613159   13.00014657
     atom   54 type  2   force =    -0.17174129    0.09955533   14.37727134
     atom   55 type  2   force =     0.03367835   -0.01959811   13.55241682
     atom   56 type  2   force =    -1.10397423   -0.63727878   14.98230214
     atom   57 type  2   force =    -1.85242430   -1.06879952   13.03930543
     atom   58 type  2   force =    -0.69623111    0.17172499   14.72180795
     atom   59 type  2   force =    -1.84178695    1.21702498   13.00055020
     atom   60 type  2   force =    -0.00006286    0.00038270   14.58210332
     atom   61 type  2   force =    -0.00036282    0.00104730   13.25568534
     atom   62 type  2   force =    -0.19963106   -0.68820934   14.72103047
     atom   63 type  2   force =     0.13372607   -2.20443373   13.00026922
     atom   64 type  2   force =    -8.31164656   -4.79962197   -9.90535142
     atom   65 type  2   force =    -1.31547525   -0.75899799  -16.08202011
     atom   66 type  2   force =    -1.85194836    1.06959175  -13.03815379
     atom   67 type  2   force =    -1.10412039    0.63746313  -14.98327689
     atom   68 type  2   force =     0.03415204    0.02014005  -13.55259243
     atom   69 type  2   force =    -0.17142041   -0.09853211  -14.37722104
     atom   70 type  2   force =    -0.00026883   -2.13762066  -13.03832137
     atom   71 type  2   force =    -0.00003815   -1.27435765  -14.98301496
     atom   72 type  2   force =     8.31193436   -4.79978223   -9.90561700
     atom   73 type  2   force =     1.31587299   -0.75859982  -16.08189189
     atom   74 type  2   force =    -0.00020584    9.59763930   -9.90561687
     atom   75 type  2   force =     0.00058083    1.51906962  -16.08202670
     atom   76 type  2   force =     0.13385458    2.20381217  -13.00045889
     atom   77 type  2   force =    -0.19893781    0.68936749  -14.72205276
     atom   78 type  2   force =     1.97576133   -0.98542053  -13.00034709
     atom   79 type  2   force =     0.49735803   -0.51646925  -14.72218169
     atom   80 type  2   force =     1.84234919   -1.21839534  -13.00023949
     atom   81 type  2   force =     0.69623763   -0.17142875  -14.72138479
     atom   82 type  2   force =     1.85192573    1.06975830  -13.03877276
     atom   83 type  2   force =     1.10378310    0.63732850  -14.98247093
     atom   84 type  2   force =    -0.13363261    2.20384387  -13.00030988
     atom   85 type  2   force =     0.19936027    0.68905297  -14.72165927
     atom   86 type  2   force =    -0.00006683    0.00117329  -13.25583501
     atom   87 type  2   force =    -0.00007926    0.00043679  -14.58268197
     atom   88 type  2   force =    -1.84232135   -1.21849887  -12.99983676
     atom   89 type  2   force =    -0.69686604   -0.17166748  -14.72165469
     atom   90 type  2   force =    -0.00027197   -0.03951586  -13.55204950
     atom   91 type  2   force =    -0.00053308    0.19758649  -14.37732324
     atom   92 type  2   force =    -0.03461292    0.02009782  -13.55249244
     atom   93 type  2   force =     0.17085947   -0.09883635  -14.37701920
     atom   94 type  2   force =    -1.97567050   -0.98546294  -12.99979571
     atom   95 type  2   force =    -0.49742216   -0.51700915  -14.72209030
     The core correction contribution to forces
     atom    1 type  1   force =     0.00000010    0.00000024   -0.00000187
     atom    2 type  1   force =    -0.00086802    0.00150339    0.00000145
     atom    3 type  1   force =    -0.00000153    0.00000284   -0.00000187
     atom    4 type  1   force =    -0.00000002    0.00000021    0.00000158
     atom    5 type  1   force =    -0.00000012    0.00000021   -0.00000192
     atom    6 type  1   force =     0.00086802   -0.00150368    0.00000133
     atom    7 type  1   force =     0.00000151   -0.00000242   -0.00000190
     atom    8 type  1   force =     0.00173603    0.00000043    0.00000232
     atom    9 type  1   force =     0.00000297    0.00000028   -0.00000167
     atom   10 type  1   force =     0.00086782    0.00150346    0.00000163
     atom   11 type  1   force =     0.00000163    0.00000282   -0.00000178
     atom   12 type  1   force =    -0.00000007    0.00025874   -0.00036666
     atom   13 type  1   force =     0.00000001    0.00001819    0.00003550
     atom   14 type  1   force =     0.00022367   -0.00012916   -0.00036689
     atom   15 type  1   force =     0.00001548   -0.00000874    0.00003554
     atom   16 type  1   force =    -0.00000019    0.00000063    0.00000190
     atom   17 type  1   force =    -0.00000018    0.00000031   -0.00000161
     atom   18 type  1   force =     0.00022382    0.00012942    0.00037035
     atom   19 type  1   force =     0.00001556    0.00000922   -0.00003910
     atom   20 type  1   force =    -0.00000018    0.00000003    0.00000173
     atom   21 type  1   force =     0.00000004    0.00000009   -0.00000180
     atom   22 type  1   force =    -0.00022405   -0.00012930   -0.00036684
     atom   23 type  1   force =    -0.00001560   -0.00000883    0.00003556
     atom   24 type  1   force =    -0.00173592    0.00000066    0.00000234
     atom   25 type  1   force =    -0.00000304    0.00000024   -0.00000164
     atom   26 type  1   force =    -0.00022407    0.00012949    0.00037036
     atom   27 type  1   force =    -0.00001573    0.00000933   -0.00003917
     atom   28 type  1   force =    -0.00000002   -0.00025833    0.00037063
     atom   29 type  1   force =    -0.00000004   -0.00001785   -0.00003927
     atom   30 type  1   force =    -0.00086797   -0.00150355    0.00000152
     atom   31 type  1   force =    -0.00000145   -0.00000246   -0.00000186
     atom   32 type  2   force =    -0.00000060    0.00001134   -0.00558616
     atom   33 type  2   force =    -0.00000033    0.00321216   -0.00408063
     atom   34 type  2   force =     0.00000794   -0.00000231   -0.00558510
     atom   35 type  2   force =     0.00278612   -0.00160821   -0.00408027
     atom   36 type  2   force =    -0.00001455   -0.00000828   -0.00542983
     atom   37 type  2   force =     0.00083250   -0.00022088   -0.00472265
     atom   38 type  2   force =    -0.00001663   -0.00000471   -0.00543060
     atom   39 type  2   force =     0.00022329    0.00082874   -0.00472382
     atom   40 type  2   force =    -0.00008281    0.00004971   -0.00554908
     atom   41 type  2   force =     0.00010602   -0.00005914   -0.00523050
     atom   42 type  2   force =    -0.00000874   -0.00000230   -0.00558483
     atom   43 type  2   force =    -0.00278373   -0.00160666   -0.00408053
     atom   44 type  2   force =    -0.00000049   -0.00009284   -0.00554929
     atom   45 type  2   force =    -0.00000062    0.00012572   -0.00523080
     atom   46 type  2   force =    -0.00002346   -0.00001132   -0.00546690
     atom   47 type  2   force =     0.00020149    0.00011887   -0.00498560
     atom   48 type  2   force =    -0.00000039    0.00002902   -0.00546486
     atom   49 type  2   force =    -0.00000050   -0.00023080   -0.00498305
     atom   50 type  2   force =    -0.00000251    0.00002023   -0.00542748
     atom   51 type  2   force =    -0.00060835   -0.00060993   -0.00472010
     atom   52 type  2   force =     0.00001367   -0.00000840   -0.00542850
     atom   53 type  2   force =    -0.00083152   -0.00022093   -0.00472136
     atom   54 type  2   force =     0.00002287   -0.00001122   -0.00546578
     atom   55 type  2   force =    -0.00020238    0.00011887   -0.00498462
     atom   56 type  2   force =     0.00008204    0.00004981   -0.00554840
     atom   57 type  2   force =    -0.00010738   -0.00005885   -0.00523027
     atom   58 type  2   force =     0.00000191    0.00002023   -0.00542684
     atom   59 type  2   force =     0.00060900   -0.00061081   -0.00471991
     atom   60 type  2   force =    -0.00000043    0.00000242   -0.00539345
     atom   61 type  2   force =    -0.00000063    0.00000271   -0.00491024
     atom   62 type  2   force =     0.00001601   -0.00000484   -0.00542927
     atom   63 type  2   force =    -0.00022325    0.00082843   -0.00472254
     atom   64 type  2   force =     0.00278241    0.00160689    0.00408166
     atom   65 type  2   force =     0.00000770    0.00000656    0.00558334
     atom   66 type  2   force =    -0.00010748    0.00006395    0.00523095
     atom   67 type  2   force =     0.00008200   -0.00004545    0.00554742
     atom   68 type  2   force =    -0.00020255   -0.00011389    0.00498128
     atom   69 type  2   force =     0.00002262    0.00001551    0.00546282
[...]
              0.499659221623315E+03
              0.837411055952934E+02
             -0.770910456770966E+02
              0.914650588368886E+01
             -0.505586779958364E+02
              0.410260480826658E+03
             -0.234737273381678E+02
              0.882105390943908E+02
              0.295869695236539E+03
              0.649429510422588E+02
             -0.233529206007772E+03
             -0.340272622695416E+03
              0.359210228432903E+01
             -0.382741093416806E+03
              0.129831252048829E+03
             -0.774906304829443E+02
             -0.179675656341054E+03
              0.161617702067862E+03
              0.620355922586568E+02
              0.145804571750541E+03
              0.129063956626951E+02
              0.232185215712599E+03
             -0.379527664667063E+03
             -0.347564048724523E+02
             -0.330969197237229E+03
              0.597174417816136E+02
              0.179224823426583E+03
             -0.330226787582535E+02
             -0.124629964063987E+03
              0.266661654085487E+03
             -0.123690200203655E+03
              0.868634114016529E+02
             -0.775985451315150E+02
              0.190381917436391E+03
              0.229877831053715E+03
             -0.991528985279019E+02
              0.197903078981447E+03
              0.759277404563359E+02
             -0.204018275457780E+03
             -0.122002629908723E+03
              0.328931637978478E+03
              0.155880482280406E+03
             -0.150123214508449E+02
             -0.442001635223050E+02
              0.483517817162550E+03
              0.289920512279292E+03
              0.106288607937920E+03
             -0.309762744150471E+03
              0.485238072994539E+03
             -0.219444278425042E+03
             -0.272113134346196E+03
             -0.421398884861348E+03
              0.203128932624621E+03
             -0.385572499252203E+03
              0.167261758924421E+03
              0.274555807850756E+03
              0.203490430414252E+03
              0.431798574786857E+02
              0.121270011987486E+03
             -0.303956889759118E+03
             -0.108097521002930E+03
             -0.979394629448000E+02
              0.146849183037956E+03
              0.327662604768236E+03
              0.323109576693775E+03
              0.247276495816917E+03
             -0.610391084599787E+02
              0.878141936696493E+02
              0.122915462951644E+02
             -0.970875188819425E+02
              0.144848996401363E+03
              0.138668663975459E+03
             -0.197911634221764E+03
             -0.200434599265322E+03
             -0.918458604653454E+02
              0.212913130334977E+03
              0.108377476334027E+03
             -0.145044825389370E+03
             -0.252511384282132E+03
             -0.346903417941450E+03
              0.724453195980664E+01
              0.987440057198983E+02
             -0.134234533749302E+03
              0.492811846978354E+03
              0.462395818062078E+01
             -0.572456390778551E+03
              0.143580173909245E+03
              0.236284178931346E+03
             -0.858626970352241E+02
              0.911621777112794E+01
             -0.129471889494401E+03
              0.219795736960769E+03
              0.108544581417791E+03
             -0.289297523525429E+03
              0.343522370314166E+03
              0.233087480038192E+02
             -0.137200752487034E+03
             -0.169154796054143E+03
              0.688702858693284E+03
              0.307788738048325E+03
             -0.772456014692480E+02
              0.169891609246235E+03
             -0.335674107966934E+03
             -0.727590728512141E+02
             -0.298322562741793E+03
              0.115270859703166E+03
              0.214078786086625E+03
              0.235470825918053E+03
             -0.103220266862425E+03
              0.178458027725346E+02
              0.293404869221425E+03
              0.938672315073877E+02
              0.174871159491568E+03
              0.711187746021064E+02
             -0.394059738110261E+02
              0.736002182867537E+00
             -0.545678764156013E+02
              0.608092662776198E+02
              0.203861022534700E+02
             -0.266538587730510E+03
              0.408326565101172E+03
              0.157096590007874E+03
             -0.289357232835647E+03
             -0.212567502639915E+03
             -0.300147278665061E+03
             -0.130201031019729E+03
             -0.943766408782849E+02
             -0.237498107101982E+03
             -0.234404924472723E+03
              0.282216012927337E+03
              0.224623664013795E+03
             -0.310056086305080E+02
              0.337259261726295E+03
              0.486772317495142E+02
             -0.541910366583773E+03
              0.290935365190437E+03
              0.496553777077715E+02
              0.228523684744992E+03
              0.308924989220920E+02
              0.256878391928844E+02
              0.465307463674555E+02
              0.123449877938123E+03
             -0.226133174610155E+03
             -0.106686020540547E+03
             -0.213735741689708E+03
             -0.176972510455920E+03
              0.737240017349477E+02
             -0.196314340440575E+03
              0.946001194263127E+02
              0.129932290349092E+03
             -0.120290926329740E+03
             -0.768151417401905E+02
              0.502277635691928E+01
              0.336875295660436E+03
              0.509737835395092E+02
              0.323383175211854E+03
              0.115863113810722E+03
             -0.427571958475988E+03
             -0.141803198235819E+03
              0.145783702452744E+03
              0.336363096509683E+03
              0.555612804712180E+02
              0.138251285497077E+03
              0.309577503496439E+03
             -0.179286071309327E+03
             -0.275119931946475E+03
              0.381544923146554E+03
              0.221588010721775E+02
             -0.403288672046292E+03
              0.147332817893949E+03
              0.255316081095195E+03
             -0.652906851739253E+02
             -0.265834128113482E+03
              0.554012316746841E+02
              0.114565876750657E+02
             -0.129184964006166E+03
              0.494638787304712E+02
             -0.430913950312347E+02
              0.600015907921829E+03
              0.174656050817741E+03
             -0.254138881309131E+03
              0.750948449439900E+02
              0.365320900669143E+03
             -0.246909626272334E+03
             -0.642701779908425E+02
             -0.233542583784728E+03
              0.187080945084779E+03
              0.592311251588537E+02
              0.123671722341442E+03
              0.224016668937111E+02
              0.424389938072440E+03
             -0.241328472338687E+03
             -0.190627680257476E+03
             -0.184014282637542E+03
              0.161647865069191E+03
              0.421724325767279E+03
             -0.704853391038337E+02
              0.172609967109114E+03
             -0.245072470428028E+03
              0.470062241233409E+02
             -0.784715864018044E+02
              0.171112057768059E+02
             -0.950030656260000E+02
             -0.774986204359626E+02
             -0.760930396259081E+02
              0.627507117971527E+02
              0.122566637433441E+03
             -0.267215385917021E+03
              0.197866424693187E+03
             -0.318536320867899E+03
              0.240400043216319E+03
             -0.254067936101529E+03
              0.411771681955743E+03
              0.226208404323995E+03
              0.260329789927683E+03
              0.646164370920578E+02
              0.760004929329602E+02
             -0.568773160730830E+03
              0.924036085224974E+02
              0.209184737060900E+02
              0.542706580792219E+02
             -0.928670345986034E+02
              0.439721729997620E+03
             -0.102166756005519E+03
             -0.181780009711790E+03
             -0.425629454864094E+03
             -0.147708835831643E+03
             -0.204184880138407E+03
             -0.177473669926263E+03
             -0.400851404467314E+02
             -0.972214502429724E+02
             -0.123505188909192E+03
             -0.189382507897239E+03
              0.144976600637487E+03
              0.456869046432653E+03
              0.386000030846284E+03
             -0.685378849180861E+02
             -0.464086519298384E+03
             -0.197821458130556E+03
              0.949001793218673E+02
              0.949225944225955E+02
              0.151693982677576E+03
              0.106628059470123E+03
              0.188741386521401E+02
              0.453418351713998E+03
             -0.110243470455539E+03
              0.222771786341222E+03
              0.114500708561256E+03
             -0.154397152818074E+03
             -0.739891828889045E+02
              0.205433950008118E+03
             -0.109688896313395E+03
             -0.673921389147551E+02
             -0.499523961467003E+02
              0.264549375429369E+03
             -0.347901635486488E+03
             -0.279158408817116E+02
             -0.268500904190721E+03
             -0.570534437364603E+03
             -0.146411927584563E+01
             -0.841353249802241E+02
              0.221723666471078E+03
              0.246575096809275E+03
              0.337189437396933E+03
             -0.219305553944722E+03
              0.340887956515518E+03
              0.851874561425093E+02
             -0.126496385803426E+03
              0.455157150613345E+02
             -0.107741290116246E+03
             -0.636999186908952E+02
              0.196852635656471E+03
             -0.163053782027980E+03
              0.437368978244406E+03
             -0.116636254217651E+03
             -0.241681966395451E+03
              0.457377864440197E+03
             -0.247563354423019E+03
             -0.199469225212115E+02
              0.241105609715646E+02
              0.132059024205923E+03
             -0.193270672632630E+03
             -0.147255206786126E+03
              0.234938510599479E+03
             -0.353366699587384E+03
              0.291480408397554E+03
              0.430861066203920E+02
              0.208836636431577E+03
              0.302648986992076E+03
              0.774606909661281E+02
             -0.420476816292702E+03
             -0.181972247985511E+03
             -0.303525443637008E+03
             -0.180618963281083E+03
             -0.481517805358335E+02
              0.651115074807735E+02
             -0.141637719924742E+03
             -0.244341409382969E+01
             -0.422373794037620E+03
              0.236420882320177E+02
             -0.272340323838071E+03
              0.263999229201150E+03
             -0.154805084158393E+03
             -0.372696802606665E+02
              0.199254476256372E+03
              0.393788787905779E+02
              0.185209184561687E+03
             -0.352989062079179E+03
              0.586916655210703E+02
              0.241695982718358E+02
              0.151917672550866E+03
              0.243571796664553E+03
             -0.449987433399199E+02
             -0.277375521435493E+03
             -0.160255890418802E+03
             -0.113216333544361E+03
             -0.334209184126148E+02
              0.258637952094478E+03
              0.167865602256588E+03
             -0.170113859028667E+03
             -0.159576122585063E+03
              0.117181406435098E+03
              0.127605675572259E+03
             -0.344680479286594E+03
              0.804094690439535E+02
              0.247306953644187E+03
             -0.109688100394054E+02
              0.311350268377123E+03
              0.143875386696956E+03
              0.245102173909344E+03
              0.372485970859192E+03
              0.561913820764407E+02
             -0.507731515067914E+03
              0.700474346615842E+02
              0.548868847067703E+03
              0.398961963093006E+03
             -0.275091958089431E+03
              0.248103589702146E+02
              0.357021788454172E+03
              0.309505312435356E+03
              0.136023492619609E+03
             -0.822899217479955E+02
              0.136593412293554E+03
              0.282891971415585E+03
             -0.130737632379777E+03
             -0.841334363671466E+02
              0.191583040825184E+03
             -0.115800578328808E+02
              0.171884507635330E+03
             -0.532800873978917E+02
              0.358648472803984E+03
             -0.136887701854086E+03
              0.822793269776557E+02
             -0.152062738540921E+03
              0.177537023429389E+03
             -0.240909945229935E+02
              0.264488065853630E+03
              0.188913817634144E+02
              0.118343877446649E+03
             -0.168146506811978E+03
             -0.117666826584146E+03
             -0.599837234615550E+02
             -0.546296188602689E+02
              0.287919601784768E+03
              0.141658830944482E+03
              0.349500569399472E+03
              0.322484434310072E+03
              0.904531302436576E+02
              0.163060844609881E+02
              0.343759843282589E+03
              0.193196553380318E+03
              0.210812644058024E+00
              0.334766115805015E+03
             -0.274771056405370E+03
              0.963382109549045E+02
             -0.178979434113380E+03
             -0.486305218326331E+02
              0.462917434627575E+03
             -0.648590489208987E+02
             -0.192598308022011E+02
             -0.504116010468181E+02
              0.380255466036652E+03
             -0.816806861927121E+02
             -0.699353198792278E+01
              0.767293328377757E+03
             -0.227135825780644E+03
             -0.283408160652738E+03
             -0.283710909465332E+03
             -0.181249661968312E+03
              0.165182282354429E+03
             -0.741932727328276E+02
              0.420684883346551E+02
             -0.192384646525206E+02
              0.971788125764452E+02
              0.156190834065503E+03
              0.181978494908442E+03
              0.261924838861777E+03
              0.167798332522731E+03
              0.171081366164091E+03
             -0.316549690499384E+03
             -0.326890883703171E+03
             -0.737149089371212E+02
             -0.292233369728585E+03
              0.463963793290725E+03
              0.390861456005582E+03
              0.184321806074713E+03
              0.508147656938524E+03
             -0.253968211800159E+03
             -0.109361448405471E+03
             -0.157603911960301E+03
              0.439549792128810E+03
 
 BEEF-vdW xc energy contributions
            1 :    -3973.752642478577     
            2 :     3641.332990247290     
            3 :    -3074.491471157929     
            4 :     2424.209455415017     
            5 :    -1832.624294598107     
            6 :     1387.310912986871     
            7 :    -1107.090618465993     
            8 :     955.1043585658881     
            9 :    -866.7753368531576     
           10 :     780.7396642337626     
           11 :    -662.2728298310885     
           12 :     511.0673188669989     
           13 :    -351.8802698045038     
           14 :     215.4263485161769     
           15 :    -121.0986936400568     
           16 :     69.58807453625468     
           17 :    -46.22097236880836     
           18 :     30.62849836687474     
           19 :    -7.110281897206733     
           20 :    -28.81748551085366     
           21 :     70.17137878929316     
           22 :    -104.2235303841162     
           23 :     120.8313609038105     
           24 :    -118.5636634374277     
           25 :     105.3206420915349     
           26 :    -93.62716764676588     
           27 :     93.71898044072623     
           28 :    -108.2655718730730     
           29 :     131.2706458021421     
           30 :    -151.4706686934187     
           31 :    -341.7678761797051     
           32 :    -245.8486660467606     

     Writing all to output data dir ./PbI2.save/
 
     init_run     :     13.74s CPU     14.50s WALL (       1 calls)
     electrons    :    889.72s CPU    907.39s WALL (       1 calls)
     forces       :      7.09s CPU      7.39s WALL (       1 calls)
     stress       :    117.34s CPU    118.75s WALL (       1 calls)

     Called by init_run:
     wfcinit      :      9.29s CPU      9.62s WALL (       1 calls)
     wfcinit:atom :      0.03s CPU      0.06s WALL (       1 calls)
     wfcinit:wfcr :      9.06s CPU      9.25s WALL (       1 calls)
     potinit      :      1.38s CPU      1.58s WALL (       1 calls)
     hinit0       :      0.65s CPU      0.68s WALL (       1 calls)

     Called by electrons:
     c_bands      :    875.06s CPU    891.85s WALL (       2 calls)
     sum_band     :      6.15s CPU      6.45s WALL (       2 calls)
     v_of_rho     :      1.69s CPU      1.80s WALL (       2 calls)
     v_h          :      0.02s CPU      0.02s WALL (       2 calls)
     v_xc         :     38.92s CPU     40.93s WALL (      38 calls)
     newd         :      0.60s CPU      0.82s WALL (       2 calls)
     PAW_pot      :      0.56s CPU      0.57s WALL (       2 calls)
     mix_rho      :      0.00s CPU      0.00s WALL (       2 calls)
     vdW_kernel   :      0.25s CPU      0.26s WALL (       1 calls)

     Called by c_bands:
     init_us_2    :      0.22s CPU      0.29s WALL (       5 calls)
     init_us_2:cp :      0.22s CPU      0.29s WALL (       5 calls)
     cegterg      :    874.59s CPU    890.26s WALL (       5 calls)

     Called by sum_band:
     sum_band:wei :      0.00s CPU      0.00s WALL (       2 calls)
     sum_band:loo :      5.39s CPU      5.44s WALL (       2 calls)
     sum_band:buf :      0.00s CPU      0.00s WALL (       2 calls)
     sum_band:ini :      0.14s CPU      0.14s WALL (       2 calls)
     sum_band:cal :      2.32s CPU      2.34s WALL (       2 calls)
     sum_band:bec :      0.03s CPU      0.03s WALL (       2 calls)
     addusdens    :      0.66s CPU      0.90s WALL (       2 calls)
     addusd:skk   :      0.05s CPU      0.06s WALL (       4 calls)
     addusd:dgemm :      0.35s CPU      0.59s WALL (       4 calls)
     addusd:qvan2 :      0.23s CPU      0.24s WALL (       4 calls)

     Called by *egterg:
     cdiaghg      :    658.79s CPU    665.68s WALL (     101 calls)
     cegterg:over :     44.70s CPU     45.93s WALL (     100 calls)
     cegterg:upda :     27.19s CPU     27.63s WALL (     100 calls)
     cegterg:last :     19.51s CPU     19.67s WALL (       7 calls)
     h_psi        :    100.27s CPU    101.50s WALL (     106 calls)
     s_psi        :     21.48s CPU     21.63s WALL (     106 calls)
     g_psi        :      0.19s CPU      0.19s WALL (     100 calls)

     Called by h_psi:
     h_psi:calbec :     23.80s CPU     24.00s WALL (     106 calls)
     vloc_psi     :     54.48s CPU     54.94s WALL (     106 calls)
     add_vuspsi   :     21.48s CPU     21.72s WALL (     106 calls)

     General routines
     calbec       :     31.97s CPU     32.23s WALL (     113 calls)
     fft          :     29.98s CPU     30.43s WALL (    2232 calls)
     ffts         :      0.03s CPU      0.03s WALL (       4 calls)
     fftw         :     54.48s CPU     54.92s WALL (   34466 calls)
     interpolate  :      0.04s CPU      0.04s WALL (       2 calls)
 
     Parallel routines

     PAW routines
     PAW_pot      :      0.56s CPU      0.57s WALL (       2 calls)
 
     PWSCF        :  17m49.88s CPU  18m17.67s WALL

 
   This run was terminated on:  11: 1:41  18Feb2024            

=------------------------------------------------------------------------------=
   JOB DONE.
=------------------------------------------------------------------------------=
