
     Program PWSCF v.7.1 starts on  7Oct2023 at 23:51:28 

     This program is part of the open-source Quantum ESPRESSO suite
     for quantum simulation of materials; please cite
         "P. Giannozzi et al., J. Phys.:Condens. Matter 21 395502 (2009);
         "P. Giannozzi et al., J. Phys.:Condens. Matter 29 465901 (2017);
         "P. Giannozzi et al., J. Chem. Phys. 152 154105 (2020);
          URL http://www.quantum-espresso.org", 
     in publications or presentations arising from this work. More details at
     http://www.quantum-espresso.org/quote

     Parallel version (MPI & OpenMP), running on     256 processor cores
     Number of MPI processes:               256
     Threads/MPI process:                     1

     MPI processes distributed on     2 nodes
     2033986 MiB available memory on the printing compute node when the environment starts
 
     Reading input from espresso.pwi
Warning: card &CELL ignored
Warning: card    CELL_DYNAMICS    = 'BFGS' ignored
Warning: card / ignored

     Current dimensions of program PWSCF are:
     Max number of different atomic species (ntypx) = 10
     Max number of k-points (npk) =  40000
     Max angular momentum in pseudopotentials (lmaxx) =  4
     file C.pbe-n-kjpaw_psl.1.0.0.UPF: wavefunction(s)  2S 2P renormalized

     **************************************************************************
     Initializing libbeef V0.1.2 with the BEEF-vdW functional.
     Citation: Wellendorff et al., PRB 85, 235149 (2012).
     **************************************************************************


     IMPORTANT: XC functional enforced from input :
     Exchange-correlation= BEEF-VDW
                           (   1   4  43  14   2   0   0)
     Any further DFT definition will be discarded
     Please, verify this is what you really want

 
     K-points division:     npool     =       4
     R & G space division:  proc/nbgrp/npool/nimage =      64
     Subspace diagonalization in iterative solution of the eigenvalue problem:
     a serial algorithm will be used

 
     Parallelization info
     --------------------
     sticks:   dense  smooth     PW     G-vecs:    dense   smooth      PW
     Min         178     142     38                14350    10258    1410
     Max         179     143     39                14357    10265    1416
     Sum       11433    9133   2433               918657   656775   90447
 
     Using Slab Decomposition
 


     bravais-lattice index     =            1
     lattice parameter (alat)  =      20.2520  a.u.
     unit-cell volume          =    8306.2556 (a.u.)^3
     number of atoms/cell      =          215
     number of atomic types    =            1
     number of electrons       =       860.00
     number of Kohn-Sham states=          516
     kinetic-energy cutoff     =      70.0000  Ry
     charge density cutoff     =     350.0000  Ry
     scf convergence threshold =      1.0E-08
     mixing beta               =       0.7000
     number of iterations used =            8  plain     mixing
     Exchange-correlation= BEEF-VDW
                           (   1   4  43  14   2   0   0)

     celldm(1)=  20.252024  celldm(2)=   0.000000  celldm(3)=   0.000000
     celldm(4)=   0.000000  celldm(5)=   0.000000  celldm(6)=   0.000000

     crystal axes: (cart. coord. in units of alat)
               a(1) = (   1.000000   0.000000   0.000000 )  
               a(2) = (   0.000000   1.000000   0.000000 )  
               a(3) = (   0.000000   0.000000   1.000000 )  

     reciprocal axes: (cart. coord. in units 2 pi/alat)
               b(1) = (  1.000000  0.000000  0.000000 )  
               b(2) = (  0.000000  1.000000  0.000000 )  
               b(3) = (  0.000000  0.000000  1.000000 )  


     PseudoPot. # 1 for C  read from file:
     /trace/group/acmegroup/atimmins/packages/espresso/pseudo/psl_1.0.0/pslibrary.1.0.0/pbe/PSEUDOPOTENTIALS/C.pbe-n-kjpaw_psl.1.0.0.UPF
     MD5 check sum: 5459cf7f2c8c37df2f7cde8914797f4d
     Pseudo is Projector augmented-wave + core cor, Zval =  4.0
     Generated using 'atomic' code by A. Dal Corso  v.7.1
     Shape of augmentation charge: PSQ
     Using radial grid of 1073 points,  4 beta functions with: 
                l(1) =   0
                l(2) =   0
                l(3) =   1
                l(4) =   1
     Q(r) pseudized with 0 coefficients 


     atomic species   valence    mass     pseudopotential
        C              4.00    12.01100     C ( 1.00)

      6 Sym. Ops. (no inversion) found ( 4 have fractional translation)


                                    s                        frac. trans.

      isym =  1     identity                                     

 cryst.   s( 1) = (     1          0          0      )
                  (     0          1          0      )
                  (     0          0          1      )

 cart.    s( 1) = (  1.0000000  0.0000000  0.0000000 )
                  (  0.0000000  1.0000000  0.0000000 )
                  (  0.0000000  0.0000000  1.0000000 )


      isym =  2     120 deg rotation - cart. axis [1,-1,1]       

 cryst.   s( 2) = (     0          0          1      )    f =( -0.3333333 )
                  (    -1          0          0      )       ( -0.3333333 )
                  (     0         -1          0      )       (  0.0000000 )

 cart.    s( 2) = (  0.0000000 -1.0000000  0.0000000 )    f =( -0.3333333 )
                  (  0.0000000  0.0000000 -1.0000000 )       ( -0.3333333 )
                  (  1.0000000  0.0000000  0.0000000 )       (  0.0000000 )


      isym =  3     120 deg rotation - cart. axis [-1,1,-1]      

 cryst.   s( 3) = (     0         -1          0      )    f =(  0.0000000 )
                  (     0          0         -1      )       ( -0.3333333 )
                  (     1          0          0      )       ( -0.3333333 )

 cart.    s( 3) = (  0.0000000  0.0000000  1.0000000 )    f =(  0.0000000 )
                  ( -1.0000000  0.0000000  0.0000000 )       ( -0.3333333 )
                  (  0.0000000 -1.0000000  0.0000000 )       ( -0.3333333 )


      isym =  4     inv. 180 deg rotation - cart. axis [1,1,0]   

 cryst.   s( 4) = (     0         -1          0      )    f =( -0.3333333 )
                  (    -1          0          0      )       ( -0.3333333 )
                  (     0          0          1      )       (  0.0000000 )

 cart.    s( 4) = (  0.0000000 -1.0000000  0.0000000 )    f =( -0.3333333 )
                  ( -1.0000000  0.0000000  0.0000000 )       ( -0.3333333 )
                  (  0.0000000  0.0000000  1.0000000 )       (  0.0000000 )


      isym =  5     inv. 180 deg rotation - cart. axis [-1,0,1]  

 cryst.   s( 5) = (     0          0          1      )
                  (     0          1          0      )
                  (     1          0          0      )

 cart.    s( 5) = (  0.0000000  0.0000000  1.0000000 )
                  (  0.0000000  1.0000000  0.0000000 )
                  (  1.0000000  0.0000000  0.0000000 )


      isym =  6     inv. 180 deg rotation - cart. axis [0,1,1]   

 cryst.   s( 6) = (     1          0          0      )    f =(  0.0000000 )
                  (     0          0         -1      )       ( -0.3333333 )
                  (     0         -1          0      )       ( -0.3333333 )

 cart.    s( 6) = (  1.0000000  0.0000000  0.0000000 )    f =(  0.0000000 )
                  (  0.0000000  0.0000000 -1.0000000 )       ( -0.3333333 )
                  (  0.0000000 -1.0000000  0.0000000 )       ( -0.3333333 )


     point group C_3v (3m)  
     there are  3 classes
     the character table:

       E     2C3   3s_v 
A_1    1.00  1.00  1.00
A_2    1.00  1.00 -1.00
E      2.00 -1.00  0.00

     the symmetry operations in each class and the name of the first element:

     E        1
          identity                                               
     2C3      2    3
          120 deg rotation - cart. axis [1,-1,1]                 
     3s_v     4    5    6
          inv. 180 deg rotation - cart. axis [1,1,0]             

   Cartesian axes

     site n.     atom                  positions (alat units)
         1           C   tau(   1) = (   0.0833353   0.2499980   0.4166687  )
         2           C   tau(   2) = (   0.0833353   0.2499980   0.7500020  )
         3           C   tau(   3) = (   0.0833353   0.5833313   0.0833353  )
         4           C   tau(   4) = (   0.0833353   0.5833313   0.4166687  )
         5           C   tau(   5) = (   0.0833353   0.5833313   0.7500020  )
         6           C   tau(   6) = (   0.0833353   0.9166647   0.0833353  )
         7           C   tau(   7) = (   0.0833353   0.9166647   0.4166687  )
         8           C   tau(   8) = (   0.0833353   0.9166647   0.7500020  )
         9           C   tau(   9) = (   0.4166687   0.2499980   0.0833353  )
        10           C   tau(  10) = (   0.4166687   0.2499980   0.4166687  )
        11           C   tau(  11) = (   0.4166687   0.2499980   0.7500020  )
        12           C   tau(  12) = (   0.4166687   0.5833313   0.0833353  )
        13           C   tau(  13) = (   0.4166687   0.5833313   0.4166687  )
        14           C   tau(  14) = (   0.4166687   0.5833313   0.7500020  )
        15           C   tau(  15) = (   0.4166687   0.9166647   0.0833353  )
        16           C   tau(  16) = (   0.4166687   0.9166647   0.4166687  )
        17           C   tau(  17) = (   0.4166687   0.9166647   0.7500020  )
        18           C   tau(  18) = (   0.7500020   0.2499980   0.0833353  )
        19           C   tau(  19) = (   0.7500020   0.2499980   0.4166687  )
        20           C   tau(  20) = (   0.7500020   0.2499980   0.7500020  )
        21           C   tau(  21) = (   0.7500020   0.5833313   0.0833353  )
        22           C   tau(  22) = (   0.7500020   0.5833313   0.4166687  )
        23           C   tau(  23) = (   0.7500020   0.5833313   0.7500020  )
        24           C   tau(  24) = (   0.7500020   0.9166647   0.0833353  )
        25           C   tau(  25) = (   0.7500020   0.9166647   0.4166687  )
        26           C   tau(  26) = (   0.7500020   0.9166647   0.7500020  )
        27           C   tau(  27) = (   0.0000000   0.0000000   0.1666667  )
        28           C   tau(  28) = (   0.0000000   0.0000000   0.5000000  )
        29           C   tau(  29) = (   0.0000000   0.0000000   0.8333333  )
        30           C   tau(  30) = (   0.0000000   0.3333333   0.1666667  )
        31           C   tau(  31) = (   0.0000000   0.3333333   0.5000000  )
        32           C   tau(  32) = (   0.0000000   0.3333333   0.8333333  )
        33           C   tau(  33) = (   0.0000000   0.6666667   0.1666667  )
        34           C   tau(  34) = (   0.0000000   0.6666667   0.5000000  )
        35           C   tau(  35) = (   0.0000000   0.6666667   0.8333333  )
        36           C   tau(  36) = (   0.3333333   0.0000000   0.1666667  )
        37           C   tau(  37) = (   0.3333333   0.0000000   0.5000000  )
        38           C   tau(  38) = (   0.3333333   0.0000000   0.8333333  )
        39           C   tau(  39) = (   0.3333333   0.3333333   0.1666667  )
        40           C   tau(  40) = (   0.3333333   0.3333333   0.5000000  )
        41           C   tau(  41) = (   0.3333333   0.3333333   0.8333333  )
        42           C   tau(  42) = (   0.3333333   0.6666667   0.1666667  )
        43           C   tau(  43) = (   0.3333333   0.6666667   0.5000000  )
        44           C   tau(  44) = (   0.3333333   0.6666667   0.8333333  )
        45           C   tau(  45) = (   0.6666667   0.0000000   0.1666667  )
        46           C   tau(  46) = (   0.6666667   0.0000000   0.5000000  )
        47           C   tau(  47) = (   0.6666667   0.0000000   0.8333333  )
        48           C   tau(  48) = (   0.6666667   0.3333333   0.1666667  )
        49           C   tau(  49) = (   0.6666667   0.3333333   0.5000000  )
        50           C   tau(  50) = (   0.6666667   0.3333333   0.8333333  )
        51           C   tau(  51) = (   0.6666667   0.6666667   0.1666667  )
        52           C   tau(  52) = (   0.6666667   0.6666667   0.5000000  )
        53           C   tau(  53) = (   0.6666667   0.6666667   0.8333333  )
        54           C   tau(  54) = (   0.0833353   0.0833353   0.2499980  )
        55           C   tau(  55) = (   0.0833353   0.0833353   0.5833313  )
        56           C   tau(  56) = (   0.0833353   0.0833353   0.9166647  )
        57           C   tau(  57) = (   0.0833353   0.4166687   0.2499980  )
        58           C   tau(  58) = (   0.0833353   0.4166687   0.5833313  )
        59           C   tau(  59) = (   0.0833353   0.4166687   0.9166647  )
        60           C   tau(  60) = (   0.0833353   0.7500020   0.2499980  )
        61           C   tau(  61) = (   0.0833353   0.7500020   0.5833313  )
        62           C   tau(  62) = (   0.0833353   0.7500020   0.9166647  )
        63           C   tau(  63) = (   0.4166687   0.0833353   0.2499980  )
        64           C   tau(  64) = (   0.4166687   0.0833353   0.5833313  )
        65           C   tau(  65) = (   0.4166687   0.0833353   0.9166647  )
        66           C   tau(  66) = (   0.4166687   0.4166687   0.2499980  )
        67           C   tau(  67) = (   0.4166687   0.4166687   0.5833313  )
        68           C   tau(  68) = (   0.4166687   0.4166687   0.9166647  )
        69           C   tau(  69) = (   0.4166687   0.7500020   0.2499980  )
        70           C   tau(  70) = (   0.4166687   0.7500020   0.5833313  )
        71           C   tau(  71) = (   0.4166687   0.7500020   0.9166647  )
        72           C   tau(  72) = (   0.7500020   0.0833353   0.2499980  )
        73           C   tau(  73) = (   0.7500020   0.0833353   0.5833313  )
        74           C   tau(  74) = (   0.7500020   0.0833353   0.9166647  )
        75           C   tau(  75) = (   0.7500020   0.4166687   0.2499980  )
        76           C   tau(  76) = (   0.7500020   0.4166687   0.5833313  )
        77           C   tau(  77) = (   0.7500020   0.4166687   0.9166647  )
        78           C   tau(  78) = (   0.7500020   0.7500020   0.2499980  )
        79           C   tau(  79) = (   0.7500020   0.7500020   0.5833313  )
        80           C   tau(  80) = (   0.7500020   0.7500020   0.9166647  )
        81           C   tau(  81) = (   0.0000000   0.1666667   0.0000000  )
        82           C   tau(  82) = (   0.0000000   0.1666667   0.3333333  )
        83           C   tau(  83) = (   0.0000000   0.1666667   0.6666667  )
        84           C   tau(  84) = (   0.0000000   0.5000000   0.0000000  )
        85           C   tau(  85) = (   0.0000000   0.5000000   0.3333333  )
        86           C   tau(  86) = (   0.0000000   0.5000000   0.6666667  )
        87           C   tau(  87) = (   0.0000000   0.8333333   0.0000000  )
        88           C   tau(  88) = (   0.0000000   0.8333333   0.3333333  )
        89           C   tau(  89) = (   0.0000000   0.8333333   0.6666667  )
        90           C   tau(  90) = (   0.3333333   0.1666667   0.0000000  )
        91           C   tau(  91) = (   0.3333333   0.1666667   0.3333333  )
        92           C   tau(  92) = (   0.3333333   0.1666667   0.6666667  )
        93           C   tau(  93) = (   0.3333333   0.5000000   0.0000000  )
        94           C   tau(  94) = (   0.3333333   0.5000000   0.3333333  )
        95           C   tau(  95) = (   0.3333333   0.5000000   0.6666667  )
        96           C   tau(  96) = (   0.3333333   0.8333333   0.0000000  )
        97           C   tau(  97) = (   0.3333333   0.8333333   0.3333333  )
        98           C   tau(  98) = (   0.3333333   0.8333333   0.6666667  )
        99           C   tau(  99) = (   0.6666667   0.1666667   0.0000000  )
       100           C   tau( 100) = (   0.6666667   0.1666667   0.3333333  )
       101           C   tau( 101) = (   0.6666667   0.1666667   0.6666667  )
       102           C   tau( 102) = (   0.6666667   0.5000000   0.0000000  )
       103           C   tau( 103) = (   0.6666667   0.5000000   0.3333333  )
       104           C   tau( 104) = (   0.6666667   0.5000000   0.6666667  )
       105           C   tau( 105) = (   0.6666667   0.8333333   0.0000000  )
       106           C   tau( 106) = (   0.6666667   0.8333333   0.3333333  )
       107           C   tau( 107) = (   0.6666667   0.8333333   0.6666667  )
       108           C   tau( 108) = (   0.2499980   0.2499980   0.2499980  )
       109           C   tau( 109) = (   0.2499980   0.2499980   0.5833313  )
       110           C   tau( 110) = (   0.2499980   0.2499980   0.9166647  )
       111           C   tau( 111) = (   0.2499980   0.5833313   0.2499980  )
       112           C   tau( 112) = (   0.2499980   0.5833313   0.5833313  )
       113           C   tau( 113) = (   0.2499980   0.5833313   0.9166647  )
       114           C   tau( 114) = (   0.2499980   0.9166647   0.2499980  )
       115           C   tau( 115) = (   0.2499980   0.9166647   0.5833313  )
       116           C   tau( 116) = (   0.2499980   0.9166647   0.9166647  )
       117           C   tau( 117) = (   0.5833313   0.2499980   0.2499980  )
       118           C   tau( 118) = (   0.5833313   0.2499980   0.5833313  )
       119           C   tau( 119) = (   0.5833313   0.2499980   0.9166647  )
       120           C   tau( 120) = (   0.5833313   0.5833313   0.2499980  )
       121           C   tau( 121) = (   0.5833313   0.5833313   0.5833313  )
       122           C   tau( 122) = (   0.5833313   0.5833313   0.9166647  )
       123           C   tau( 123) = (   0.5833313   0.9166647   0.2499980  )
       124           C   tau( 124) = (   0.5833313   0.9166647   0.5833313  )
       125           C   tau( 125) = (   0.5833313   0.9166647   0.9166647  )
       126           C   tau( 126) = (   0.9166647   0.2499980   0.2499980  )
       127           C   tau( 127) = (   0.9166647   0.2499980   0.5833313  )
       128           C   tau( 128) = (   0.9166647   0.2499980   0.9166647  )
       129           C   tau( 129) = (   0.9166647   0.5833313   0.2499980  )
       130           C   tau( 130) = (   0.9166647   0.5833313   0.5833313  )
       131           C   tau( 131) = (   0.9166647   0.5833313   0.9166647  )
       132           C   tau( 132) = (   0.9166647   0.9166647   0.2499980  )
       133           C   tau( 133) = (   0.9166647   0.9166647   0.5833313  )
       134           C   tau( 134) = (   0.9166647   0.9166647   0.9166647  )
       135           C   tau( 135) = (   0.1666667   0.0000000   0.0000000  )
       136           C   tau( 136) = (   0.1666667   0.0000000   0.3333333  )
       137           C   tau( 137) = (   0.1666667   0.0000000   0.6666667  )
       138           C   tau( 138) = (   0.1666667   0.3333333   0.0000000  )
       139           C   tau( 139) = (   0.1666667   0.3333333   0.3333333  )
       140           C   tau( 140) = (   0.1666667   0.3333333   0.6666667  )
       141           C   tau( 141) = (   0.1666667   0.6666667   0.0000000  )
       142           C   tau( 142) = (   0.1666667   0.6666667   0.3333333  )
       143           C   tau( 143) = (   0.1666667   0.6666667   0.6666667  )
       144           C   tau( 144) = (   0.5000000   0.0000000   0.0000000  )
       145           C   tau( 145) = (   0.5000000   0.0000000   0.3333333  )
       146           C   tau( 146) = (   0.5000000   0.0000000   0.6666667  )
       147           C   tau( 147) = (   0.5000000   0.3333333   0.0000000  )
       148           C   tau( 148) = (   0.5000000   0.3333333   0.3333333  )
       149           C   tau( 149) = (   0.5000000   0.3333333   0.6666667  )
       150           C   tau( 150) = (   0.5000000   0.6666667   0.0000000  )
       151           C   tau( 151) = (   0.5000000   0.6666667   0.3333333  )
       152           C   tau( 152) = (   0.5000000   0.6666667   0.6666667  )
       153           C   tau( 153) = (   0.8333333   0.0000000   0.0000000  )
       154           C   tau( 154) = (   0.8333333   0.0000000   0.3333333  )
       155           C   tau( 155) = (   0.8333333   0.0000000   0.6666667  )
       156           C   tau( 156) = (   0.8333333   0.3333333   0.0000000  )
       157           C   tau( 157) = (   0.8333333   0.3333333   0.3333333  )
       158           C   tau( 158) = (   0.8333333   0.3333333   0.6666667  )
       159           C   tau( 159) = (   0.8333333   0.6666667   0.0000000  )
       160           C   tau( 160) = (   0.8333333   0.6666667   0.3333333  )
       161           C   tau( 161) = (   0.8333333   0.6666667   0.6666667  )
       162           C   tau( 162) = (   0.2499980   0.0833353   0.0833353  )
       163           C   tau( 163) = (   0.2499980   0.0833353   0.4166687  )
       164           C   tau( 164) = (   0.2499980   0.0833353   0.7500020  )
       165           C   tau( 165) = (   0.2499980   0.4166687   0.0833353  )
       166           C   tau( 166) = (   0.2499980   0.4166687   0.4166687  )
       167           C   tau( 167) = (   0.2499980   0.4166687   0.7500020  )
       168           C   tau( 168) = (   0.2499980   0.7500020   0.0833353  )
       169           C   tau( 169) = (   0.2499980   0.7500020   0.4166687  )
       170           C   tau( 170) = (   0.2499980   0.7500020   0.7500020  )
       171           C   tau( 171) = (   0.5833313   0.0833353   0.0833353  )
       172           C   tau( 172) = (   0.5833313   0.0833353   0.4166687  )
       173           C   tau( 173) = (   0.5833313   0.0833353   0.7500020  )
       174           C   tau( 174) = (   0.5833313   0.4166687   0.0833353  )
       175           C   tau( 175) = (   0.5833313   0.4166687   0.4166687  )
       176           C   tau( 176) = (   0.5833313   0.4166687   0.7500020  )
       177           C   tau( 177) = (   0.5833313   0.7500020   0.0833353  )
       178           C   tau( 178) = (   0.5833313   0.7500020   0.4166687  )
       179           C   tau( 179) = (   0.5833313   0.7500020   0.7500020  )
       180           C   tau( 180) = (   0.9166647   0.0833353   0.0833353  )
       181           C   tau( 181) = (   0.9166647   0.0833353   0.4166687  )
       182           C   tau( 182) = (   0.9166647   0.0833353   0.7500020  )
       183           C   tau( 183) = (   0.9166647   0.4166687   0.0833353  )
       184           C   tau( 184) = (   0.9166647   0.4166687   0.4166687  )
       185           C   tau( 185) = (   0.9166647   0.4166687   0.7500020  )
       186           C   tau( 186) = (   0.9166647   0.7500020   0.0833353  )
       187           C   tau( 187) = (   0.9166647   0.7500020   0.4166687  )
       188           C   tau( 188) = (   0.9166647   0.7500020   0.7500020  )
       189           C   tau( 189) = (   0.1666667   0.1666667   0.1666667  )
       190           C   tau( 190) = (   0.1666667   0.1666667   0.5000000  )
       191           C   tau( 191) = (   0.1666667   0.1666667   0.8333333  )
       192           C   tau( 192) = (   0.1666667   0.5000000   0.1666667  )
       193           C   tau( 193) = (   0.1666667   0.5000000   0.5000000  )
       194           C   tau( 194) = (   0.1666667   0.5000000   0.8333333  )
       195           C   tau( 195) = (   0.1666667   0.8333333   0.1666667  )
       196           C   tau( 196) = (   0.1666667   0.8333333   0.5000000  )
       197           C   tau( 197) = (   0.1666667   0.8333333   0.8333333  )
       198           C   tau( 198) = (   0.5000000   0.1666667   0.1666667  )
       199           C   tau( 199) = (   0.5000000   0.1666667   0.5000000  )
       200           C   tau( 200) = (   0.5000000   0.1666667   0.8333333  )
       201           C   tau( 201) = (   0.5000000   0.5000000   0.1666667  )
       202           C   tau( 202) = (   0.5000000   0.5000000   0.5000000  )
       203           C   tau( 203) = (   0.5000000   0.5000000   0.8333333  )
       204           C   tau( 204) = (   0.5000000   0.8333333   0.1666667  )
       205           C   tau( 205) = (   0.5000000   0.8333333   0.5000000  )
       206           C   tau( 206) = (   0.5000000   0.8333333   0.8333333  )
       207           C   tau( 207) = (   0.8333333   0.1666667   0.1666667  )
       208           C   tau( 208) = (   0.8333333   0.1666667   0.5000000  )
       209           C   tau( 209) = (   0.8333333   0.1666667   0.8333333  )
       210           C   tau( 210) = (   0.8333333   0.5000000   0.1666667  )
       211           C   tau( 211) = (   0.8333333   0.5000000   0.5000000  )
       212           C   tau( 212) = (   0.8333333   0.5000000   0.8333333  )
       213           C   tau( 213) = (   0.8333333   0.8333333   0.1666667  )
       214           C   tau( 214) = (   0.8333333   0.8333333   0.5000000  )
       215           C   tau( 215) = (   0.8333333   0.8333333   0.8333333  )

   Crystallographic axes

     site n.     atom                  positions (cryst. coord.)
         1           C   tau(   1) = (  0.0833353  0.2499980  0.4166687  )
         2           C   tau(   2) = (  0.0833353  0.2499980  0.7500020  )
         3           C   tau(   3) = (  0.0833353  0.5833313  0.0833353  )
         4           C   tau(   4) = (  0.0833353  0.5833313  0.4166687  )
         5           C   tau(   5) = (  0.0833353  0.5833313  0.7500020  )
         6           C   tau(   6) = (  0.0833353  0.9166647  0.0833353  )
         7           C   tau(   7) = (  0.0833353  0.9166647  0.4166687  )
         8           C   tau(   8) = (  0.0833353  0.9166647  0.7500020  )
         9           C   tau(   9) = (  0.4166687  0.2499980  0.0833353  )
        10           C   tau(  10) = (  0.4166687  0.2499980  0.4166687  )
        11           C   tau(  11) = (  0.4166687  0.2499980  0.7500020  )
        12           C   tau(  12) = (  0.4166687  0.5833313  0.0833353  )
        13           C   tau(  13) = (  0.4166687  0.5833313  0.4166687  )
        14           C   tau(  14) = (  0.4166687  0.5833313  0.7500020  )
        15           C   tau(  15) = (  0.4166687  0.9166647  0.0833353  )
        16           C   tau(  16) = (  0.4166687  0.9166647  0.4166687  )
        17           C   tau(  17) = (  0.4166687  0.9166647  0.7500020  )
        18           C   tau(  18) = (  0.7500020  0.2499980  0.0833353  )
        19           C   tau(  19) = (  0.7500020  0.2499980  0.4166687  )
        20           C   tau(  20) = (  0.7500020  0.2499980  0.7500020  )
        21           C   tau(  21) = (  0.7500020  0.5833313  0.0833353  )
        22           C   tau(  22) = (  0.7500020  0.5833313  0.4166687  )
        23           C   tau(  23) = (  0.7500020  0.5833313  0.7500020  )
        24           C   tau(  24) = (  0.7500020  0.9166647  0.0833353  )
        25           C   tau(  25) = (  0.7500020  0.9166647  0.4166687  )
        26           C   tau(  26) = (  0.7500020  0.9166647  0.7500020  )
        27           C   tau(  27) = (  0.0000000  0.0000000  0.1666667  )
        28           C   tau(  28) = (  0.0000000  0.0000000  0.5000000  )
        29           C   tau(  29) = (  0.0000000  0.0000000  0.8333333  )
        30           C   tau(  30) = (  0.0000000  0.3333333  0.1666667  )
        31           C   tau(  31) = (  0.0000000  0.3333333  0.5000000  )
        32           C   tau(  32) = (  0.0000000  0.3333333  0.8333333  )
        33           C   tau(  33) = (  0.0000000  0.6666667  0.1666667  )
        34           C   tau(  34) = (  0.0000000  0.6666667  0.5000000  )
        35           C   tau(  35) = (  0.0000000  0.6666667  0.8333333  )
        36           C   tau(  36) = (  0.3333333  0.0000000  0.1666667  )
        37           C   tau(  37) = (  0.3333333  0.0000000  0.5000000  )
        38           C   tau(  38) = (  0.3333333  0.0000000  0.8333333  )
        39           C   tau(  39) = (  0.3333333  0.3333333  0.1666667  )
        40           C   tau(  40) = (  0.3333333  0.3333333  0.5000000  )
        41           C   tau(  41) = (  0.3333333  0.3333333  0.8333333  )
        42           C   tau(  42) = (  0.3333333  0.6666667  0.1666667  )
        43           C   tau(  43) = (  0.3333333  0.6666667  0.5000000  )
        44           C   tau(  44) = (  0.3333333  0.6666667  0.8333333  )
        45           C   tau(  45) = (  0.6666667  0.0000000  0.1666667  )
        46           C   tau(  46) = (  0.6666667  0.0000000  0.5000000  )
        47           C   tau(  47) = (  0.6666667  0.0000000  0.8333333  )
        48           C   tau(  48) = (  0.6666667  0.3333333  0.1666667  )
        49           C   tau(  49) = (  0.6666667  0.3333333  0.5000000  )
        50           C   tau(  50) = (  0.6666667  0.3333333  0.8333333  )
        51           C   tau(  51) = (  0.6666667  0.6666667  0.1666667  )
        52           C   tau(  52) = (  0.6666667  0.6666667  0.5000000  )
        53           C   tau(  53) = (  0.6666667  0.6666667  0.8333333  )
        54           C   tau(  54) = (  0.0833353  0.0833353  0.2499980  )
        55           C   tau(  55) = (  0.0833353  0.0833353  0.5833313  )
        56           C   tau(  56) = (  0.0833353  0.0833353  0.9166647  )
        57           C   tau(  57) = (  0.0833353  0.4166687  0.2499980  )
        58           C   tau(  58) = (  0.0833353  0.4166687  0.5833313  )
        59           C   tau(  59) = (  0.0833353  0.4166687  0.9166647  )
        60           C   tau(  60) = (  0.0833353  0.7500020  0.2499980  )
        61           C   tau(  61) = (  0.0833353  0.7500020  0.5833313  )
        62           C   tau(  62) = (  0.0833353  0.7500020  0.9166647  )
        63           C   tau(  63) = (  0.4166687  0.0833353  0.2499980  )
        64           C   tau(  64) = (  0.4166687  0.0833353  0.5833313  )
        65           C   tau(  65) = (  0.4166687  0.0833353  0.9166647  )
        66           C   tau(  66) = (  0.4166687  0.4166687  0.2499980  )
        67           C   tau(  67) = (  0.4166687  0.4166687  0.5833313  )
        68           C   tau(  68) = (  0.4166687  0.4166687  0.9166647  )
        69           C   tau(  69) = (  0.4166687  0.7500020  0.2499980  )
        70           C   tau(  70) = (  0.4166687  0.7500020  0.5833313  )
        71           C   tau(  71) = (  0.4166687  0.7500020  0.9166647  )
        72           C   tau(  72) = (  0.7500020  0.0833353  0.2499980  )
        73           C   tau(  73) = (  0.7500020  0.0833353  0.5833313  )
        74           C   tau(  74) = (  0.7500020  0.0833353  0.9166647  )
        75           C   tau(  75) = (  0.7500020  0.4166687  0.2499980  )
        76           C   tau(  76) = (  0.7500020  0.4166687  0.5833313  )
        77           C   tau(  77) = (  0.7500020  0.4166687  0.9166647  )
        78           C   tau(  78) = (  0.7500020  0.7500020  0.2499980  )
        79           C   tau(  79) = (  0.7500020  0.7500020  0.5833313  )
        80           C   tau(  80) = (  0.7500020  0.7500020  0.9166647  )
        81           C   tau(  81) = (  0.0000000  0.1666667  0.0000000  )
        82           C   tau(  82) = (  0.0000000  0.1666667  0.3333333  )
        83           C   tau(  83) = (  0.0000000  0.1666667  0.6666667  )
        84           C   tau(  84) = (  0.0000000  0.5000000  0.0000000  )
        85           C   tau(  85) = (  0.0000000  0.5000000  0.3333333  )
        86           C   tau(  86) = (  0.0000000  0.5000000  0.6666667  )
        87           C   tau(  87) = (  0.0000000  0.8333333  0.0000000  )
        88           C   tau(  88) = (  0.0000000  0.8333333  0.3333333  )
        89           C   tau(  89) = (  0.0000000  0.8333333  0.6666667  )
        90           C   tau(  90) = (  0.3333333  0.1666667  0.0000000  )
        91           C   tau(  91) = (  0.3333333  0.1666667  0.3333333  )
        92           C   tau(  92) = (  0.3333333  0.1666667  0.6666667  )
        93           C   tau(  93) = (  0.3333333  0.5000000  0.0000000  )
        94           C   tau(  94) = (  0.3333333  0.5000000  0.3333333  )
        95           C   tau(  95) = (  0.3333333  0.5000000  0.6666667  )
        96           C   tau(  96) = (  0.3333333  0.8333333  0.0000000  )
        97           C   tau(  97) = (  0.3333333  0.8333333  0.3333333  )
        98           C   tau(  98) = (  0.3333333  0.8333333  0.6666667  )
        99           C   tau(  99) = (  0.6666667  0.1666667  0.0000000  )
       100           C   tau( 100) = (  0.6666667  0.1666667  0.3333333  )
       101           C   tau( 101) = (  0.6666667  0.1666667  0.6666667  )
       102           C   tau( 102) = (  0.6666667  0.5000000  0.0000000  )
       103           C   tau( 103) = (  0.6666667  0.5000000  0.3333333  )
       104           C   tau( 104) = (  0.6666667  0.5000000  0.6666667  )
       105           C   tau( 105) = (  0.6666667  0.8333333  0.0000000  )
       106           C   tau( 106) = (  0.6666667  0.8333333  0.3333333  )
       107           C   tau( 107) = (  0.6666667  0.8333333  0.6666667  )
       108           C   tau( 108) = (  0.2499980  0.2499980  0.2499980  )
       109           C   tau( 109) = (  0.2499980  0.2499980  0.5833313  )
       110           C   tau( 110) = (  0.2499980  0.2499980  0.9166647  )
       111           C   tau( 111) = (  0.2499980  0.5833313  0.2499980  )
       112           C   tau( 112) = (  0.2499980  0.5833313  0.5833313  )
       113           C   tau( 113) = (  0.2499980  0.5833313  0.9166647  )
       114           C   tau( 114) = (  0.2499980  0.9166647  0.2499980  )
       115           C   tau( 115) = (  0.2499980  0.9166647  0.5833313  )
       116           C   tau( 116) = (  0.2499980  0.9166647  0.9166647  )
       117           C   tau( 117) = (  0.5833313  0.2499980  0.2499980  )
       118           C   tau( 118) = (  0.5833313  0.2499980  0.5833313  )
       119           C   tau( 119) = (  0.5833313  0.2499980  0.9166647  )
       120           C   tau( 120) = (  0.5833313  0.5833313  0.2499980  )
       121           C   tau( 121) = (  0.5833313  0.5833313  0.5833313  )
       122           C   tau( 122) = (  0.5833313  0.5833313  0.9166647  )
       123           C   tau( 123) = (  0.5833313  0.9166647  0.2499980  )
       124           C   tau( 124) = (  0.5833313  0.9166647  0.5833313  )
       125           C   tau( 125) = (  0.5833313  0.9166647  0.9166647  )
       126           C   tau( 126) = (  0.9166647  0.2499980  0.2499980  )
       127           C   tau( 127) = (  0.9166647  0.2499980  0.5833313  )
       128           C   tau( 128) = (  0.9166647  0.2499980  0.9166647  )
       129           C   tau( 129) = (  0.9166647  0.5833313  0.2499980  )
       130           C   tau( 130) = (  0.9166647  0.5833313  0.5833313  )
       131           C   tau( 131) = (  0.9166647  0.5833313  0.9166647  )
       132           C   tau( 132) = (  0.9166647  0.9166647  0.2499980  )
       133           C   tau( 133) = (  0.9166647  0.9166647  0.5833313  )
       134           C   tau( 134) = (  0.9166647  0.9166647  0.9166647  )
       135           C   tau( 135) = (  0.1666667  0.0000000  0.0000000  )
       136           C   tau( 136) = (  0.1666667  0.0000000  0.3333333  )
       137           C   tau( 137) = (  0.1666667  0.0000000  0.6666667  )
       138           C   tau( 138) = (  0.1666667  0.3333333  0.0000000  )
       139           C   tau( 139) = (  0.1666667  0.3333333  0.3333333  )
       140           C   tau( 140) = (  0.1666667  0.3333333  0.6666667  )
       141           C   tau( 141) = (  0.1666667  0.6666667  0.0000000  )
       142           C   tau( 142) = (  0.1666667  0.6666667  0.3333333  )
       143           C   tau( 143) = (  0.1666667  0.6666667  0.6666667  )
       144           C   tau( 144) = (  0.5000000  0.0000000  0.0000000  )
       145           C   tau( 145) = (  0.5000000  0.0000000  0.3333333  )
       146           C   tau( 146) = (  0.5000000  0.0000000  0.6666667  )
       147           C   tau( 147) = (  0.5000000  0.3333333  0.0000000  )
       148           C   tau( 148) = (  0.5000000  0.3333333  0.3333333  )
       149           C   tau( 149) = (  0.5000000  0.3333333  0.6666667  )
       150           C   tau( 150) = (  0.5000000  0.6666667  0.0000000  )
       151           C   tau( 151) = (  0.5000000  0.6666667  0.3333333  )
       152           C   tau( 152) = (  0.5000000  0.6666667  0.6666667  )
       153           C   tau( 153) = (  0.8333333  0.0000000  0.0000000  )
       154           C   tau( 154) = (  0.8333333  0.0000000  0.3333333  )
       155           C   tau( 155) = (  0.8333333  0.0000000  0.6666667  )
       156           C   tau( 156) = (  0.8333333  0.3333333  0.0000000  )
       157           C   tau( 157) = (  0.8333333  0.3333333  0.3333333  )
       158           C   tau( 158) = (  0.8333333  0.3333333  0.6666667  )
       159           C   tau( 159) = (  0.8333333  0.6666667  0.0000000  )
       160           C   tau( 160) = (  0.8333333  0.6666667  0.3333333  )
       161           C   tau( 161) = (  0.8333333  0.6666667  0.6666667  )
       162           C   tau( 162) = (  0.2499980  0.0833353  0.0833353  )
       163           C   tau( 163) = (  0.2499980  0.0833353  0.4166687  )
       164           C   tau( 164) = (  0.2499980  0.0833353  0.7500020  )
       165           C   tau( 165) = (  0.2499980  0.4166687  0.0833353  )
       166           C   tau( 166) = (  0.2499980  0.4166687  0.4166687  )
       167           C   tau( 167) = (  0.2499980  0.4166687  0.7500020  )
       168           C   tau( 168) = (  0.2499980  0.7500020  0.0833353  )
       169           C   tau( 169) = (  0.2499980  0.7500020  0.4166687  )
       170           C   tau( 170) = (  0.2499980  0.7500020  0.7500020  )
       171           C   tau( 171) = (  0.5833313  0.0833353  0.0833353  )
       172           C   tau( 172) = (  0.5833313  0.0833353  0.4166687  )
       173           C   tau( 173) = (  0.5833313  0.0833353  0.7500020  )
       174           C   tau( 174) = (  0.5833313  0.4166687  0.0833353  )
       175           C   tau( 175) = (  0.5833313  0.4166687  0.4166687  )
       176           C   tau( 176) = (  0.5833313  0.4166687  0.7500020  )
       177           C   tau( 177) = (  0.5833313  0.7500020  0.0833353  )
       178           C   tau( 178) = (  0.5833313  0.7500020  0.4166687  )
       179           C   tau( 179) = (  0.5833313  0.7500020  0.7500020  )
       180           C   tau( 180) = (  0.9166647  0.0833353  0.0833353  )
       181           C   tau( 181) = (  0.9166647  0.0833353  0.4166687  )
       182           C   tau( 182) = (  0.9166647  0.0833353  0.7500020  )
       183           C   tau( 183) = (  0.9166647  0.4166687  0.0833353  )
       184           C   tau( 184) = (  0.9166647  0.4166687  0.4166687  )
       185           C   tau( 185) = (  0.9166647  0.4166687  0.7500020  )
       186           C   tau( 186) = (  0.9166647  0.7500020  0.0833353  )
       187           C   tau( 187) = (  0.9166647  0.7500020  0.4166687  )
       188           C   tau( 188) = (  0.9166647  0.7500020  0.7500020  )
       189           C   tau( 189) = (  0.1666667  0.1666667  0.1666667  )
       190           C   tau( 190) = (  0.1666667  0.1666667  0.5000000  )
       191           C   tau( 191) = (  0.1666667  0.1666667  0.8333333  )
       192           C   tau( 192) = (  0.1666667  0.5000000  0.1666667  )
       193           C   tau( 193) = (  0.1666667  0.5000000  0.5000000  )
       194           C   tau( 194) = (  0.1666667  0.5000000  0.8333333  )
       195           C   tau( 195) = (  0.1666667  0.8333333  0.1666667  )
       196           C   tau( 196) = (  0.1666667  0.8333333  0.5000000  )
       197           C   tau( 197) = (  0.1666667  0.8333333  0.8333333  )
       198           C   tau( 198) = (  0.5000000  0.1666667  0.1666667  )
       199           C   tau( 199) = (  0.5000000  0.1666667  0.5000000  )
       200           C   tau( 200) = (  0.5000000  0.1666667  0.8333333  )
       201           C   tau( 201) = (  0.5000000  0.5000000  0.1666667  )
       202           C   tau( 202) = (  0.5000000  0.5000000  0.5000000  )
       203           C   tau( 203) = (  0.5000000  0.5000000  0.8333333  )
       204           C   tau( 204) = (  0.5000000  0.8333333  0.1666667  )
       205           C   tau( 205) = (  0.5000000  0.8333333  0.5000000  )
       206           C   tau( 206) = (  0.5000000  0.8333333  0.8333333  )
       207           C   tau( 207) = (  0.8333333  0.1666667  0.1666667  )
       208           C   tau( 208) = (  0.8333333  0.1666667  0.5000000  )
       209           C   tau( 209) = (  0.8333333  0.1666667  0.8333333  )
       210           C   tau( 210) = (  0.8333333  0.5000000  0.1666667  )
       211           C   tau( 211) = (  0.8333333  0.5000000  0.5000000  )
       212           C   tau( 212) = (  0.8333333  0.5000000  0.8333333  )
       213           C   tau( 213) = (  0.8333333  0.8333333  0.1666667  )
       214           C   tau( 214) = (  0.8333333  0.8333333  0.5000000  )
       215           C   tau( 215) = (  0.8333333  0.8333333  0.8333333  )

     number of k points=     4  Gaussian smearing, width (Ry)=  0.0100
                       cart. coord. in units 2pi/alat
        k(    1) = (   0.0000000   0.0000000   0.0000000), wk =   0.2500000
        k(    2) = (   0.0000000   0.0000000  -0.5000000), wk =   0.7500000
        k(    3) = (   0.0000000  -0.5000000  -0.5000000), wk =   0.7500000
        k(    4) = (  -0.5000000  -0.5000000  -0.5000000), wk =   0.2500000

                       cryst. coord.
        k(    1) = (   0.0000000   0.0000000   0.0000000), wk =   0.2500000
        k(    2) = (   0.0000000   0.0000000  -0.5000000), wk =   0.7500000
        k(    3) = (   0.0000000  -0.5000000  -0.5000000), wk =   0.7500000
        k(    4) = (  -0.5000000  -0.5000000  -0.5000000), wk =   0.2500000

     Dense  grid:   918657 G-vectors     FFT dimensions: ( 135, 135, 135)

     Smooth grid:   656775 G-vectors     FFT dimensions: ( 108, 108, 108)

     Dynamical RAM for                 wfc:      10.10 MB

     Dynamical RAM for     wfc (w. buffer):      10.10 MB

     Dynamical RAM for           str. fact:       0.22 MB

     Dynamical RAM for           local pot:       0.00 MB

     Dynamical RAM for          nlocal pot:      33.67 MB

     Dynamical RAM for                qrad:       0.43 MB

     Dynamical RAM for          rho,v,vnew:       1.91 MB

     Dynamical RAM for               rhoin:       0.64 MB

     Dynamical RAM for            rho*nmix:       3.50 MB

     Dynamical RAM for           G-vectors:       0.90 MB

     Dynamical RAM for          h,s,v(r/c):     195.01 MB

     Dynamical RAM for          <psi|beta>:      13.54 MB

     Dynamical RAM for                 psi:      40.41 MB

     Dynamical RAM for                hpsi:      40.41 MB

     Dynamical RAM for                spsi:      40.41 MB

     Dynamical RAM for      wfcinit/wfcrot:      26.30 MB

     Dynamical RAM for           addusdens:      14.29 MB

     Dynamical RAM for          addusforce:      37.84 MB

     Dynamical RAM for         addusstress:       2.82 MB

     Estimated static dynamical RAM per process >      50.39 MB

     Estimated max dynamical RAM per process >     383.67 MB

     Estimated total dynamical RAM >      95.26 GB

     Atomic positions and unit cell read from directory:
     ./diamond.save/
     Atomic positions from file used, from input discarded
 

     Check: negative core charge=   -0.000014

     The initial density is read from file :
     ./diamond.save/charge-density



     %%%%%%%%%%%%%%%%%%%%%%%%%%%%%%%%%%%%%%%%%%%%%%%%%%%%%%%%%%%%%%%%%%%%%%%%
     %                                                                      %
     % You are using vdW-DF, which was implemented by the Thonhauser group. %
     % Please cite the following two papers that made this development      %
     % possible and the two reviews that describe the various versions:     %
     %                                                                      %
     %   T. Thonhauser et al., PRL 115, 136402 (2015).                      %
     %   T. Thonhauser et al., PRB 76, 125112 (2007).                       %
     %   K. Berland et al., Rep. Prog. Phys. 78, 066501 (2015).             %
     %   D.C. Langreth et al., J. Phys.: Condens. Matter 21, 084203 (2009). %
     %                                                                      %
     % If you are calculating stress with vdW-DF, please also cite:         %
     %                                                                      %
     %   R. Sabatini et al., J. Phys.: Condens. Matter 24, 424209 (2012).   %
     %                                                                      %
     %%%%%%%%%%%%%%%%%%%%%%%%%%%%%%%%%%%%%%%%%%%%%%%%%%%%%%%%%%%%%%%%%%%%%%%%

     %%%%%%%%%%%%%%%%%%%%%%%%%%%%%%%%%%%%%%%%%%%%%%%%%%%%%%%%%%%%%%%%%%%%%%%%
     %                                                                      %
     %  vdW-DF NEWS:                                                        %
     %                                                                      %
     %  * vdW-DF3 is now available. DOI: 10.1021/acs.jctc.0c00471           %
     %    use with input_dft = 'vdW-DF3-opt1' or 'vdW-DF3-opt2'             %
     %                                                                      %
     %  * Unscreened and range-separated vdW-DF hybrid functionals          %
     %    DOI: 10.1063/1.4986522 and 10.1088/1361-648X/ac2ad2               %
     %    use with input_dft = 'vdW-DF-cx0' (etc) and 'vdW-DF-ahcx'         %
     %                                                                      %
     %%%%%%%%%%%%%%%%%%%%%%%%%%%%%%%%%%%%%%%%%%%%%%%%%%%%%%%%%%%%%%%%%%%%%%%%


     Carrying out vdW-DF run using the following parameters:
     Nqs    =  20  Npoints =  1024  r_max =  100.000
     q_mesh =  0.00001000  0.04494208  0.09755937  0.15916263
               0.23128650  0.31572767  0.41458969  0.53033537
               0.66584808  0.82450364  1.01025438  1.22772762
               1.48234092  1.78043706  2.12944203  2.53805004
               3.01644009  3.57652955  4.23227104  5.00000000


     -----------------------------------------------
     Non-local corr. energy    =       7.36200357 Ry
     -----------------------------------------------

     Wavefunctions not found or not readable, recomputing them from scratch
     Starting wfcs are  860 randomized atomic wfcs
     Checking if some PAW data can be deallocated... 

     total cpu time spent up to now is        7.7 secs

     Self-consistent Calculation

     iteration #  1     ecut=    70.00 Ry     beta= 0.70
     Davidson diagonalization with overlap

---- Real-time Memory Report at c_bands before calling an iterative solver
           359 MiB given to the printing process from OS
             0 MiB allocation reported by mallinfo(arena+hblkhd)
       2022115 MiB available memory on the node where the printing process lives
------------------
     ethr =  1.00E-05,  avg # of iterations = 23.3

     Threshold (ethr) on eigenvalues was too large:
     Diagonalizing with lowered threshold

     Davidson diagonalization with overlap

---- Real-time Memory Report at c_bands before calling an iterative solver
           557 MiB given to the printing process from OS
             0 MiB allocation reported by mallinfo(arena+hblkhd)
       2019256 MiB available memory on the node where the printing process lives
------------------
     ethr =  1.55E-10,  avg # of iterations = 44.8


     -----------------------------------------------
     Non-local corr. energy    =       7.36200339 Ry
     -----------------------------------------------


     total cpu time spent up to now is      289.4 secs

     total energy              =   -4082.95005529 Ry
     estimated scf accuracy    <       0.00000019 Ry

     iteration #  2     ecut=    70.00 Ry     beta= 0.70
     Davidson diagonalization with overlap

---- Real-time Memory Report at c_bands before calling an iterative solver
           559 MiB given to the printing process from OS
             0 MiB allocation reported by mallinfo(arena+hblkhd)
       2018611 MiB available memory on the node where the printing process lives
------------------
     ethr =  2.17E-11,  avg # of iterations = 13.5


     -----------------------------------------------
     Non-local corr. energy    =       7.36200337 Ry
     -----------------------------------------------


     total cpu time spent up to now is      373.1 secs

     total energy              =   -4082.95005430 Ry
     estimated scf accuracy    <       0.00002776 Ry

     iteration #  3     ecut=    70.00 Ry     beta= 0.70
     Davidson diagonalization with overlap

---- Real-time Memory Report at c_bands before calling an iterative solver
           559 MiB given to the printing process from OS
             0 MiB allocation reported by mallinfo(arena+hblkhd)
       2018535 MiB available memory on the node where the printing process lives
------------------
     ethr =  2.17E-11,  avg # of iterations = 12.8


     -----------------------------------------------
     Non-local corr. energy    =       7.36200332 Ry
     -----------------------------------------------


     total cpu time spent up to now is      442.9 secs

     total energy              =   -4082.95005540 Ry
     estimated scf accuracy    <       0.00000027 Ry

     iteration #  4     ecut=    70.00 Ry     beta= 0.70
     Davidson diagonalization with overlap

---- Real-time Memory Report at c_bands before calling an iterative solver
           559 MiB given to the printing process from OS
             0 MiB allocation reported by mallinfo(arena+hblkhd)
       2018471 MiB available memory on the node where the printing process lives
------------------
     ethr =  2.17E-11,  avg # of iterations = 13.8


     -----------------------------------------------
     Non-local corr. energy    =       7.36200371 Ry
     -----------------------------------------------


     total cpu time spent up to now is      493.7 secs

     End of self-consistent calculation

          k = 0.0000 0.0000 0.0000 ( 82057 PWs)   bands (ev):

    -8.5447  -7.5582  -7.5582  -7.5485  -7.5485  -7.5483  -7.4173  -6.5603
    -6.5603  -6.5601  -6.5589  -6.5589  -6.5579  -6.5579  -6.5579  -6.5191
    -6.5191  -6.5188  -6.2758  -5.5848  -5.5755  -5.5755  -5.5754  -5.5561
    -5.5561  -5.5560  -5.3637  -4.5683  -4.5683  -4.5643  -4.5643  -4.5641
    -4.4718  -3.6764  -3.6764  -3.6761  -3.6656  -3.6656  -3.6654  -3.6599
    -3.6599  -3.6592  -3.6571  -3.6571  -3.6570  -3.6504  -3.6504  -3.6504
    -3.6419  -3.6419  -3.6368  -3.6367  -3.6367  -3.5666  -3.5666  -3.5662
    -3.3294  -2.9037  -2.9034  -2.9034  -2.9020  -2.9013  -2.9013  -2.9003
    -2.9001  -2.9001  -2.8945  -2.8945  -2.8942  -2.8796  -2.8796  -2.8720
    -2.8720  -2.8720  -2.8610  -2.8610  -2.8610  -2.8040  -2.8040  -2.8039
    -1.9388  -1.2451  -1.2451  -1.2449  -1.2381  -1.2379  -1.2379  -1.2366
    -1.2366  -1.2026  -1.2026  -1.2026  -0.7381   0.0835   0.0835   0.0948
     0.0954   0.0954   0.1543   0.5737   0.5737   0.5737   0.5764   0.5764
     0.5767   0.5773   0.5779   0.5779   0.5933   0.5936   0.5936   0.5969
     0.5969   0.5983   0.5985   0.5985   0.6070   0.6070   0.6073   0.6514
     0.6515   0.6515   0.8144   0.8827   0.9075   0.9078   0.9078   0.9111
     0.9111   0.9137   0.9137   0.9139   0.9236   0.9236   0.9238   0.9272
     0.9273   0.9273   0.9363   0.9363   0.9366   0.9457   0.9457   1.2317
     1.2317   1.2318   1.6532   1.8882   1.8884   1.8884   1.9109   1.9109
     1.9110   1.9246   1.9246   2.0203   2.0203   2.0204   3.1020   3.5034
     3.5276   3.5276   3.5276   3.5649   3.5650   3.5650   3.5983   3.6255
     3.6255   3.6256   3.6280   3.6280   3.6280   3.6363   3.6363   3.7182
     3.7630   3.7630   3.7632   4.1104   4.1105   4.1105   4.1199   4.1199
     4.1204   4.1205   4.1205   4.1237   4.1237   4.1237   4.1276   4.1281
     4.1281   4.1282   4.1395   4.1395   4.1395   4.1432   4.1432   4.3467
     4.3469   4.3469   5.0718   5.1310   5.1311   5.1311   5.1505   5.1505
     5.1507   5.1507   5.1507   5.1536   5.1537   5.1537   5.1709   5.1712
     5.1712   5.1757   5.1757   5.1761   5.1915   5.2316   5.2317   5.3283
     5.3283   5.3287   5.3375   5.5928   5.6030   5.6030   5.6031   5.6076
     5.6076   5.6168   5.6171   5.6171   5.6222   5.6222   5.6225   5.6242
     5.6392   5.6393   5.6393   5.6396   5.6396   5.6432   5.6432   5.6525
     5.6528   5.6528   5.6847   5.6847   5.6850   6.0750   6.0750   6.0755
     6.6282   6.6283   6.6283   6.6702   6.6702   6.6703   6.7576   7.1390
     7.1390   7.1390   7.1438   7.1438   7.1540   7.1542   7.1542   7.2338
     7.2339   7.2339   7.5545   7.5787   7.5788   7.5788   7.5812   7.5814
     7.5814   7.6153   7.6153   7.6153   7.6503   7.6504   7.6504   7.8463
     7.8463   7.8488   7.8489   7.8489   7.8707   7.8729   7.8732   7.8732
     7.8783   7.8785   7.8785   7.9051   7.9051   7.9120   7.9120   7.9123
     7.9141   7.9142   7.9142   7.9511   7.9513   7.9513   8.0434   8.0438
     8.0438   8.0483   8.0864   8.0864   8.0892   8.0892   8.0893   8.0954
     8.0964   8.0985   8.0985   8.0985   8.0988   8.0988   8.1013   8.1013
     8.1015   8.1080   8.1080   8.1082   8.1122   8.1122   8.1122   8.1124
     8.1124   8.1125   8.1539   8.1541   8.1541   8.1661   8.1661   8.1801
     8.1801   8.1801   8.2069   8.2069   8.2071   8.2280   8.2407   8.2407
     8.2407   8.2994   8.2994   8.6691   8.6691   8.6693   8.8711   8.8711
     8.8844   8.8846   8.8846   8.9035   8.9074   8.9074   8.9074   8.9177
     8.9178   8.9178   8.9215   8.9215   8.9216   8.9349   8.9487   8.9487
     8.9952   8.9954   8.9954   9.8061   9.8061   9.8066  10.1419  10.2932
    10.2933  10.2933  10.3046  10.3047  10.3047  10.3155  10.3155  10.3155
    10.3960  10.3961  10.3961  10.4957  10.4957  10.5410  10.5411  10.5411
    10.5449  10.5449  10.5450  10.5450  10.5450  10.5637  10.5637  10.5637
    10.5730  10.5731  10.5731  10.5836  10.5836  11.2542  11.2542  11.2543
    11.4550  11.4551  11.4551  11.4645  11.4832  11.4833  11.4833  11.5129
    11.5129  11.6851  12.7011  12.7011  12.7012  14.5270  14.5270  14.5270
    17.1853  17.1853  17.2333  17.2333  17.2334  17.2590  17.8485  17.8485
    17.8497  17.8654  17.8700  17.8700  17.9105  17.9105  18.0169  18.0267
    18.0267  18.0270  18.6010  18.6010  18.6010  19.3900  19.3901  19.3901
    19.4163  19.4164  19.4164  19.4515  19.4515  19.4517  19.4735  19.4735
    19.5145  20.0797  20.0797  20.0802  20.0802  20.0806  20.0902  20.0907
    20.0907  20.1077  20.1077  20.1085  20.1348  20.1352  20.1353  20.1354
    20.1451  20.1451  20.1453  20.1998  20.1998  20.2005  20.2386  20.2386
    20.2601  20.5426  20.5426  20.5426  20.5455  20.5455  20.5470  20.5621
    20.5621  20.5621  20.5852  20.5852  20.5852  20.6503  20.6503  20.6600
    20.6602  20.6602  20.6632  20.6634  20.6634  20.6684  20.6684  20.6687
    20.6775  20.6949  20.6949  20.6969

     occupation numbers 
     1.0000   1.0000   1.0000   1.0000   1.0000   1.0000   1.0000   1.0000
     1.0000   1.0000   1.0000   1.0000   1.0000   1.0000   1.0000   1.0000
     1.0000   1.0000   1.0000   1.0000   1.0000   1.0000   1.0000   1.0000
     1.0000   1.0000   1.0000   1.0000   1.0000   1.0000   1.0000   1.0000
     1.0000   1.0000   1.0000   1.0000   1.0000   1.0000   1.0000   1.0000
     1.0000   1.0000   1.0000   1.0000   1.0000   1.0000   1.0000   1.0000
     1.0000   1.0000   1.0000   1.0000   1.0000   1.0000   1.0000   1.0000
     1.0000   1.0000   1.0000   1.0000   1.0000   1.0000   1.0000   1.0000
     1.0000   1.0000   1.0000   1.0000   1.0000   1.0000   1.0000   1.0000
     1.0000   1.0000   1.0000   1.0000   1.0000   1.0000   1.0000   1.0000
     1.0000   1.0000   1.0000   1.0000   1.0000   1.0000   1.0000   1.0000
     1.0000   1.0000   1.0000   1.0000   1.0000   1.0000   1.0000   1.0000
     1.0000   1.0000   1.0000   1.0000   1.0000   1.0000   1.0000   1.0000
     1.0000   1.0000   1.0000   1.0000   1.0000   1.0000   1.0000   1.0000
     1.0000   1.0000   1.0000   1.0000   1.0000   1.0000   1.0000   1.0000
     1.0000   1.0000   1.0000   1.0000   1.0000   1.0000   1.0000   1.0000
     1.0000   1.0000   1.0000   1.0000   1.0000   1.0000   1.0000   1.0000
     1.0000   1.0000   1.0000   1.0000   1.0000   1.0000   1.0000   1.0000
     1.0000   1.0000   1.0000   1.0000   1.0000   1.0000   1.0000   1.0000
     1.0000   1.0000   1.0000   1.0000   1.0000   1.0000   1.0000   1.0000
     1.0000   1.0000   1.0000   1.0000   1.0000   1.0000   1.0000   1.0000
     1.0000   1.0000   1.0000   1.0000   1.0000   1.0000   1.0000   1.0000
     1.0000   1.0000   1.0000   1.0000   1.0000   1.0000   1.0000   1.0000
     1.0000   1.0000   1.0000   1.0000   1.0000   1.0000   1.0000   1.0000
     1.0000   1.0000   1.0000   1.0000   1.0000   1.0000   1.0000   1.0000
     1.0000   1.0000   1.0000   1.0000   1.0000   1.0000   1.0000   1.0000
     1.0000   1.0000   1.0000   1.0000   1.0000   1.0000   1.0000   1.0000
     1.0000   1.0000   1.0000   1.0000   1.0000   1.0000   1.0000   1.0000
     1.0000   1.0000   1.0000   1.0000   1.0000   1.0000   1.0000   1.0000
     1.0000   1.0000   1.0000   1.0000   1.0000   1.0000   1.0000   1.0000
     1.0000   1.0000   1.0000   1.0000   1.0000   1.0000   1.0000   1.0000
     1.0000   1.0000   1.0000   1.0000   1.0000   1.0000   1.0000   1.0000
     1.0000   1.0000   1.0000   1.0000   1.0000   1.0000   1.0000   1.0000
     1.0000   1.0000   1.0000   1.0000   1.0000   1.0000   1.0000   1.0000
     1.0000   1.0000   1.0000   1.0000   1.0000   1.0000   1.0000   1.0000
     1.0000   1.0000   1.0000   1.0000   1.0000   1.0000   1.0000   1.0000
     1.0000   1.0000   1.0000   1.0000   1.0000   1.0000   1.0000   1.0000
     1.0000   1.0000   1.0000   1.0000   1.0000   1.0000   1.0000   1.0000
     1.0000   1.0000   1.0000   1.0000   1.0000   1.0000   1.0000   1.0000
     1.0000   1.0000   1.0000   1.0000   1.0000   1.0000   1.0000   1.0000
     1.0000   1.0000   1.0000   1.0000   1.0000   1.0000   1.0000   1.0000
     1.0000   1.0000   1.0000   1.0000   1.0000   1.0000   1.0000   1.0000
     1.0000   1.0000   1.0000   1.0000   1.0000   1.0000   1.0000   1.0000
     1.0000   1.0000   1.0000   1.0000   1.0000   1.0000   1.0000   1.0000
     1.0000   1.0000   1.0000   1.0000   1.0000   1.0000   1.0000   1.0000
     1.0000   1.0000   1.0000   1.0000   1.0000   1.0000   1.0000   1.0000
     1.0000   1.0000   1.0000   1.0000   1.0000   1.0000   1.0000   1.0000
     1.0000   1.0000   1.0000   1.0000   1.0000   1.0000   1.0000   1.0000
     1.0000   1.0000   1.0000   1.0000   1.0000   1.0000   1.0000   1.0000
     1.0000   1.0000   1.0000   1.0000   1.0000   1.0000   1.0000   1.0000
     1.0000   1.0000   1.0000   1.0000   1.0000   1.0000   1.0000   1.0000
     1.0000   1.0000   1.0000   1.0000   1.0000   1.0000   1.0000   1.0000
     1.0000   1.0000   1.0000   1.0000   1.0000   1.0000   1.0000   1.0000
     1.0000   1.0000   1.0000   1.0000   1.0000   0.1600   0.1600   0.1599
     0.0000   0.0000   0.0000   0.0000   0.0000   0.0000   0.0000   0.0000
     0.0000   0.0000   0.0000   0.0000   0.0000   0.0000   0.0000   0.0000
     0.0000   0.0000   0.0000   0.0000   0.0000   0.0000   0.0000   0.0000
     0.0000   0.0000   0.0000   0.0000   0.0000   0.0000   0.0000   0.0000
     0.0000   0.0000   0.0000   0.0000   0.0000   0.0000   0.0000   0.0000
     0.0000   0.0000   0.0000   0.0000   0.0000   0.0000   0.0000   0.0000
     0.0000   0.0000   0.0000   0.0000   0.0000   0.0000   0.0000   0.0000
     0.0000   0.0000   0.0000   0.0000   0.0000   0.0000   0.0000   0.0000
     0.0000   0.0000   0.0000   0.0000   0.0000   0.0000   0.0000   0.0000
     0.0000   0.0000   0.0000   0.0000   0.0000   0.0000   0.0000   0.0000
     0.0000   0.0000   0.0000   0.0000

          k = 0.0000 0.0000-0.5000 ( 81982 PWs)   bands (ev):

    -8.3210  -8.2594  -7.3177  -7.3176  -7.3173  -7.2978  -7.2964  -7.2761
    -7.2760  -7.1180  -6.3209  -6.3192  -6.3149  -6.3149  -6.3132  -6.2944
    -6.2744  -6.2743  -6.2691  -6.0670  -5.3335  -5.3297  -5.3297  -5.3271
    -5.3113  -5.3109  -5.2777  -5.1460  -4.4108  -4.4014  -4.4012  -4.3930
    -4.3884  -4.3881  -4.3720  -4.3636  -4.3525  -4.3525  -4.3464  -4.3389
    -4.3220  -4.2975  -4.2972  -4.0560  -3.4614  -3.4613  -3.4606  -3.4597
    -3.4570  -3.4532  -3.4488  -3.4487  -3.4386  -3.4364  -3.4362  -3.4335
    -3.4269  -3.3463  -3.3463  -3.0823  -2.5743  -2.5743  -2.5724  -2.5554
    -2.5552  -2.5455  -2.5453  -2.5286  -2.4512  -2.4510  -2.4480  -2.4433
    -2.4264  -2.4258  -2.4183  -2.4182  -2.3980  -2.0336  -1.6298  -1.6254
    -1.6253  -1.6252  -1.6171  -1.6170  -1.6085  -1.5912  -1.5620  -1.5612
    -1.5611  -1.5602  -1.5338  -1.5337  -1.4841  -0.8345  -0.0778  -0.0759
    -0.0758  -0.0755  -0.0672  -0.0670  -0.0658  -0.0171   0.0629   0.0664
     0.0667   0.0747   0.1243   0.1244   0.1361   0.1617   0.2182   0.2199
     0.2222   0.2226   0.2495   0.3177   0.3179   0.5631   0.8160   0.8272
     0.8278   0.8331   0.8661   0.8661   0.8686   0.8870   0.9478   0.9479
     0.9676   1.0186   1.1340   1.1359   1.1360   1.1488   1.1732   1.2364
     1.2365   1.7240   1.9395   1.9640   1.9641   1.9720   2.0277   2.0426
     2.0427   2.1612   2.5776   2.5837   2.5838   2.5846   2.6029   2.6030
     2.6039   2.6171   2.6415   2.6470   2.6502   2.6512   2.6512   2.6559
     2.6561   2.6561   2.6647   2.6654   2.6850   2.6851   2.7596   2.7752
     2.7753   2.7964   2.8886   2.8892   2.9231   2.9323   2.9325   2.9592
     3.0638   3.0639   3.1242   3.8103   3.8105   3.8105   3.8296   3.8353
     3.9010   3.9011   3.9159   4.2526   4.3831   4.3836   4.3889   4.3889
     4.4442   4.4565   4.4566   4.6488   4.7093   4.7132   4.7135   4.7154
     5.0558   5.0678   5.0679   5.0706   5.0917   5.1112   5.1113   5.1206
     5.1692   5.1693   5.1857   5.1865   5.1921   5.2625   5.2625   5.3217
     5.4032   5.4037   5.4122   5.4123   5.4309   5.4363   5.4364   5.4403
     5.4479   5.4539   5.4647   5.4648   5.5146   5.5148   5.5227   5.5350
     5.5616   5.5685   5.5696   5.5698   5.7044   5.7045   5.7238   6.0940
     6.1016   6.1017   6.1263   6.1341   6.1394   6.1396   6.1398   6.1522
     6.1782   6.1783   6.1873   6.2310   6.2963   6.2964   6.3272   6.5085
     6.6738   6.6920   6.6936   6.6936   6.7370   6.7371   6.7502   6.7581
     6.8408   6.8408   6.8665   6.8694   6.8695   6.8791   6.8817   6.8830
     6.8833   6.8948   6.9060   6.9103   6.9103   6.9124   6.9125   6.9273
     6.9290   6.9336   6.9401   6.9402   6.9433   6.9498   6.9552   6.9556
     6.9611   6.9650   6.9704   6.9704   6.9778   6.9877   7.0023   7.0025
     7.3539   7.3540   7.4044   7.7067   7.7148   7.7149   7.7609   7.7625
     7.7967   7.7969   7.9143   7.9646   8.1285   8.1657   8.1673   8.1677
     8.1735   8.1938   8.1941   8.2387   8.2485   8.2807   8.2966   8.3016
     8.3017   8.3018   8.3143   8.3146   8.3343   8.3368   8.3371   8.3387
     8.3450   8.3642   8.3643   8.3645   8.3690   8.3693   8.3814   8.3814
     8.4071   8.4077   8.4152   8.4155   8.4371   8.4452   8.4660   8.4662
     8.4749   8.5308   8.6639   8.6978   8.6978   8.7035   8.7726   8.7729
     8.8060   8.8061   8.8344   8.8344   8.8364   8.8591   8.9797   9.1093
     9.1094   9.1748   9.2061   9.2214   9.2216   9.2436   9.3360   9.3361
     9.3778   9.4575   9.5561   9.5602   9.5645   9.5735   9.5735   9.5818
     9.5840   9.5853   9.5853   9.5882   9.6225   9.6225   9.6589   9.6591
     9.6593   9.6830   9.6902   9.6953   9.6955   9.7342   9.7444   9.8235
     9.8387   9.8546   9.8549   9.8687   9.8690   9.8716  10.0763  10.0997
    10.0999  10.1580  10.1583  10.1630  10.1720  10.1890  10.8679  10.8682
    11.1619  11.1905  11.1965  11.2122  11.2122  11.2329  11.2506  11.2558
    11.4107  11.4107  11.4960  11.4961  11.4979  11.5189  11.8052  11.8461
    11.8461  11.9435  11.9435  12.0584  12.3135  14.4300  14.4835  14.4835
    17.2913  17.2986  17.4824  17.5378  18.1934  18.2140  18.2152  18.2152
    18.2419  18.2967  18.2984  18.2985  18.3339  18.4727  18.8058  18.8121
    18.8130  18.8409  18.8531  18.8538  18.8564  18.8629  18.8764  18.8913
    18.8915  18.9086  18.9312  19.0018  19.0252  19.0480  19.0666  19.0667
    19.5653  19.5654  19.5736  19.5810  19.5829  19.5830  19.5840  19.5855
    19.6011  19.6012  19.6261  19.6261  19.6632  19.6797  19.6798  19.6878
    19.7253  19.7559  19.7559  19.8111  20.0688  20.0872  20.0895  20.0900
    20.0956  20.1017  20.1021  20.1160  20.1348  20.1353  20.1524  20.1693
    20.2354  20.2689  20.2692  20.3040  20.6566  20.6660  20.6820  20.6820
    20.7233  20.7234  20.7287  20.7303  20.7304  20.7352  20.7378  20.7394
    20.7406  20.7476  20.7496  20.7497

     occupation numbers 
     1.0000   1.0000   1.0000   1.0000   1.0000   1.0000   1.0000   1.0000
     1.0000   1.0000   1.0000   1.0000   1.0000   1.0000   1.0000   1.0000
     1.0000   1.0000   1.0000   1.0000   1.0000   1.0000   1.0000   1.0000
     1.0000   1.0000   1.0000   1.0000   1.0000   1.0000   1.0000   1.0000
     1.0000   1.0000   1.0000   1.0000   1.0000   1.0000   1.0000   1.0000
     1.0000   1.0000   1.0000   1.0000   1.0000   1.0000   1.0000   1.0000
     1.0000   1.0000   1.0000   1.0000   1.0000   1.0000   1.0000   1.0000
     1.0000   1.0000   1.0000   1.0000   1.0000   1.0000   1.0000   1.0000
     1.0000   1.0000   1.0000   1.0000   1.0000   1.0000   1.0000   1.0000
     1.0000   1.0000   1.0000   1.0000   1.0000   1.0000   1.0000   1.0000
     1.0000   1.0000   1.0000   1.0000   1.0000   1.0000   1.0000   1.0000
     1.0000   1.0000   1.0000   1.0000   1.0000   1.0000   1.0000   1.0000
     1.0000   1.0000   1.0000   1.0000   1.0000   1.0000   1.0000   1.0000
     1.0000   1.0000   1.0000   1.0000   1.0000   1.0000   1.0000   1.0000
     1.0000   1.0000   1.0000   1.0000   1.0000   1.0000   1.0000   1.0000
     1.0000   1.0000   1.0000   1.0000   1.0000   1.0000   1.0000   1.0000
     1.0000   1.0000   1.0000   1.0000   1.0000   1.0000   1.0000   1.0000
     1.0000   1.0000   1.0000   1.0000   1.0000   1.0000   1.0000   1.0000
     1.0000   1.0000   1.0000   1.0000   1.0000   1.0000   1.0000   1.0000
     1.0000   1.0000   1.0000   1.0000   1.0000   1.0000   1.0000   1.0000
     1.0000   1.0000   1.0000   1.0000   1.0000   1.0000   1.0000   1.0000
     1.0000   1.0000   1.0000   1.0000   1.0000   1.0000   1.0000   1.0000
     1.0000   1.0000   1.0000   1.0000   1.0000   1.0000   1.0000   1.0000
     1.0000   1.0000   1.0000   1.0000   1.0000   1.0000   1.0000   1.0000
     1.0000   1.0000   1.0000   1.0000   1.0000   1.0000   1.0000   1.0000
     1.0000   1.0000   1.0000   1.0000   1.0000   1.0000   1.0000   1.0000
     1.0000   1.0000   1.0000   1.0000   1.0000   1.0000   1.0000   1.0000
     1.0000   1.0000   1.0000   1.0000   1.0000   1.0000   1.0000   1.0000
     1.0000   1.0000   1.0000   1.0000   1.0000   1.0000   1.0000   1.0000
     1.0000   1.0000   1.0000   1.0000   1.0000   1.0000   1.0000   1.0000
     1.0000   1.0000   1.0000   1.0000   1.0000   1.0000   1.0000   1.0000
     1.0000   1.0000   1.0000   1.0000   1.0000   1.0000   1.0000   1.0000
     1.0000   1.0000   1.0000   1.0000   1.0000   1.0000   1.0000   1.0000
     1.0000   1.0000   1.0000   1.0000   1.0000   1.0000   1.0000   1.0000
     1.0000   1.0000   1.0000   1.0000   1.0000   1.0000   1.0000   1.0000
     1.0000   1.0000   1.0000   1.0000   1.0000   1.0000   1.0000   1.0000
     1.0000   1.0000   1.0000   1.0000   1.0000   1.0000   1.0000   1.0000
     1.0000   1.0000   1.0000   1.0000   1.0000   1.0000   1.0000   1.0000
     1.0000   1.0000   1.0000   1.0000   1.0000   1.0000   1.0000   1.0000
     1.0000   1.0000   1.0000   1.0000   1.0000   1.0000   1.0000   1.0000
     1.0000   1.0000   1.0000   1.0000   1.0000   1.0000   1.0000   1.0000
     1.0000   1.0000   1.0000   1.0000   1.0000   1.0000   1.0000   1.0000
     1.0000   1.0000   1.0000   1.0000   1.0000   1.0000   1.0000   1.0000
     1.0000   1.0000   1.0000   1.0000   1.0000   1.0000   1.0000   1.0000
     1.0000   1.0000   1.0000   1.0000   1.0000   1.0000   1.0000   1.0000
     1.0000   1.0000   1.0000   1.0000   1.0000   1.0000   1.0000   1.0000
     1.0000   1.0000   1.0000   1.0000   1.0000   1.0000   1.0000   1.0000
     1.0000   1.0000   1.0000   1.0000   1.0000   1.0000   1.0000   1.0000
     1.0000   1.0000   1.0000   1.0000   1.0000   1.0000   1.0000   1.0000
     1.0000   1.0000   1.0000   1.0000   1.0000   1.0000   1.0000   1.0000
     1.0000   1.0000   1.0000   1.0000   1.0000   1.0000   1.0000   1.0000
     1.0000   1.0000   1.0000   1.0000   1.0000   1.0000   1.0000   1.0000
     1.0000   1.0000   1.0000   1.0000   1.0000   1.0000   1.0000   1.0000
     1.0000   1.0000   1.0000   1.0000   1.0000   0.5055   0.2937   0.2936
     0.0000   0.0000   0.0000   0.0000   0.0000   0.0000   0.0000   0.0000
     0.0000   0.0000   0.0000   0.0000   0.0000   0.0000   0.0000   0.0000
     0.0000   0.0000   0.0000   0.0000   0.0000   0.0000   0.0000   0.0000
     0.0000   0.0000   0.0000   0.0000   0.0000   0.0000   0.0000   0.0000
     0.0000   0.0000   0.0000   0.0000   0.0000   0.0000   0.0000   0.0000
     0.0000   0.0000   0.0000   0.0000   0.0000   0.0000   0.0000   0.0000
     0.0000   0.0000   0.0000   0.0000   0.0000   0.0000   0.0000   0.0000
     0.0000   0.0000   0.0000   0.0000   0.0000   0.0000   0.0000   0.0000
     0.0000   0.0000   0.0000   0.0000   0.0000   0.0000   0.0000   0.0000
     0.0000   0.0000   0.0000   0.0000   0.0000   0.0000   0.0000   0.0000
     0.0000   0.0000   0.0000   0.0000

          k = 0.0000-0.5000-0.5000 ( 82212 PWs)   bands (ev):

    -8.0749  -8.0595  -8.0594  -7.9490  -7.0676  -7.0671  -7.0576  -7.0575
    -7.0460  -7.0459  -7.0079  -6.8485  -6.0647  -6.0640  -6.0639  -6.0609
    -6.0427  -6.0220  -6.0217  -5.8793  -5.1017  -5.1007  -5.1007  -5.0992
    -5.0986  -5.0985  -5.0979  -5.0928  -5.0850  -5.0847  -5.0792  -5.0747
    -5.0402  -5.0268  -5.0265  -4.7395  -4.1515  -4.1284  -4.1276  -4.1252
    -4.1197  -4.1196  -4.1182  -4.1181  -4.1041  -4.1040  -4.0278  -3.8223
    -3.3656  -3.3642  -3.3516  -3.3514  -3.3403  -3.3227  -3.3225  -3.1455
    -2.4588  -2.4582  -2.4581  -2.4540  -2.4540  -2.4510  -2.4508  -2.4431
    -2.4399  -2.4397  -2.4358  -2.4353  -2.3995  -2.3992  -2.3353  -2.2981
    -2.2294  -2.2261  -2.2259  -2.2240  -2.1914  -2.1652  -2.1652  -1.9015
    -1.5307  -1.5304  -1.5292  -1.5230  -1.5214  -1.5183  -1.5168  -1.5165
    -1.5012  -1.5010  -1.5005  -1.4947  -1.4749  -1.4304  -1.4303  -1.0047
    -0.7862  -0.7825  -0.7825  -0.7787  -0.7689  -0.7352  -0.7351  -0.2216
     0.1389   0.1389   0.1702   0.2693   0.4965   0.5121   0.5129   0.5130
     0.5229   0.5305   0.5330   0.5331   0.5905   0.5906   0.6695   0.8883
     1.3321   1.3327   1.3353   1.3353   1.3445   1.3447   1.3447   1.3448
     1.3484   1.3485   1.3536   1.3705   1.4569   1.4644   1.4645   1.5320
     1.7770   1.7810   1.7839   1.7840   1.7858   1.7864   1.7871   1.7871
     1.7891   1.8067   1.8068   1.8275   1.8407   1.8898   1.9009   1.9012
     1.9202   1.9284   1.9284   1.9368   2.0596   2.0598   2.1334   2.6065
     2.8037   2.8039   2.8040   2.8127   2.8245   2.8983   2.8985   3.4872
     3.8342   3.8567   3.8568   3.8640   3.8645   3.8703   3.8704   3.8733
     3.8733   3.8798   3.8822   3.8822   3.9457   3.9511   3.9511   4.0283
     4.0359   4.0360   4.0360   4.0454   4.0651   4.0930   4.1020   4.1021
     4.1679   4.1679   4.1725   4.1882   4.2101   4.2162   4.2162   4.2273
     4.3406   4.3408   4.4224   4.7310   4.7456   4.7583   4.7584   4.8498
     4.9553   4.9727   4.9729   4.9730   4.9782   4.9784   4.9805   4.9864
     4.9983   4.9985   5.0085   5.0304   5.1016   5.1924   5.1924   5.2993
     5.4144   5.4148   5.4316   5.8423   6.1380   6.1496   6.1578   6.1609
     6.1612   6.1807   6.1807   6.1883   6.1899   6.1899   6.1936   6.1945
     6.2234   6.2378   6.2380   6.2536   6.2651   6.2719   6.2722   6.3092
     6.3155   6.3157   6.3596   6.3829   6.4024   6.4025   6.4089   6.4339
     6.4356   6.4913   6.4913   6.5449   6.5450   6.5597   6.5672   6.5722
     6.6801   6.6909   6.6910   6.7862   7.0113   7.0373   7.0376   7.0376
     7.0637   7.0807   7.0847   7.0858   7.0858   7.1226   7.1238   7.1238
     7.1345   7.1345   7.1448   7.1602   7.1728   7.1731   7.1843   7.2191
     7.2278   7.2324   7.2325   7.2374   7.2376   7.2411   7.2441   7.2486
     7.2552   7.2553   7.2599   7.2754   7.2765   7.2771   7.2906   7.2906
     7.3018   7.3018   7.3109   7.3585   7.6216   7.6218   7.7098   7.9352
     7.9397   7.9600   7.9601   7.9619   7.9633   8.0034   8.0593   8.0594
     8.0789   8.0813   8.0813   8.1083   8.1453   8.1453   8.1710   8.2102
     8.2669   8.2952   8.2953   8.2981   8.3096   8.3106   8.3140   8.3140
     8.3361   8.3392   8.3393   8.3555   8.4360   8.5170   8.5170   8.6002
     8.6011   8.6014   8.6038   8.6060   8.6139   8.6139   8.6174   8.6370
     8.6409   8.6410   8.6651   8.7220   8.9904   9.0229   9.0231   9.1177
     9.1780   9.1988   9.2124   9.2127   9.3476   9.3479   9.5412   9.5483
     9.5997   9.6374   9.6374   9.6438   9.7245   9.7246   9.7752   9.8345
     9.8739   9.8931   9.8935   9.9752   9.9853   9.9987   9.9992  10.0008
    10.0168  10.0430  10.0430  10.0534  10.0586  10.0730  10.0731  10.0747
    10.0748  10.0788  10.0841  10.0841  10.1033  10.1244  10.1245  10.1823
    10.3400  10.3400  10.4200  10.4385  10.4441  10.4441  10.4472  10.4493
    10.4782  10.5662  10.5779  10.5779  10.7858  11.0143  11.1029  11.1029
    11.1689  11.1766  11.1996  11.1996  11.2176  11.2351  11.2352  11.2443
    11.8714  12.2837  12.2839  12.5088  12.5210  14.3980  14.4978  14.4978
    18.2320  18.2322  18.2719  18.2813  18.2816  18.2993  18.3038  18.3150
    18.3287  18.3289  18.3382  18.3516  18.4453  18.4453  18.4686  18.4783
    18.5029  18.5385  18.5478  18.5478  18.5559  18.5726  18.5726  18.5975
    18.6508  18.6509  18.7718  18.8464  19.0374  19.0444  19.1528  19.1529
    19.4684  19.4687  19.4750  19.4751  19.5181  19.5181  19.5782  19.6697
    19.7029  19.7035  19.7052  19.7080  19.7167  19.7171  19.7265  19.7278
    19.7384  19.7417  19.7421  19.7893  19.8005  19.8011  19.8079  19.8142
    19.8507  19.8922  19.8979  19.8981  19.9081  19.9280  19.9286  20.0381
    20.0724  20.0729  20.0954  20.1047  20.1805  20.1805  20.1995  20.3668
    20.5477  20.5565  20.5566  20.5599  20.5622  20.5643  20.5643  20.5647
    20.5880  20.6240  20.6241  20.6711

     occupation numbers 
     1.0000   1.0000   1.0000   1.0000   1.0000   1.0000   1.0000   1.0000
     1.0000   1.0000   1.0000   1.0000   1.0000   1.0000   1.0000   1.0000
     1.0000   1.0000   1.0000   1.0000   1.0000   1.0000   1.0000   1.0000
     1.0000   1.0000   1.0000   1.0000   1.0000   1.0000   1.0000   1.0000
     1.0000   1.0000   1.0000   1.0000   1.0000   1.0000   1.0000   1.0000
     1.0000   1.0000   1.0000   1.0000   1.0000   1.0000   1.0000   1.0000
     1.0000   1.0000   1.0000   1.0000   1.0000   1.0000   1.0000   1.0000
     1.0000   1.0000   1.0000   1.0000   1.0000   1.0000   1.0000   1.0000
     1.0000   1.0000   1.0000   1.0000   1.0000   1.0000   1.0000   1.0000
     1.0000   1.0000   1.0000   1.0000   1.0000   1.0000   1.0000   1.0000
     1.0000   1.0000   1.0000   1.0000   1.0000   1.0000   1.0000   1.0000
     1.0000   1.0000   1.0000   1.0000   1.0000   1.0000   1.0000   1.0000
     1.0000   1.0000   1.0000   1.0000   1.0000   1.0000   1.0000   1.0000
     1.0000   1.0000   1.0000   1.0000   1.0000   1.0000   1.0000   1.0000
     1.0000   1.0000   1.0000   1.0000   1.0000   1.0000   1.0000   1.0000
     1.0000   1.0000   1.0000   1.0000   1.0000   1.0000   1.0000   1.0000
     1.0000   1.0000   1.0000   1.0000   1.0000   1.0000   1.0000   1.0000
     1.0000   1.0000   1.0000   1.0000   1.0000   1.0000   1.0000   1.0000
     1.0000   1.0000   1.0000   1.0000   1.0000   1.0000   1.0000   1.0000
     1.0000   1.0000   1.0000   1.0000   1.0000   1.0000   1.0000   1.0000
     1.0000   1.0000   1.0000   1.0000   1.0000   1.0000   1.0000   1.0000
     1.0000   1.0000   1.0000   1.0000   1.0000   1.0000   1.0000   1.0000
     1.0000   1.0000   1.0000   1.0000   1.0000   1.0000   1.0000   1.0000
     1.0000   1.0000   1.0000   1.0000   1.0000   1.0000   1.0000   1.0000
     1.0000   1.0000   1.0000   1.0000   1.0000   1.0000   1.0000   1.0000
     1.0000   1.0000   1.0000   1.0000   1.0000   1.0000   1.0000   1.0000
     1.0000   1.0000   1.0000   1.0000   1.0000   1.0000   1.0000   1.0000
     1.0000   1.0000   1.0000   1.0000   1.0000   1.0000   1.0000   1.0000
     1.0000   1.0000   1.0000   1.0000   1.0000   1.0000   1.0000   1.0000
     1.0000   1.0000   1.0000   1.0000   1.0000   1.0000   1.0000   1.0000
     1.0000   1.0000   1.0000   1.0000   1.0000   1.0000   1.0000   1.0000
     1.0000   1.0000   1.0000   1.0000   1.0000   1.0000   1.0000   1.0000
     1.0000   1.0000   1.0000   1.0000   1.0000   1.0000   1.0000   1.0000
     1.0000   1.0000   1.0000   1.0000   1.0000   1.0000   1.0000   1.0000
     1.0000   1.0000   1.0000   1.0000   1.0000   1.0000   1.0000   1.0000
     1.0000   1.0000   1.0000   1.0000   1.0000   1.0000   1.0000   1.0000
     1.0000   1.0000   1.0000   1.0000   1.0000   1.0000   1.0000   1.0000
     1.0000   1.0000   1.0000   1.0000   1.0000   1.0000   1.0000   1.0000
     1.0000   1.0000   1.0000   1.0000   1.0000   1.0000   1.0000   1.0000
     1.0000   1.0000   1.0000   1.0000   1.0000   1.0000   1.0000   1.0000
     1.0000   1.0000   1.0000   1.0000   1.0000   1.0000   1.0000   1.0000
     1.0000   1.0000   1.0000   1.0000   1.0000   1.0000   1.0000   1.0000
     1.0000   1.0000   1.0000   1.0000   1.0000   1.0000   1.0000   1.0000
     1.0000   1.0000   1.0000   1.0000   1.0000   1.0000   1.0000   1.0000
     1.0000   1.0000   1.0000   1.0000   1.0000   1.0000   1.0000   1.0000
     1.0000   1.0000   1.0000   1.0000   1.0000   1.0000   1.0000   1.0000
     1.0000   1.0000   1.0000   1.0000   1.0000   1.0000   1.0000   1.0000
     1.0000   1.0000   1.0000   1.0000   1.0000   1.0000   1.0000   1.0000
     1.0000   1.0000   1.0000   1.0000   1.0000   1.0000   1.0000   1.0000
     1.0000   1.0000   1.0000   1.0000   1.0000   1.0000   1.0000   1.0000
     1.0000   1.0000   1.0000   1.0000   1.0000   1.0000   1.0000   1.0000
     1.0000   1.0000   1.0000   1.0000   1.0000   1.0000   1.0000   1.0000
     1.0000   1.0000   1.0000   1.0000   1.0000   1.0000   1.0000   1.0000
     1.0000   1.0000   1.0000   1.0000   1.0000   0.6352   0.2446   0.2445
     0.0000   0.0000   0.0000   0.0000   0.0000   0.0000   0.0000   0.0000
     0.0000   0.0000   0.0000   0.0000   0.0000   0.0000   0.0000   0.0000
     0.0000   0.0000   0.0000   0.0000   0.0000   0.0000   0.0000   0.0000
     0.0000   0.0000   0.0000   0.0000   0.0000   0.0000   0.0000   0.0000
     0.0000   0.0000   0.0000   0.0000   0.0000   0.0000   0.0000   0.0000
     0.0000   0.0000   0.0000   0.0000   0.0000   0.0000   0.0000   0.0000
     0.0000   0.0000   0.0000   0.0000   0.0000   0.0000   0.0000   0.0000
     0.0000   0.0000   0.0000   0.0000   0.0000   0.0000   0.0000   0.0000
     0.0000   0.0000   0.0000   0.0000   0.0000   0.0000   0.0000   0.0000
     0.0000   0.0000   0.0000   0.0000   0.0000   0.0000   0.0000   0.0000
     0.0000   0.0000   0.0000   0.0000

          k =-0.5000-0.5000-0.5000 ( 82136 PWs)   bands (ev):

    -7.8249  -7.8210  -7.8210  -7.8209  -7.7915  -7.7915  -7.7914  -7.5730
    -5.8333  -5.8333  -5.8331  -5.8279  -5.8279  -5.8226  -5.8208  -5.8208
    -5.8206  -5.8206  -5.8204  -5.8204  -5.8093  -5.8088  -5.8088  -5.8039
    -5.8038  -5.8038  -5.7815  -5.7815  -5.7285  -5.7285  -5.7277  -5.2502
    -3.9430  -3.9426  -3.9426  -3.9405  -3.9405  -3.9403  -3.9402  -3.9377
    -3.9377  -3.9373  -3.9356  -3.9356  -3.9291  -3.9291  -3.9164  -3.9164
[...]
             -0.208676889047286E+02
              0.224920274684694E+02
             -0.200249885555618E+02
              0.918396882405810E+02
              0.570549804403126E+01
              0.145060485925094E+02
              0.664192405687367E+02
              0.217781310802636E+02
             -0.415121166002847E+02
             -0.778514993275282E+02
              0.421510863558183E+00
             -0.913314726842615E+02
              0.311679385151446E+02
             -0.102220712718165E+02
             -0.314378494523191E+02
              0.287319481389418E+02
              0.138756955683774E+02
              0.328003795415785E+02
             -0.912499584314645E+00
              0.483359630140335E+02
             -0.882228023004989E+02
             -0.415162884134804E+01
             -0.801188448935100E+02
              0.257261592814965E+02
              0.391282683903235E+02
             -0.751783353214086E+01
             -0.232852608915347E+02
              0.683697588816527E+02
             -0.308187762383259E+02
              0.215261960966052E+02
             -0.143822477726589E+02
              0.538159848990267E+02
              0.446806860148719E+02
             -0.202949393577103E+02
              0.460803824270495E+02
              0.172521441304608E+02
             -0.473186013946284E+02
             -0.235355736562543E+02
              0.723747289507402E+02
              0.343000091016705E+02
              0.193302724366902E+00
             -0.947168628221596E+01
              0.114675239668565E+03
              0.657390523087345E+02
              0.212139381444507E+02
             -0.816862314903393E+02
              0.113411091994745E+03
             -0.597198992434302E+02
             -0.701320496215438E+02
             -0.952870765009732E+02
              0.473467177777226E+02
             -0.841761749273533E+02
              0.376619737825444E+02
              0.735791481856186E+02
              0.466982352785109E+02
              0.230580421861351E+02
              0.296623839856400E+02
             -0.749472640266571E+02
             -0.249025767106432E+02
             -0.211158699748635E+02
              0.403517473003645E+02
              0.683617666851094E+02
              0.795992598555460E+02
              0.665598933208154E+02
             -0.163063299609472E+02
              0.161027884775096E+02
             -0.640225953150843E+01
             -0.243571025434988E+02
              0.263822624604457E+02
              0.275866915608838E+02
             -0.386720667041065E+02
             -0.519535577443856E+02
             -0.182812504293333E+02
              0.659870499362836E+02
              0.328100138664505E+02
             -0.427890749825800E+02
             -0.567578688245629E+02
             -0.740295928073090E+02
             -0.331333074164523E+01
              0.158996758432364E+02
             -0.312385782053806E+02
              0.111754915679671E+03
              0.964172764501961E+01
             -0.133513560996797E+03
              0.298749067333035E+02
              0.650845331220002E+02
             -0.281478979299087E+02
              0.614294913359200E+01
             -0.428272738483815E+02
              0.525572924488087E+02
              0.199164450118475E+02
             -0.673097560759479E+02
              0.822972569213121E+02
             -0.738359927714586E+01
             -0.447367652160423E+02
             -0.428016352723972E+02
              0.155173161235264E+03
              0.751044791818534E+02
             -0.165629130564971E+02
              0.444254932677321E+02
             -0.585183525554939E+02
             -0.903491730646419E+01
             -0.700469760909709E+02
              0.301805708913502E+02
              0.401158610719662E+02
              0.544348873310993E+02
             -0.233054598330048E+02
              0.694868205691262E+01
              0.603342100106685E+02
              0.300015462846780E+02
              0.392888593081741E+02
              0.183143704416793E+02
             -0.148942051768037E+02
             -0.164144422777420E+01
             -0.105078732329278E+02
              0.155562401725347E+02
              0.626287860588212E+01
             -0.494987594416464E+02
              0.922213540708972E+02
              0.391244582814112E+02
             -0.599553165228567E+02
             -0.410761621841906E+02
             -0.672186211066225E+02
             -0.341234833224581E+02
             -0.215427961302822E+02
             -0.527565907931001E+02
             -0.534541427605198E+02
              0.824962197191623E+02
              0.558410880895685E+02
             -0.131187300331421E+02
              0.728319860118137E+02
              0.196536541993275E+02
             -0.126726367019704E+03
              0.652343305191897E+02
              0.192820431516483E+02
              0.595844459395414E+02
              0.153314136851249E+02
              0.161541973120578E+02
              0.138881586834684E+02
              0.363310744393555E+02
             -0.470006622461729E+02
             -0.270450769207918E+02
             -0.411038593892062E+02
             -0.289285139828939E+02
              0.174822658705163E+02
             -0.450681059855257E+02
              0.176234980856872E+02
              0.256556788128289E+02
             -0.307671758486280E+02
             -0.123856993414751E+02
             -0.342470145605321E+01
              0.794415420058397E+02
              0.602986995873067E+01
              0.860776580866432E+02
              0.223034481773241E+02
             -0.981457527371013E+02
             -0.380662059288935E+02
              0.333568090203024E+02
              0.649729295301643E+02
              0.244897504838837E+02
              0.255640942940690E+02
              0.690956031636082E+02
             -0.471718340975614E+02
             -0.732766805965243E+02
              0.858615302635268E+02
             -0.885801240515661E+01
             -0.978363847885024E+02
              0.328680856734629E+02
              0.633594476104653E+02
             -0.100269281120338E+02
             -0.498144958973236E+02
             -0.253646709356622E+01
              0.784984868652407E+01
             -0.300258391417665E+02
              0.162989768192135E+02
             -0.117392706423106E+02
              0.130025419677810E+03
              0.295319509436406E+02
             -0.652049017052770E+02
              0.190056050099620E+02
              0.870084429136789E+02
             -0.485411355097359E+02
             -0.257307005236298E+02
             -0.469538247659368E+02
              0.306063709257954E+02
              0.210179765543644E+02
              0.192418454273165E+02
             -0.826855889386536E+00
              0.927962576507189E+02
             -0.607189907219720E+02
             -0.461012726196784E+02
             -0.440437921184967E+02
              0.457675194162561E+02
              0.881964339955300E+02
             -0.274910855719764E+01
              0.379014942412477E+02
             -0.470127324460477E+02
             -0.457118138900552E+01
             -0.127884690893151E+02
             -0.189218661585280E+02
             -0.233776187612640E+02
             -0.243116342525901E+02
             -0.157081950163533E+02
              0.238254080566090E+02
              0.232894931506798E+02
             -0.660879415214133E+02
              0.462370785955470E+02
             -0.734416770245259E+02
              0.531984854366002E+02
             -0.724296831123453E+02
              0.108863405861180E+03
              0.537422106922639E+02
              0.532881463040375E+02
              0.111847038333194E+02
              0.646774088566269E+01
             -0.136554525700496E+03
              0.265813015722771E+02
              0.768385371369686E+01
              0.289007904200230E+01
             -0.170244181789841E+02
              0.976957735367972E+02
             -0.442937857733460E+02
             -0.353164332438175E+02
             -0.106789820091091E+03
             -0.362047535398234E+02
             -0.425400396602072E+02
             -0.449733089415988E+02
             -0.108105822260304E+02
             -0.192969261267515E+02
             -0.279720442236589E+02
             -0.451244310471338E+02
              0.339524946902120E+02
              0.106908196202359E+03
              0.927964272389742E+02
             -0.310312239682314E+02
             -0.115667436647121E+03
             -0.458110832073226E+02
              0.292950174103877E+02
              0.204168791594414E+02
              0.279334049842356E+02
              0.290994392385569E+02
              0.896233230179359E+01
              0.940903844432968E+02
             -0.247500003231095E+02
              0.560187511673474E+02
              0.181611882669325E+02
             -0.351447687158060E+02
             -0.246182164030122E+02
              0.474322423759929E+02
             -0.202630548457143E+02
             -0.235925540809672E+02
             -0.127636020206892E+02
              0.605054752977509E+02
             -0.755059774000908E+02
             -0.174962338837323E+02
             -0.659429459452253E+02
             -0.143160369084397E+03
              0.682554140932325E+01
             -0.146379199190042E+02
              0.501815470980697E+02
              0.535216740010018E+02
              0.811687736385445E+02
             -0.494740761285026E+02
              0.842770533371468E+02
              0.197710723052327E+02
             -0.159695095686978E+02
              0.175750661255392E+02
             -0.334353048856711E+02
             -0.216863219655634E+02
              0.411942951068830E+02
             -0.460563882128693E+02
              0.105946106670703E+03
             -0.261126646833064E+02
             -0.578557464307966E+02
              0.104589004912331E+03
             -0.611508833912599E+02
             -0.144677542343264E+02
              0.108036781688651E+02
              0.303206938999290E+02
             -0.487541114557467E+02
             -0.377717196155188E+02
              0.493765465771496E+02
             -0.944763588768620E+02
              0.623984691732116E+02
              0.112106154529879E+02
              0.492933157957168E+02
              0.680561920565735E+02
              0.904841432508194E+01
             -0.800259105474651E+02
             -0.401544980538796E+02
             -0.680597411636921E+02
             -0.402076392826368E+02
             -0.260073651820277E+02
              0.106489408163089E+02
             -0.221780953148223E+02
              0.595189111179559E+01
             -0.116102533318441E+03
             -0.419952397869525E+01
             -0.677590407082138E+02
              0.617703742541645E+02
             -0.263132218214043E+02
             -0.823253373612185E+01
              0.470456204639988E+02
              0.231509973655130E+01
              0.512370292363225E+02
             -0.797834133333898E+02
              0.197442841607129E+02
              0.111767908794379E+02
              0.263878251061287E+02
              0.641889876326571E+02
             -0.494821407836690E+01
             -0.750325013581400E+02
             -0.374734087018479E+02
             -0.269127754387556E+02
             -0.150212563435471E+02
              0.618834618056230E+02
              0.416101708954878E+02
             -0.324183055265229E+02
             -0.419532467267866E+02
              0.348922314371083E+02
              0.315489193626298E+02
             -0.801491493132283E+02
              0.253031284463181E+02
              0.602007359807415E+02
             -0.473941333689693E+01
              0.682793280108918E+02
              0.401267314021766E+02
              0.522713912992056E+02
              0.743117993584373E+02
              0.265674272856049E+01
             -0.122078196633709E+03
              0.111145300517774E+02
              0.132596428168503E+03
              0.882974612727794E+02
             -0.622608006245541E+02
              0.467776751854138E+01
              0.735206632758288E+02
              0.678698339939034E+02
              0.289890037279787E+02
             -0.208570788942372E+02
              0.322201243388929E+02
              0.798027445845769E+02
             -0.273377985340426E+02
             -0.263756290797270E+02
              0.457796045815811E+02
             -0.692062712661772E+01
              0.369334840993060E+02
              0.171395489970607E+00
              0.878787365980346E+02
             -0.296598742051624E+02
              0.122649015024792E+02
             -0.476170355086414E+02
              0.428439289534047E+02
             -0.531372270682471E+01
              0.684309776919874E+02
              0.480455886244226E+01
              0.190435852205705E+02
             -0.456852570042369E+02
             -0.249577386094385E+02
             -0.140110750967969E+02
             -0.572129319896212E+01
              0.721193963863727E+02
              0.205306075884118E+02
              0.952923030395119E+02
              0.562598766594758E+02
              0.882967549682911E+01
             -0.459455452535167E-01
              0.865256373976716E+02
              0.452687138285628E+02
              0.569074225289921E+01
              0.800023492131008E+02
             -0.712155534445890E+02
              0.298284982848982E+02
             -0.378644967233044E+02
             -0.287745373469313E+02
              0.103765700334448E+03
             -0.168576056690847E+02
              0.996202994002601E+00
             -0.164782396391693E+02
              0.866624815382926E+02
             -0.242655250201813E+02
             -0.243268403976930E+01
              0.179590632405594E+03
             -0.646890717188921E+02
             -0.525496083752144E+02
             -0.674433807584862E+02
             -0.317028005428015E+02
              0.368972267151866E+02
             -0.168361309156554E+02
              0.156177727466138E+02
              0.663839755608933E+00
              0.226124908603157E+02
              0.363711265735865E+02
              0.343516708109232E+02
              0.732197943313773E+02
              0.299201303698291E+02
              0.510313483053210E+02
             -0.730584891299134E+02
             -0.569086566386426E+02
             -0.231883197335152E+02
             -0.626050892057182E+02
              0.112857169642593E+03
              0.968030106742557E+02
              0.420594996375015E+02
              0.114108916696130E+03
             -0.612050026624018E+02
             -0.294509891576412E+02
             -0.303903384139109E+02
              0.900352055382741E+02
 
 BEEF-vdW xc energy contributions
            1 :    -879.8947238063959     
            2 :     776.2663017271810     
            3 :    -597.5805097076284     
            4 :     390.1939722601535     
            5 :    -201.4288523219809     
            6 :     63.93340461204070     
            7 :     12.50556615146115     
            8 :    -39.18761393284808     
            9 :     38.87499675448157     
           10 :    -33.65327477837172     
           11 :     35.99778711090994     
           12 :    -46.41613726779156     
           13 :     57.39160973674780     
           14 :    -60.36652589328423     
           15 :     51.58750589431770     
           16 :    -33.97521321201043     
           17 :     14.77516113114427     
           18 :    -1.055928516367999     
           19 :    -4.044222336507914     
           20 :     2.304049295590517     
           21 :     1.505783150028947     
           22 :    -2.921939412639631     
           23 :    0.3547608098137971     
           24 :     4.464129091488303     
           25 :    -8.109370880752522     
           26 :     7.902890722145116     
           27 :    -3.587146386196309     
           28 :    -2.691119771735316     
           29 :     7.876094917857472     
           30 :    -9.892548029650698     
           31 :    -115.1333318304567     
           32 :    -83.52221730270492     

     Writing all to output data dir ./diamond.save/
 
     init_run     :      6.09s CPU      6.48s WALL (       1 calls)
     electrons    :    479.76s CPU    486.12s WALL (       1 calls)
     forces       :      2.37s CPU      2.45s WALL (       1 calls)
     stress       :     30.18s CPU     30.45s WALL (       1 calls)

     Called by init_run:
     wfcinit      :      4.51s CPU      4.73s WALL (       1 calls)
     wfcinit:atom :      0.02s CPU      0.04s WALL (       1 calls)
     wfcinit:wfcr :      4.23s CPU      4.34s WALL (       1 calls)
     potinit      :      0.55s CPU      0.67s WALL (       1 calls)
     hinit0       :      0.48s CPU      0.51s WALL (       1 calls)

     Called by electrons:
     c_bands      :    473.47s CPU    479.60s WALL (       5 calls)
     sum_band     :      3.98s CPU      4.05s WALL (       5 calls)
     v_of_rho     :      1.58s CPU      1.66s WALL (       5 calls)
     v_h          :      0.02s CPU      0.02s WALL (       5 calls)
     v_xc         :     11.35s CPU     11.58s WALL (      41 calls)
     newd         :      0.18s CPU      0.20s WALL (       5 calls)
     PAW_pot      :      0.33s CPU      0.34s WALL (       5 calls)
     mix_rho      :      0.03s CPU      0.03s WALL (       5 calls)
     vdW_kernel   :      0.17s CPU      0.18s WALL (       1 calls)

     Called by c_bands:
     init_us_2    :      0.25s CPU      0.30s WALL (      11 calls)
     init_us_2:cp :      0.25s CPU      0.30s WALL (      11 calls)
     cegterg      :    301.26s CPU    303.92s WALL (       5 calls)

     Called by sum_band:
     sum_band:wei :      0.02s CPU      0.02s WALL (       5 calls)
     sum_band:loo :      3.44s CPU      3.49s WALL (       5 calls)
     sum_band:buf :      0.00s CPU      0.00s WALL (       5 calls)
     sum_band:ini :      0.19s CPU      0.21s WALL (       5 calls)
     sum_band:cal :      1.89s CPU      1.91s WALL (       5 calls)
     sum_band:bec :      0.04s CPU      0.04s WALL (       5 calls)
     addusdens    :      0.17s CPU      0.17s WALL (       5 calls)
     addusd:skk   :      0.05s CPU      0.06s WALL (       5 calls)
     addusd:dgemm :      0.07s CPU      0.07s WALL (       5 calls)
     addusd:qvan2 :      0.01s CPU      0.01s WALL (       5 calls)

     Called by *egterg:
     cdiaghg      :    230.23s CPU    231.38s WALL (      87 calls)
     cegterg:over :     14.60s CPU     15.01s WALL (      83 calls)
     cegterg:upda :      8.63s CPU      8.79s WALL (      83 calls)
     cegterg:last :      5.02s CPU      5.07s WALL (       8 calls)
     h_psi        :     33.05s CPU     33.62s WALL (      89 calls)
     s_psi        :      9.36s CPU      9.45s WALL (      89 calls)
     g_psi        :      0.04s CPU      0.04s WALL (      83 calls)

     Called by h_psi:
     h_psi:calbec :     10.53s CPU     10.62s WALL (      89 calls)
     vloc_psi     :     12.93s CPU     13.12s WALL (      89 calls)
     add_vuspsi   :      9.36s CPU      9.48s WALL (      89 calls)

     General routines
     calbec       :     14.34s CPU     14.46s WALL (      99 calls)
     fft          :      5.41s CPU      5.49s WALL (    2421 calls)
     ffts         :      0.02s CPU      0.02s WALL (      10 calls)
     fftw         :     13.44s CPU     13.64s WALL (   28444 calls)
     interpolate  :      0.02s CPU      0.02s WALL (       5 calls)
 
     Parallel routines

     PAW routines
     PAW_pot      :      0.33s CPU      0.34s WALL (       5 calls)
     PAW_symme    :      0.02s CPU      0.02s WALL (       9 calls)
 
     PWSCF        :   8m48.71s CPU   8m58.55s WALL

 
   This run was terminated on:   0: 0:26   8Oct2023            

=------------------------------------------------------------------------------=
   JOB DONE.
=------------------------------------------------------------------------------=
