
     Program PWSCF v.7.1 starts on 18Feb2024 at  8: 9:25 

     This program is part of the open-source Quantum ESPRESSO suite
     for quantum simulation of materials; please cite
         "P. Giannozzi et al., J. Phys.:Condens. Matter 21 395502 (2009);
         "P. Giannozzi et al., J. Phys.:Condens. Matter 29 465901 (2017);
         "P. Giannozzi et al., J. Chem. Phys. 152 154105 (2020);
          URL http://www.quantum-espresso.org", 
     in publications or presentations arising from this work. More details at
     http://www.quantum-espresso.org/quote

     Parallel version (MPI & OpenMP), running on     128 processor cores
     Number of MPI processes:               128
     Threads/MPI process:                     1

     MPI processes distributed on     1 nodes
     1945302 MiB available memory on the printing compute node when the environment starts
 
     Reading input from espresso.pwi
Warning: card &CELL ignored
Warning: card    CELL_DYNAMICS    = 'BFGS' ignored
Warning: card / ignored

     Current dimensions of program PWSCF are:
     Max number of different atomic species (ntypx) = 10
     Max number of k-points (npk) =  40000
     Max angular momentum in pseudopotentials (lmaxx) =  4
     file Pb.pbe-dn-kjpaw_psl.1.0.0.UPF: wavefunction(s)  6S 6P 5D renormalized
     file I.pbe-dn-kjpaw_psl.1.0.0.UPF: wavefunction(s)  5S 5P renormalized

     **************************************************************************
     Initializing libbeef V0.1.2 with the BEEF-vdW functional.
     Citation: Wellendorff et al., PRB 85, 235149 (2012).
     **************************************************************************


     IMPORTANT: XC functional enforced from input :
     Exchange-correlation= BEEF-VDW
                           (   1   4  43  14   2   0   0)
     Any further DFT definition will be discarded
     Please, verify this is what you really want

 
     K-points division:     npool     =       2
     R & G space division:  proc/nbgrp/npool/nimage =      64
     Subspace diagonalization in iterative solution of the eigenvalue problem:
     a serial algorithm will be used

 
     Parallelization info
     --------------------
     sticks:   dense  smooth     PW     G-vecs:    dense   smooth      PW
     Min         268     215     55                29758    21295    2791
     Max         269     216     56                29767    21298    2796
     Sum       17215   13777   3559              1904969  1362953  178821
 
     Using Slab Decomposition
 


     bravais-lattice index     =            4
     lattice parameter (alat)  =      26.7090  a.u.
     unit-cell volume          =   17226.5091 (a.u.)^3
     number of atoms/cell      =           54
     number of atomic types    =            2
     number of electrons       =       864.00
     number of Kohn-Sham states=          518
     kinetic-energy cutoff     =      70.0000  Ry
     charge density cutoff     =     350.0000  Ry
     scf convergence threshold =      1.0E-07
     mixing beta               =       0.7000
     number of iterations used =            8  plain     mixing
     energy convergence thresh.=      1.0E-04
     force convergence thresh. =      1.0E-03
     Exchange-correlation= BEEF-VDW
                           (   1   4  43  14   2   0   0)
     nstep                     =           50


     celldm(1)=  26.709025  celldm(2)=   0.000000  celldm(3)=   1.043981
     celldm(4)=   0.000000  celldm(5)=   0.000000  celldm(6)=   0.000000

     crystal axes: (cart. coord. in units of alat)
               a(1) = (   1.000000   0.000000   0.000000 )  
               a(2) = (  -0.500000   0.866025   0.000000 )  
               a(3) = (   0.000000   0.000000   1.043981 )  

     reciprocal axes: (cart. coord. in units 2 pi/alat)
               b(1) = (  1.000000  0.577350 -0.000000 )  
               b(2) = (  0.000000  1.154701  0.000000 )  
               b(3) = (  0.000000 -0.000000  0.957872 )  


     PseudoPot. # 1 for Pb read from file:
     //group///packages/espresso/pseudo/psl_1.0.0/pslibrary.1.0.0/pbe/PSEUDOPOTENTIALS/Pb.pbe-dn-kjpaw_psl.1.0.0.UPF
     MD5 check sum: 39ab5b8a6bbd56b7735ad9f188aac93a
     Pseudo is Projector augmented-wave + core cor, Zval = 14.0
     Generated using 'atomic' code by A. Dal Corso  v.7.1
     Shape of augmentation charge: PSQ
     Using radial grid of 1281 points,  6 beta functions with: 
                l(1) =   0
                l(2) =   0
                l(3) =   1
                l(4) =   1
                l(5) =   2
                l(6) =   2
     Q(r) pseudized with 0 coefficients 


     PseudoPot. # 2 for I  read from file:
     //group///packages/espresso/pseudo/psl_1.0.0/pslibrary.1.0.0/pbe/PSEUDOPOTENTIALS/I.pbe-dn-kjpaw_psl.1.0.0.UPF
     MD5 check sum: bfa8781bc1224d19af3f3980e3fab11e
     Pseudo is Projector augmented-wave + core cor, Zval = 17.0
     Generated using 'atomic' code by A. Dal Corso  v.7.1
     Shape of augmentation charge: PSQ
     Using radial grid of 1247 points,  6 beta functions with: 
                l(1) =   0
                l(2) =   0
                l(3) =   1
                l(4) =   1
                l(5) =   2
                l(6) =   2
     Q(r) pseudized with 0 coefficients 


     atomic species   valence    mass     pseudopotential
        Pb            14.00   207.20000     Pb( 1.00)
        I             17.00   126.90447     I ( 1.00)

     No symmetry found


                                    s                        frac. trans.

      isym =  1     identity                                     

 cryst.   s( 1) = (     1          0          0      )
                  (     0          1          0      )
                  (     0          0          1      )

 cart.    s( 1) = (  1.0000000  0.0000000  0.0000000 )
                  (  0.0000000  1.0000000  0.0000000 )
                  (  0.0000000  0.0000000  1.0000000 )


     point group C_1 (1)    
     there are  1 classes
     the character table:

       E    
A      1.00

     the symmetry operations in each class and the name of the first element:

     E        1
          identity                                               

   Cartesian axes

     site n.     atom                  positions (alat units)
         1           Pb  tau(   1) = (   0.1666780   0.2886497   1.0439767  )
         2           Pb  tau(   2) = (   0.1666712   0.2886557   0.5219862  )
         3           Pb  tau(   3) = (   0.0000102   0.5773235   1.0439712  )
         4           Pb  tau(   4) = (   0.0000034   0.5773295   0.5219807  )
         5           Pb  tau(   5) = (  -0.1666576   0.8659973   1.0439657  )
         6           Pb  tau(   6) = (  -0.1666644   0.8660033   0.5219752  )
         7           Pb  tau(   7) = (   0.5000113   0.2886484   1.0439810  )
         8           Pb  tau(   8) = (   0.5000045   0.2886544   0.5219905  )
         9           Pb  tau(   9) = (   0.3333436   0.5773222   1.0439755  )
        10           Pb  tau(  10) = (   0.3333367   0.5773282   0.5219850  )
        11           Pb  tau(  11) = (   0.1666758   0.8659960   1.0439700  )
        12           Pb  tau(  12) = (   0.1666690   0.8660020   0.5219795  )
        13           Pb  tau(  13) = (   0.8333447   0.2886471   1.0439853  )
        14           Pb  tau(  14) = (   0.8333379   0.2886531   0.5219949  )
        15           Pb  tau(  15) = (   0.6666769   0.5773209   1.0439798  )
        16           Pb  tau(  16) = (   0.6666701   0.5773269   0.5219894  )
        17           Pb  tau(  17) = (   0.5000091   0.8659947   1.0439743  )
        18           Pb  tau(  18) = (   0.5000023   0.8660007   0.5219839  )
        19           I   tau(  19) = (   0.1666738   0.0962066   0.3879099  )
        20           I   tau(  20) = (   0.1666806   0.0962006   0.9099004  )
        21           I   tau(  21) = (   0.0000060   0.3848804   0.3879044  )
        22           I   tau(  22) = (   0.0000129   0.3848744   0.9098949  )
        23           I   tau(  23) = (  -0.1666617   0.6735542   0.3878990  )
        24           I   tau(  24) = (  -0.1666549   0.6735482   0.9098894  )
        25           I   tau(  25) = (   0.5000071   0.0962053   0.3879143  )
        26           I   tau(  26) = (   0.5000140   0.0961993   0.9099047  )
        27           I   tau(  27) = (   0.3333394   0.3848792   0.3879088  )
        28           I   tau(  28) = (   0.3333462   0.3848731   0.9098993  )
        29           I   tau(  29) = (   0.1666716   0.6735530   0.3879033  )
        30           I   tau(  30) = (   0.1666784   0.6735469   0.9098938  )
        31           I   tau(  31) = (   0.8333405   0.0962041   0.3879186  )
        32           I   tau(  32) = (   0.8333473   0.0961980   0.9099091  )
        33           I   tau(  33) = (   0.6666727   0.3848779   0.3879131  )
        34           I   tau(  34) = (   0.6666795   0.3848718   0.9099036  )
        35           I   tau(  35) = (   0.5000049   0.6735517   0.3879076  )
        36           I   tau(  36) = (   0.5000117   0.6735457   0.9098981  )
        37           I   tau(  37) = (  -0.0000023   0.1924396   0.1340740  )
        38           I   tau(  38) = (   0.0000045   0.1924336   0.6560644  )
        39           I   tau(  39) = (  -0.1666701   0.4811134   0.1340685  )
        40           I   tau(  40) = (  -0.1666632   0.4811074   0.6560589  )
        41           I   tau(  41) = (  -0.3333378   0.7697873   0.1340630  )
        42           I   tau(  42) = (  -0.3333310   0.7697812   0.6560534  )
        43           I   tau(  43) = (   0.3333311   0.1924384   0.1340783  )
        44           I   tau(  44) = (   0.3333379   0.1924323   0.6560688  )
        45           I   tau(  45) = (   0.1666633   0.4811122   0.1340728  )
        46           I   tau(  46) = (   0.1666701   0.4811061   0.6560633  )
        47           I   tau(  47) = (  -0.0000045   0.7697860   0.1340673  )
        48           I   tau(  48) = (   0.0000023   0.7697799   0.6560578  )
        49           I   tau(  49) = (   0.6666644   0.1924371   0.1340827  )
        50           I   tau(  50) = (   0.6666712   0.1924310   0.6560731  )
        51           I   tau(  51) = (   0.4999966   0.4811109   0.1340772  )
        52           I   tau(  52) = (   0.5000034   0.4811049   0.6560676  )
        53           I   tau(  53) = (   0.3333288   0.7697847   0.1340717  )
        54           I   tau(  54) = (   0.3333356   0.7697787   0.6560621  )

   Crystallographic axes

     site n.     atom                  positions (cryst. coord.)
         1           Pb  tau(   1) = (  0.3333300  0.3333039  0.9999959  )
         2           Pb  tau(   2) = (  0.3333266  0.3333109  0.4999959  )
         3           Pb  tau(   3) = (  0.3333281  0.6666357  0.9999906  )
         4           Pb  tau(   4) = (  0.3333248  0.6666427  0.4999906  )
         5           Pb  tau(   5) = (  0.3333262  0.9999675  0.9999854  )
         6           Pb  tau(   6) = (  0.3333229  0.9999745  0.4999854  )
         7           Pb  tau(   7) = (  0.6666626  0.3333025  1.0000001  )
         8           Pb  tau(   8) = (  0.6666592  0.3333094  0.5000001  )
         9           Pb  tau(   9) = (  0.6666607  0.6666343  0.9999948  )
        10           Pb  tau(  10) = (  0.6666573  0.6666412  0.4999948  )
        11           Pb  tau(  11) = (  0.6666588  0.9999661  0.9999895  )
        12           Pb  tau(  12) = (  0.6666555  0.9999730  0.4999895  )
        13           Pb  tau(  13) = (  0.9999951  0.3333010  1.0000042  )
        14           Pb  tau(  14) = (  0.9999918  0.3333079  0.5000042  )
        15           Pb  tau(  15) = (  0.9999933  0.6666328  0.9999990  )
        16           Pb  tau(  16) = (  0.9999899  0.6666397  0.4999990  )
        17           Pb  tau(  17) = (  0.9999914  0.9999646  0.9999937  )
        18           Pb  tau(  18) = (  0.9999881  0.9999715  0.4999937  )
        19           I   tau(  19) = (  0.2222187  0.1110899  0.3715680  )
        20           I   tau(  20) = (  0.2222221  0.1110829  0.8715680  )
        21           I   tau(  21) = (  0.2222169  0.4444217  0.3715628  )
        22           I   tau(  22) = (  0.2222202  0.4444147  0.8715628  )
        23           I   tau(  23) = (  0.2222150  0.7777534  0.3715575  )
        24           I   tau(  24) = (  0.2222183  0.7777465  0.8715575  )
        25           I   tau(  25) = (  0.5555513  0.1110884  0.3715722  )
        26           I   tau(  26) = (  0.5555547  0.1110814  0.8715722  )
        27           I   tau(  27) = (  0.5555495  0.4444202  0.3715669  )
        28           I   tau(  28) = (  0.5555528  0.4444132  0.8715669  )
        29           I   tau(  29) = (  0.5555476  0.7777520  0.3715617  )
        30           I   tau(  30) = (  0.5555509  0.7777450  0.8715617  )
        31           I   tau(  31) = (  0.8888839  0.1110869  0.3715764  )
        32           I   tau(  32) = (  0.8888873  0.1110799  0.8715764  )
        33           I   tau(  33) = (  0.8888820  0.4444187  0.3715711  )
        34           I   tau(  34) = (  0.8888854  0.4444117  0.8715711  )
        35           I   tau(  35) = (  0.8888802  0.7777505  0.3715658  )
        36           I   tau(  36) = (  0.8888835  0.7777435  0.8715658  )
        37           I   tau(  37) = (  0.1111028  0.2222102  0.1284257  )
        38           I   tau(  38) = (  0.1111061  0.2222032  0.6284257  )
        39           I   tau(  39) = (  0.1111009  0.5555420  0.1284204  )
        40           I   tau(  40) = (  0.1111043  0.5555350  0.6284204  )
        41           I   tau(  41) = (  0.1110991  0.8888738  0.1284152  )
        42           I   tau(  42) = (  0.1111024  0.8888668  0.6284152  )
        43           I   tau(  43) = (  0.4444354  0.2222087  0.1284299  )
        44           I   tau(  44) = (  0.4444387  0.2222017  0.6284299  )
        45           I   tau(  45) = (  0.4444335  0.5555405  0.1284246  )
        46           I   tau(  46) = (  0.4444369  0.5555335  0.6284246  )
        47           I   tau(  47) = (  0.4444316  0.8888723  0.1284193  )
        48           I   tau(  48) = (  0.4444350  0.8888653  0.6284193  )
        49           I   tau(  49) = (  0.7777680  0.2222072  0.1284340  )
        50           I   tau(  50) = (  0.7777713  0.2222002  0.6284340  )
        51           I   tau(  51) = (  0.7777661  0.5555390  0.1284287  )
        52           I   tau(  52) = (  0.7777694  0.5555320  0.6284287  )
        53           I   tau(  53) = (  0.7777642  0.8888708  0.1284235  )
        54           I   tau(  54) = (  0.7777676  0.8888638  0.6284235  )

     number of k points=     4  Gaussian smearing, width (Ry)=  0.0100
                       cart. coord. in units 2pi/alat
        k(    1) = (   0.0000000   0.0000000   0.0000000), wk =   0.5000000
        k(    2) = (   0.0000000  -0.5773503   0.0000000), wk =   0.5000000
        k(    3) = (   0.5000000  -0.2886751   0.0000000), wk =   0.5000000
        k(    4) = (  -0.5000000  -0.2886751   0.0000000), wk =   0.5000000

                       cryst. coord.
        k(    1) = (   0.0000000   0.0000000   0.0000000), wk =   0.5000000
        k(    2) = (   0.0000000  -0.5000000   0.0000000), wk =   0.5000000
        k(    3) = (   0.5000000  -0.5000000   0.0000000), wk =   0.5000000
        k(    4) = (  -0.5000000   0.0000000   0.0000000), wk =   0.5000000

     Dense  grid:  1904969 G-vectors     FFT dimensions: ( 160, 160, 180)

     Smooth grid:  1362953 G-vectors     FFT dimensions: ( 144, 144, 150)

     Dynamical RAM for                 wfc:      21.04 MB

     Dynamical RAM for     wfc (w. buffer):      63.12 MB

     Dynamical RAM for           str. fact:       0.91 MB

     Dynamical RAM for           local pot:       0.00 MB

     Dynamical RAM for          nlocal pot:      39.48 MB

     Dynamical RAM for                qrad:       3.00 MB

     Dynamical RAM for          rho,v,vnew:       3.12 MB

     Dynamical RAM for               rhoin:       1.04 MB

     Dynamical RAM for            rho*nmix:       7.27 MB

     Dynamical RAM for           G-vectors:       1.87 MB

     Dynamical RAM for          h,s,v(r/c):     196.53 MB

     Dynamical RAM for          <psi|beta>:       7.68 MB

     Dynamical RAM for                 psi:      84.16 MB

     Dynamical RAM for                hpsi:      84.16 MB

     Dynamical RAM for                spsi:      84.16 MB

     Dynamical RAM for      wfcinit/wfcrot:      48.23 MB

     Dynamical RAM for           addusdens:      50.64 MB

     Dynamical RAM for          addusforce:      66.68 MB

     Dynamical RAM for         addusstress:      45.76 MB

     Estimated static dynamical RAM per process >     116.83 MB

     Estimated max dynamical RAM per process >     580.80 MB

     Estimated total dynamical RAM >      72.15 GB

     Atomic positions and unit cell read from directory:
     ./PbI2.save/
     Atomic positions from file used, from input discarded
 

     Check: negative core charge=   -0.000001

     The initial density is read from file :
     ./PbI2.save/charge-density



     %%%%%%%%%%%%%%%%%%%%%%%%%%%%%%%%%%%%%%%%%%%%%%%%%%%%%%%%%%%%%%%%%%%%%%%%
     %                                                                      %
     % You are using vdW-DF, which was implemented by the Thonhauser group. %
     % Please cite the following two papers that made this development      %
     % possible and the two reviews that describe the various versions:     %
     %                                                                      %
     %   T. Thonhauser et al., PRL 115, 136402 (2015).                      %
     %   T. Thonhauser et al., PRB 76, 125112 (2007).                       %
     %   K. Berland et al., Rep. Prog. Phys. 78, 066501 (2015).             %
     %   D.C. Langreth et al., J. Phys.: Condens. Matter 21, 084203 (2009). %
     %                                                                      %
     % If you are calculating stress with vdW-DF, please also cite:         %
     %                                                                      %
     %   R. Sabatini et al., J. Phys.: Condens. Matter 24, 424209 (2012).   %
     %                                                                      %
     %%%%%%%%%%%%%%%%%%%%%%%%%%%%%%%%%%%%%%%%%%%%%%%%%%%%%%%%%%%%%%%%%%%%%%%%

     %%%%%%%%%%%%%%%%%%%%%%%%%%%%%%%%%%%%%%%%%%%%%%%%%%%%%%%%%%%%%%%%%%%%%%%%
     %                                                                      %
     %  vdW-DF NEWS:                                                        %
     %                                                                      %
     %  * vdW-DF3 is now available. DOI: 10.1021/acs.jctc.0c00471           %
     %    use with input_dft = 'vdW-DF3-opt1' or 'vdW-DF3-opt2'             %
     %                                                                      %
     %  * Unscreened and range-separated vdW-DF hybrid functionals          %
     %    DOI: 10.1063/1.4986522 and 10.1088/1361-648X/ac2ad2               %
     %    use with input_dft = 'vdW-DF-cx0' (etc) and 'vdW-DF-ahcx'         %
     %                                                                      %
     %%%%%%%%%%%%%%%%%%%%%%%%%%%%%%%%%%%%%%%%%%%%%%%%%%%%%%%%%%%%%%%%%%%%%%%%


     Carrying out vdW-DF run using the following parameters:
     Nqs    =  20  Npoints =  1024  r_max =  100.000
     q_mesh =  0.00001000  0.04494208  0.09755937  0.15916263
               0.23128650  0.31572767  0.41458969  0.53033537
               0.66584808  0.82450364  1.01025438  1.22772762
               1.48234092  1.78043706  2.12944203  2.53805004
               3.01644009  3.57652955  4.23227104  5.00000000


     -----------------------------------------------
     Non-local corr. energy    =      25.88797497 Ry
     -----------------------------------------------

     Wavefunctions not found or not readable, recomputing them from scratch
     Starting wfcs are  486 randomized atomic wfcs +   32 random wfcs
     Checking if some PAW data can be deallocated... 
       PAW data deallocated on   74 nodes for type:  1
       PAW data deallocated on   54 nodes for type:  2

     total cpu time spent up to now is       12.0 secs

     Self-consistent Calculation

     iteration #  1     ecut=    70.00 Ry     beta= 0.70
     Davidson diagonalization with overlap

---- Real-time Memory Report at c_bands before calling an iterative solver
           359 MiB given to the printing process from OS
             0 MiB allocation reported by mallinfo(arena+hblkhd)
       1925757 MiB available memory on the node where the printing process lives
------------------
     ethr =  1.00E-05,  avg # of iterations = 26.0

     Threshold (ethr) on eigenvalues was too large:
     Diagonalizing with lowered threshold

     Davidson diagonalization with overlap

---- Real-time Memory Report at c_bands before calling an iterative solver
           716 MiB given to the printing process from OS
             0 MiB allocation reported by mallinfo(arena+hblkhd)
       1923629 MiB available memory on the node where the printing process lives
------------------
     c_bands:  4 eigenvalues not converged
     ethr =  1.16E-08,  avg # of iterations = 39.0


     -----------------------------------------------
     Non-local corr. energy    =      25.88803434 Ry
     -----------------------------------------------


     total cpu time spent up to now is      369.3 secs

     End of self-consistent calculation

          k = 0.0000 0.0000 0.0000 (170421 PWs)   bands (ev):

   -40.7753 -40.7753 -40.7753 -40.7753 -40.7753 -40.7753 -40.7752 -40.7752
   -40.7752 -40.7752 -40.7752 -40.7752 -40.7752 -40.7752 -40.7752 -40.7752
   -40.7752 -40.7752 -40.7751 -40.7751 -40.7751 -40.7751 -40.7751 -40.7751
   -40.7736 -40.7736 -40.7736 -40.7735 -40.7735 -40.7735 -40.7735 -40.7735
   -40.7735 -40.7735 -40.7735 -40.7734 -40.7734 -40.7734 -40.7734 -40.7734
   -40.7734 -40.7734 -40.7734 -40.7734 -40.7733 -40.7733 -40.7733 -40.7733
   -40.7730 -40.7730 -40.7730 -40.7730 -40.7729 -40.7729 -40.7729 -40.7729
   -40.7729 -40.7729 -40.7729 -40.7729 -40.7718 -40.7718 -40.7718 -40.7718
   -40.7718 -40.7718 -40.7718 -40.7718 -40.7718 -40.7718 -40.7717 -40.7717
   -40.7717 -40.7717 -40.7717 -40.7717 -40.7717 -40.7717 -40.7717 -40.7717
   -40.7717 -40.7717 -40.7716 -40.7716 -40.7711 -40.7710 -40.7710 -40.7710
   -40.7710 -40.7710 -40.7710 -40.7709 -40.7709 -40.7709 -40.7709 -40.7709
   -40.7709 -40.7709 -40.7708 -40.7708 -40.7708 -40.7708 -40.7708 -40.7708
   -40.7708 -40.7708 -40.7707 -40.7707 -40.7703 -40.7703 -40.7703 -40.7702
   -40.7702 -40.7702 -40.7702 -40.7702 -40.7702 -40.7702 -40.7702 -40.7701
   -40.7700 -40.7700 -40.7700 -40.7700 -40.7700 -40.7700 -40.7700 -40.7700
   -40.7700 -40.7700 -40.7699 -40.7699 -40.7696 -40.7695 -40.7695 -40.7695
   -40.7695 -40.7695 -40.7695 -40.7695 -40.7695 -40.7695 -40.7695 -40.7695
   -40.7692 -40.7691 -40.7691 -40.7691 -40.7691 -40.7691 -40.7691 -40.7691
   -40.7691 -40.7691 -40.7690 -40.7690 -40.7690 -40.7690 -40.7690 -40.7690
   -40.7690 -40.7690 -40.7690 -40.7690 -40.7690 -40.7690 -40.7689 -40.7689
   -40.7686 -40.7686 -40.7685 -40.7685 -40.7685 -40.7685 -40.7685 -40.7685
   -40.7685 -40.7685 -40.7684 -40.7684 -12.9340 -12.9340 -12.9340 -12.9340
   -12.9304 -12.9304 -12.9303 -12.9303 -12.9287 -12.9287 -12.9287 -12.9287
   -12.9239 -12.9239 -12.9239 -12.9239 -12.9236 -12.9236 -12.9236 -12.9236
   -12.9156 -12.9156 -12.9156 -12.9156 -12.9153 -12.9153 -12.9142 -12.9142
   -12.9142 -12.9142 -12.9112 -12.9112 -12.9111 -12.9110 -12.9110 -12.9110
   -12.9110 -12.9109 -12.9098 -12.9098 -12.9096 -12.9096 -12.9095 -12.9095
   -12.9091 -12.9091 -12.9083 -12.9083 -12.9083 -12.9083 -12.9069 -12.9069
   -12.9063 -12.9063 -12.9063 -12.9063 -12.9047 -12.9047 -12.9047 -12.9047
   -12.9036 -12.9035 -12.9035 -12.9035 -12.9035 -12.9035 -12.9033 -12.9033
   -12.9033 -12.9032 -12.9028 -12.9028 -12.9028 -12.9028 -12.9009 -12.9008
   -12.9008 -12.9007 -12.9006 -12.9006 -12.9006 -12.9005 -12.8993 -12.8993
   -12.8993 -12.8993 -12.8982 -12.8982 -12.8982 -12.8982  -8.1078  -8.0197
    -7.7853  -7.7853  -7.7841  -7.7836  -7.7826  -7.7826  -7.7251  -7.7251
    -7.7243  -7.7233  -7.7226  -7.7226  -7.6930  -7.5787  -7.5486  -7.5486
    -7.5484  -7.5465  -7.5464  -7.5464  -7.5132  -7.5132  -7.5130  -7.5130
    -7.5118  -7.5118  -7.5117  -7.5117  -7.4823  -7.4820  -7.4820  -7.4801
    -7.4801  -7.4798  -3.6939  -3.6938  -3.6874  -3.6873  -3.4914  -3.4899
    -3.4896  -3.4896  -3.4882  -3.4881  -3.4879  -3.4879  -3.4864  -3.4864
    -3.4863  -3.4848  -3.1803  -3.1015   1.1981   1.1981   1.1981   1.1981
     1.2170   1.2170   1.2170   1.2174   1.2175   1.2175   1.3001   1.3001
     1.3004   1.3006   1.3008   1.3008   1.4723   1.4725   1.4829   1.4829
     1.4829   1.4829   1.6819   1.6821   1.8240   1.8240   1.8249   1.8259
     1.8266   1.8266   2.0547   2.0548   2.0548   2.0548   2.0549   2.0549
     2.1677   2.1678   2.1678   2.1678   2.1679   2.1679   2.2050   2.2193
     2.2194   2.2208   2.2218   2.2230   2.2230   2.4388   2.4389   2.4389
     2.4390   2.5972   2.5972   2.5984   2.5993   2.6004   2.6005   2.6559
     2.6896   2.6896   2.7645   2.7646   2.8129   2.8131   2.8131   2.8132
     2.8138   2.8139   2.8139   2.8147   2.8147   2.8152   2.8152   2.8168
     2.8844   2.8844   2.9534   2.9534   2.9534   2.9534   2.9818   2.9818
     2.9890   2.9898   2.9898   2.9898   2.9898   2.9906   3.0103   3.0911
     3.0930   3.0930   3.0958   3.0959   3.0975   3.1053   3.1054   3.2657
     3.2677   3.2677   3.2687   3.2687   3.2706   3.4549   3.4549   3.4639
     5.9286   6.1300   6.5553   6.5561   6.5561   6.5566   6.5567   6.5575
     6.8014   6.8015   6.8208   6.8210   6.8211   6.8212   6.8212   6.8214
     6.9037   6.9037   7.0913   7.0913   7.0915   7.0916   7.2700   7.2700
     7.2712   7.2722   7.2732   7.2732   7.4349   7.4349   7.4358   7.4375
     7.4382   7.4382   7.5478   7.5499   7.5499   7.5504   7.5504   7.5520
     7.6509   7.6523   7.6523   7.6526   7.6527   7.6541   7.6785   7.6785
     7.6785   7.6786   7.6899   7.6900   7.9064   7.9066   9.5085   9.5086
     9.5086   9.5112   9.5112   9.5113   9.8571   9.8693   9.8694   9.8705
     9.8716   9.8727   9.8727  10.2045  10.2047  10.4428  10.7718  10.7719
    10.9922  10.9922  10.9923  10.9923  11.0689  11.0690  11.0696  11.0735
    11.0743  11.0743  11.1370  11.1375  11.1376  11.1384

     occupation numbers 
     1.0000   1.0000   1.0000   1.0000   1.0000   1.0000   1.0000   1.0000
     1.0000   1.0000   1.0000   1.0000   1.0000   1.0000   1.0000   1.0000
     1.0000   1.0000   1.0000   1.0000   1.0000   1.0000   1.0000   1.0000
     1.0000   1.0000   1.0000   1.0000   1.0000   1.0000   1.0000   1.0000
     1.0000   1.0000   1.0000   1.0000   1.0000   1.0000   1.0000   1.0000
     1.0000   1.0000   1.0000   1.0000   1.0000   1.0000   1.0000   1.0000
     1.0000   1.0000   1.0000   1.0000   1.0000   1.0000   1.0000   1.0000
     1.0000   1.0000   1.0000   1.0000   1.0000   1.0000   1.0000   1.0000
     1.0000   1.0000   1.0000   1.0000   1.0000   1.0000   1.0000   1.0000
     1.0000   1.0000   1.0000   1.0000   1.0000   1.0000   1.0000   1.0000
     1.0000   1.0000   1.0000   1.0000   1.0000   1.0000   1.0000   1.0000
     1.0000   1.0000   1.0000   1.0000   1.0000   1.0000   1.0000   1.0000
     1.0000   1.0000   1.0000   1.0000   1.0000   1.0000   1.0000   1.0000
     1.0000   1.0000   1.0000   1.0000   1.0000   1.0000   1.0000   1.0000
     1.0000   1.0000   1.0000   1.0000   1.0000   1.0000   1.0000   1.0000
     1.0000   1.0000   1.0000   1.0000   1.0000   1.0000   1.0000   1.0000
     1.0000   1.0000   1.0000   1.0000   1.0000   1.0000   1.0000   1.0000
     1.0000   1.0000   1.0000   1.0000   1.0000   1.0000   1.0000   1.0000
     1.0000   1.0000   1.0000   1.0000   1.0000   1.0000   1.0000   1.0000
     1.0000   1.0000   1.0000   1.0000   1.0000   1.0000   1.0000   1.0000
     1.0000   1.0000   1.0000   1.0000   1.0000   1.0000   1.0000   1.0000
     1.0000   1.0000   1.0000   1.0000   1.0000   1.0000   1.0000   1.0000
     1.0000   1.0000   1.0000   1.0000   1.0000   1.0000   1.0000   1.0000
     1.0000   1.0000   1.0000   1.0000   1.0000   1.0000   1.0000   1.0000
     1.0000   1.0000   1.0000   1.0000   1.0000   1.0000   1.0000   1.0000
     1.0000   1.0000   1.0000   1.0000   1.0000   1.0000   1.0000   1.0000
     1.0000   1.0000   1.0000   1.0000   1.0000   1.0000   1.0000   1.0000
     1.0000   1.0000   1.0000   1.0000   1.0000   1.0000   1.0000   1.0000
     1.0000   1.0000   1.0000   1.0000   1.0000   1.0000   1.0000   1.0000
     1.0000   1.0000   1.0000   1.0000   1.0000   1.0000   1.0000   1.0000
     1.0000   1.0000   1.0000   1.0000   1.0000   1.0000   1.0000   1.0000
     1.0000   1.0000   1.0000   1.0000   1.0000   1.0000   1.0000   1.0000
     1.0000   1.0000   1.0000   1.0000   1.0000   1.0000   1.0000   1.0000
     1.0000   1.0000   1.0000   1.0000   1.0000   1.0000   1.0000   1.0000
     1.0000   1.0000   1.0000   1.0000   1.0000   1.0000   1.0000   1.0000
     1.0000   1.0000   1.0000   1.0000   1.0000   1.0000   1.0000   1.0000
     1.0000   1.0000   1.0000   1.0000   1.0000   1.0000   1.0000   1.0000
     1.0000   1.0000   1.0000   1.0000   1.0000   1.0000   1.0000   1.0000
     1.0000   1.0000   1.0000   1.0000   1.0000   1.0000   1.0000   1.0000
     1.0000   1.0000   1.0000   1.0000   1.0000   1.0000   1.0000   1.0000
     1.0000   1.0000   1.0000   1.0000   1.0000   1.0000   1.0000   1.0000
     1.0000   1.0000   1.0000   1.0000   1.0000   1.0000   1.0000   1.0000
     1.0000   1.0000   1.0000   1.0000   1.0000   1.0000   1.0000   1.0000
     1.0000   1.0000   1.0000   1.0000   1.0000   1.0000   1.0000   1.0000
     1.0000   1.0000   1.0000   1.0000   1.0000   1.0000   1.0000   1.0000
     1.0000   1.0000   1.0000   1.0000   1.0000   1.0000   1.0000   1.0000
     1.0000   1.0000   1.0000   1.0000   1.0000   1.0000   1.0000   1.0000
     1.0000   1.0000   1.0000   1.0000   1.0000   1.0000   1.0000   1.0000
     1.0000   1.0000   1.0000   1.0000   1.0000   1.0000   1.0000   1.0000
     1.0000   1.0000   1.0000   1.0000   1.0000   1.0000   1.0000   1.0000
     1.0000   1.0000   1.0000   1.0000   1.0000   1.0000   1.0000   1.0000
     1.0000   1.0000   1.0000   1.0000   1.0000   1.0000   1.0000   1.0000
     1.0000   1.0000   1.0000   1.0000   1.0000   1.0000   1.0000   1.0000
     1.0000   1.0000   1.0000   1.0000   1.0000   1.0000   1.0000   1.0000
     0.0000   0.0000   0.0000   0.0000   0.0000   0.0000   0.0000   0.0000
     0.0000   0.0000   0.0000   0.0000   0.0000   0.0000   0.0000   0.0000
     0.0000   0.0000   0.0000   0.0000   0.0000   0.0000   0.0000   0.0000
     0.0000   0.0000   0.0000   0.0000   0.0000   0.0000   0.0000   0.0000
     0.0000   0.0000   0.0000   0.0000   0.0000   0.0000   0.0000   0.0000
     0.0000   0.0000   0.0000   0.0000   0.0000   0.0000   0.0000   0.0000
     0.0000   0.0000   0.0000   0.0000   0.0000   0.0000   0.0000   0.0000
     0.0000   0.0000   0.0000   0.0000   0.0000   0.0000   0.0000   0.0000
     0.0000   0.0000   0.0000   0.0000   0.0000   0.0000   0.0000   0.0000
     0.0000   0.0000   0.0000   0.0000   0.0000   0.0000   0.0000   0.0000
     0.0000   0.0000   0.0000   0.0000   0.0000   0.0000

          k = 0.0000-0.5774 0.0000 (170366 PWs)   bands (ev):

   -40.7753 -40.7753 -40.7753 -40.7753 -40.7753 -40.7753 -40.7752 -40.7752
   -40.7752 -40.7752 -40.7752 -40.7752 -40.7752 -40.7752 -40.7752 -40.7752
   -40.7752 -40.7752 -40.7751 -40.7751 -40.7751 -40.7751 -40.7751 -40.7751
   -40.7736 -40.7736 -40.7736 -40.7735 -40.7735 -40.7735 -40.7735 -40.7735
   -40.7735 -40.7735 -40.7735 -40.7734 -40.7734 -40.7734 -40.7734 -40.7734
   -40.7734 -40.7734 -40.7734 -40.7734 -40.7733 -40.7733 -40.7733 -40.7733
   -40.7730 -40.7730 -40.7730 -40.7730 -40.7729 -40.7729 -40.7729 -40.7729
   -40.7729 -40.7729 -40.7729 -40.7729 -40.7718 -40.7718 -40.7718 -40.7718
   -40.7718 -40.7718 -40.7718 -40.7718 -40.7718 -40.7718 -40.7717 -40.7717
   -40.7717 -40.7717 -40.7717 -40.7717 -40.7717 -40.7717 -40.7717 -40.7717
   -40.7717 -40.7717 -40.7716 -40.7716 -40.7711 -40.7710 -40.7710 -40.7710
   -40.7710 -40.7710 -40.7710 -40.7709 -40.7709 -40.7709 -40.7709 -40.7709
   -40.7709 -40.7709 -40.7708 -40.7708 -40.7708 -40.7708 -40.7708 -40.7708
   -40.7708 -40.7708 -40.7707 -40.7707 -40.7703 -40.7703 -40.7703 -40.7702
   -40.7702 -40.7702 -40.7702 -40.7702 -40.7702 -40.7702 -40.7702 -40.7701
   -40.7700 -40.7700 -40.7700 -40.7700 -40.7700 -40.7700 -40.7700 -40.7700
   -40.7700 -40.7700 -40.7699 -40.7699 -40.7696 -40.7695 -40.7695 -40.7695
   -40.7695 -40.7695 -40.7695 -40.7695 -40.7695 -40.7695 -40.7695 -40.7695
   -40.7692 -40.7691 -40.7691 -40.7691 -40.7691 -40.7691 -40.7691 -40.7691
   -40.7691 -40.7691 -40.7690 -40.7690 -40.7690 -40.7690 -40.7690 -40.7690
   -40.7690 -40.7690 -40.7690 -40.7690 -40.7690 -40.7690 -40.7689 -40.7689
   -40.7686 -40.7686 -40.7685 -40.7685 -40.7685 -40.7685 -40.7685 -40.7685
   -40.7685 -40.7685 -40.7684 -40.7684 -12.9372 -12.9371 -12.9344 -12.9344
   -12.9319 -12.9319 -12.9304 -12.9303 -12.9298 -12.9298 -12.9256 -12.9255
   -12.9254 -12.9254 -12.9217 -12.9217 -12.9186 -12.9186 -12.9172 -12.9172
   -12.9164 -12.9164 -12.9154 -12.9154 -12.9143 -12.9143 -12.9141 -12.9141
   -12.9133 -12.9133 -12.9133 -12.9133 -12.9132 -12.9131 -12.9131 -12.9131
   -12.9112 -12.9112 -12.9110 -12.9109 -12.9100 -12.9099 -12.9090 -12.9090
   -12.9089 -12.9088 -12.9075 -12.9075 -12.9075 -12.9074 -12.9074 -12.9074
   -12.9074 -12.9073 -12.9071 -12.9071 -12.9067 -12.9067 -12.9066 -12.9066
   -12.9050 -12.9050 -12.9049 -12.9048 -12.9041 -12.9041 -12.9035 -12.9035
   -12.9034 -12.9033 -12.9031 -12.9031 -12.9022 -12.9021 -12.9016 -12.9016
   -12.9005 -12.9005 -12.9005 -12.9005 -12.8997 -12.8997 -12.8984 -12.8984
   -12.8978 -12.8978 -12.8977 -12.8977 -12.8966 -12.8966  -8.0125  -8.0117
    -7.9307  -7.9298  -7.8489  -7.8488  -7.7813  -7.7812  -7.6430  -7.6420
    -7.6370  -7.6362  -7.6359  -7.6352  -7.6216  -7.5999  -7.5992  -7.5987
    -7.5980  -7.5856  -7.5686  -7.5685  -7.5410  -7.5400  -7.5220  -7.5100
    -7.5100  -7.5088  -7.5086  -7.4909  -7.4907  -7.4878  -7.4734  -7.4731
    -7.4717  -7.4716  -3.6376  -3.6264  -3.6253  -3.6243  -3.6236  -3.6233
    -3.6227  -3.6226  -3.6220  -3.6210  -3.4258  -3.4257  -3.4131  -3.4130
    -3.2676  -3.2659  -3.2211  -3.2193   0.8596   1.0504   1.0506   1.0512
     1.0513   1.1230   1.2669   1.2671   1.2678   1.2678   1.5514   1.5515
     1.5519   1.5520   1.5523   1.5524   1.5747   1.5748   1.6186   1.6188
     1.6189   1.6193   1.6445   1.6446   1.7431   1.8393   1.8393   1.8718
     1.8720   1.8998   1.8999   1.9014   1.9017   1.9063   1.9178   1.9180
     1.9181   1.9182   2.0294   2.0794   2.0797   2.1646   2.2321   2.2321
     2.3564   2.3572   2.3602   2.3623   2.4276   2.4296   2.4654   2.4654
     2.4738   2.4894   2.4895   2.4908   2.4914   2.4921   2.4939   2.5923
     2.5924   2.5926   2.5926   2.6067   2.7047   2.7048   2.7172   2.7174
     2.7189   2.7192   2.7549   2.7579   2.7579   2.8119   2.8126   2.8127
     2.8134   2.8885   2.8888   2.8894   2.8897   2.9307   2.9307   2.9596
     3.0055   3.0057   3.0140   3.0211   3.0212   3.0546   3.0555   3.2081
     3.2107   3.2114   3.2117   3.2128   3.2770   3.2777   3.2796   3.2800
     3.3520   3.3525   3.3578   3.3582   3.3868   3.3875   3.3938   3.3949
     6.4614   6.4639   6.4657   6.4678   6.5924   6.7911   6.7912   6.8551
     6.8599   6.8701   6.9308   6.9311   7.0109   7.0133   7.0134   7.0135
     7.0145   7.0166   7.0494   7.0535   7.0639   7.0678   7.1232   7.1238
     7.1272   7.1279   7.1467   7.1511   7.3106   7.3118   7.3158   7.3167
     7.3227   7.3368   7.3369   7.3869   7.3874   7.4199   7.4210   7.4235
     7.4244   7.4321   7.5022   7.5025   7.5524   7.5552   7.5563   7.5590
     7.5758   7.8767   7.8778   7.8813   7.8823   8.0621   9.1889   9.6594
     9.6597   9.6605   9.6609   9.7636  10.1024  10.1025  10.1616  10.1617
    10.2130  10.2131  10.2138  10.2140  10.2920  10.2922  10.3220  10.3221
    10.3237  10.3248  10.7411  10.7453  10.7669  10.7673  10.9030  10.9037
    10.9056  10.9063  10.9941  10.9957  10.9971  10.9983

     occupation numbers 
     1.0000   1.0000   1.0000   1.0000   1.0000   1.0000   1.0000   1.0000
     1.0000   1.0000   1.0000   1.0000   1.0000   1.0000   1.0000   1.0000
     1.0000   1.0000   1.0000   1.0000   1.0000   1.0000   1.0000   1.0000
     1.0000   1.0000   1.0000   1.0000   1.0000   1.0000   1.0000   1.0000
     1.0000   1.0000   1.0000   1.0000   1.0000   1.0000   1.0000   1.0000
     1.0000   1.0000   1.0000   1.0000   1.0000   1.0000   1.0000   1.0000
     1.0000   1.0000   1.0000   1.0000   1.0000   1.0000   1.0000   1.0000
     1.0000   1.0000   1.0000   1.0000   1.0000   1.0000   1.0000   1.0000
     1.0000   1.0000   1.0000   1.0000   1.0000   1.0000   1.0000   1.0000
     1.0000   1.0000   1.0000   1.0000   1.0000   1.0000   1.0000   1.0000
     1.0000   1.0000   1.0000   1.0000   1.0000   1.0000   1.0000   1.0000
     1.0000   1.0000   1.0000   1.0000   1.0000   1.0000   1.0000   1.0000
     1.0000   1.0000   1.0000   1.0000   1.0000   1.0000   1.0000   1.0000
     1.0000   1.0000   1.0000   1.0000   1.0000   1.0000   1.0000   1.0000
     1.0000   1.0000   1.0000   1.0000   1.0000   1.0000   1.0000   1.0000
     1.0000   1.0000   1.0000   1.0000   1.0000   1.0000   1.0000   1.0000
     1.0000   1.0000   1.0000   1.0000   1.0000   1.0000   1.0000   1.0000
     1.0000   1.0000   1.0000   1.0000   1.0000   1.0000   1.0000   1.0000
     1.0000   1.0000   1.0000   1.0000   1.0000   1.0000   1.0000   1.0000
     1.0000   1.0000   1.0000   1.0000   1.0000   1.0000   1.0000   1.0000
     1.0000   1.0000   1.0000   1.0000   1.0000   1.0000   1.0000   1.0000
     1.0000   1.0000   1.0000   1.0000   1.0000   1.0000   1.0000   1.0000
     1.0000   1.0000   1.0000   1.0000   1.0000   1.0000   1.0000   1.0000
     1.0000   1.0000   1.0000   1.0000   1.0000   1.0000   1.0000   1.0000
     1.0000   1.0000   1.0000   1.0000   1.0000   1.0000   1.0000   1.0000
     1.0000   1.0000   1.0000   1.0000   1.0000   1.0000   1.0000   1.0000
     1.0000   1.0000   1.0000   1.0000   1.0000   1.0000   1.0000   1.0000
     1.0000   1.0000   1.0000   1.0000   1.0000   1.0000   1.0000   1.0000
     1.0000   1.0000   1.0000   1.0000   1.0000   1.0000   1.0000   1.0000
     1.0000   1.0000   1.0000   1.0000   1.0000   1.0000   1.0000   1.0000
     1.0000   1.0000   1.0000   1.0000   1.0000   1.0000   1.0000   1.0000
     1.0000   1.0000   1.0000   1.0000   1.0000   1.0000   1.0000   1.0000
     1.0000   1.0000   1.0000   1.0000   1.0000   1.0000   1.0000   1.0000
     1.0000   1.0000   1.0000   1.0000   1.0000   1.0000   1.0000   1.0000
     1.0000   1.0000   1.0000   1.0000   1.0000   1.0000   1.0000   1.0000
     1.0000   1.0000   1.0000   1.0000   1.0000   1.0000   1.0000   1.0000
     1.0000   1.0000   1.0000   1.0000   1.0000   1.0000   1.0000   1.0000
     1.0000   1.0000   1.0000   1.0000   1.0000   1.0000   1.0000   1.0000
     1.0000   1.0000   1.0000   1.0000   1.0000   1.0000   1.0000   1.0000
     1.0000   1.0000   1.0000   1.0000   1.0000   1.0000   1.0000   1.0000
     1.0000   1.0000   1.0000   1.0000   1.0000   1.0000   1.0000   1.0000
     1.0000   1.0000   1.0000   1.0000   1.0000   1.0000   1.0000   1.0000
     1.0000   1.0000   1.0000   1.0000   1.0000   1.0000   1.0000   1.0000
     1.0000   1.0000   1.0000   1.0000   1.0000   1.0000   1.0000   1.0000
     1.0000   1.0000   1.0000   1.0000   1.0000   1.0000   1.0000   1.0000
     1.0000   1.0000   1.0000   1.0000   1.0000   1.0000   1.0000   1.0000
     1.0000   1.0000   1.0000   1.0000   1.0000   1.0000   1.0000   1.0000
     1.0000   1.0000   1.0000   1.0000   1.0000   1.0000   1.0000   1.0000
     1.0000   1.0000   1.0000   1.0000   1.0000   1.0000   1.0000   1.0000
     1.0000   1.0000   1.0000   1.0000   1.0000   1.0000   1.0000   1.0000
     1.0000   1.0000   1.0000   1.0000   1.0000   1.0000   1.0000   1.0000
     1.0000   1.0000   1.0000   1.0000   1.0000   1.0000   1.0000   1.0000
     1.0000   1.0000   1.0000   1.0000   1.0000   1.0000   1.0000   1.0000
     1.0000   1.0000   1.0000   1.0000   1.0000   1.0000   1.0000   1.0000
     0.0000   0.0000   0.0000   0.0000   0.0000   0.0000   0.0000   0.0000
     0.0000   0.0000   0.0000   0.0000   0.0000   0.0000   0.0000   0.0000
     0.0000   0.0000   0.0000   0.0000   0.0000   0.0000   0.0000   0.0000
     0.0000   0.0000   0.0000   0.0000   0.0000   0.0000   0.0000   0.0000
     0.0000   0.0000   0.0000   0.0000   0.0000   0.0000   0.0000   0.0000
     0.0000   0.0000   0.0000   0.0000   0.0000   0.0000   0.0000   0.0000
     0.0000   0.0000   0.0000   0.0000   0.0000   0.0000   0.0000   0.0000
     0.0000   0.0000   0.0000   0.0000   0.0000   0.0000   0.0000   0.0000
     0.0000   0.0000   0.0000   0.0000   0.0000   0.0000   0.0000   0.0000
     0.0000   0.0000   0.0000   0.0000   0.0000   0.0000   0.0000   0.0000
     0.0000   0.0000   0.0000   0.0000   0.0000   0.0000

          k = 0.5000-0.2887 0.0000 (170366 PWs)   bands (ev):

   -40.7753 -40.7753 -40.7753 -40.7753 -40.7753 -40.7753 -40.7752 -40.7752
   -40.7752 -40.7752 -40.7752 -40.7752 -40.7752 -40.7752 -40.7752 -40.7752
   -40.7752 -40.7752 -40.7751 -40.7751 -40.7751 -40.7751 -40.7751 -40.7751
   -40.7736 -40.7736 -40.7736 -40.7735 -40.7735 -40.7735 -40.7735 -40.7735
   -40.7735 -40.7735 -40.7735 -40.7734 -40.7734 -40.7734 -40.7734 -40.7734
   -40.7734 -40.7734 -40.7734 -40.7734 -40.7733 -40.7733 -40.7733 -40.7733
   -40.7730 -40.7730 -40.7730 -40.7730 -40.7729 -40.7729 -40.7729 -40.7729
   -40.7729 -40.7729 -40.7729 -40.7729 -40.7718 -40.7718 -40.7718 -40.7718
   -40.7718 -40.7718 -40.7718 -40.7718 -40.7718 -40.7718 -40.7717 -40.7717
   -40.7717 -40.7717 -40.7717 -40.7717 -40.7717 -40.7717 -40.7717 -40.7717
   -40.7717 -40.7717 -40.7716 -40.7716 -40.7711 -40.7710 -40.7710 -40.7710
   -40.7710 -40.7710 -40.7710 -40.7709 -40.7709 -40.7709 -40.7709 -40.7709
   -40.7709 -40.7709 -40.7708 -40.7708 -40.7708 -40.7708 -40.7708 -40.7708
   -40.7708 -40.7708 -40.7707 -40.7707 -40.7703 -40.7703 -40.7703 -40.7702
   -40.7702 -40.7702 -40.7702 -40.7702 -40.7702 -40.7702 -40.7702 -40.7701
   -40.7700 -40.7700 -40.7700 -40.7700 -40.7700 -40.7700 -40.7700 -40.7700
   -40.7700 -40.7700 -40.7699 -40.7699 -40.7696 -40.7695 -40.7695 -40.7695
   -40.7695 -40.7695 -40.7695 -40.7695 -40.7695 -40.7695 -40.7695 -40.7695
   -40.7692 -40.7691 -40.7691 -40.7691 -40.7691 -40.7691 -40.7691 -40.7691
   -40.7691 -40.7691 -40.7690 -40.7690 -40.7690 -40.7690 -40.7690 -40.7690
   -40.7690 -40.7690 -40.7690 -40.7690 -40.7690 -40.7690 -40.7689 -40.7689
   -40.7686 -40.7686 -40.7685 -40.7685 -40.7685 -40.7685 -40.7685 -40.7685
   -40.7685 -40.7685 -40.7684 -40.7684 -12.9372 -12.9371 -12.9345 -12.9344
   -12.9319 -12.9319 -12.9303 -12.9303 -12.9298 -12.9298 -12.9256 -12.9255
   -12.9254 -12.9254 -12.9217 -12.9217 -12.9187 -12.9186 -12.9172 -12.9172
   -12.9164 -12.9164 -12.9154 -12.9154 -12.9143 -12.9143 -12.9141 -12.9141
   -12.9133 -12.9133 -12.9133 -12.9133 -12.9132 -12.9131 -12.9131 -12.9131
   -12.9112 -12.9112 -12.9110 -12.9110 -12.9100 -12.9099 -12.9090 -12.9090
   -12.9089 -12.9089 -12.9075 -12.9075 -12.9075 -12.9074 -12.9074 -12.9074
   -12.9073 -12.9073 -12.9071 -12.9071 -12.9067 -12.9067 -12.9066 -12.9066
   -12.9050 -12.9050 -12.9048 -12.9048 -12.9041 -12.9040 -12.9035 -12.9035
   -12.9034 -12.9033 -12.9031 -12.9031 -12.9022 -12.9021 -12.9016 -12.9016
   -12.9005 -12.9005 -12.9005 -12.9005 -12.8997 -12.8997 -12.8984 -12.8984
   -12.8978 -12.8978 -12.8977 -12.8977 -12.8966 -12.8966  -8.0125  -8.0117
    -7.9307  -7.9298  -7.8489  -7.8488  -7.7813  -7.7812  -7.6430  -7.6420
    -7.6370  -7.6362  -7.6359  -7.6351  -7.6216  -7.5999  -7.5992  -7.5987
    -7.5980  -7.5856  -7.5686  -7.5685  -7.5410  -7.5400  -7.5220  -7.5100
    -7.5100  -7.5088  -7.5086  -7.4909  -7.4908  -7.4878  -7.4734  -7.4731
    -7.4718  -7.4716  -3.6376  -3.6264  -3.6253  -3.6243  -3.6237  -3.6233
    -3.6227  -3.6226  -3.6220  -3.6210  -3.4258  -3.4257  -3.4130  -3.4130
    -3.2676  -3.2659  -3.2211  -3.2193   0.8596   1.0504   1.0506   1.0512
     1.0513   1.1230   1.2670   1.2671   1.2678   1.2678   1.5514   1.5514
     1.5519   1.5520   1.5524   1.5524   1.5747   1.5748   1.6186   1.6188
     1.6189   1.6193   1.6445   1.6446   1.7430   1.8393   1.8393   1.8718
     1.8720   1.8998   1.8999   1.9014   1.9017   1.9063   1.9179   1.9180
     1.9181   1.9182   2.0294   2.0794   2.0797   2.1646   2.2321   2.2321
     2.3564   2.3571   2.3602   2.3623   2.4276   2.4296   2.4653   2.4654
     2.4738   2.4895   2.4895   2.4908   2.4914   2.4921   2.4939   2.5923
     2.5924   2.5926   2.5926   2.6067   2.7047   2.7048   2.7172   2.7174
     2.7189   2.7191   2.7549   2.7578   2.7579   2.8119   2.8126   2.8127
     2.8134   2.8885   2.8888   2.8894   2.8896   2.9307   2.9308   2.9596
     3.0055   3.0058   3.0140   3.0211   3.0212   3.0546   3.0555   3.2081
     3.2108   3.2114   3.2117   3.2128   3.2770   3.2777   3.2796   3.2800
     3.3520   3.3525   3.3578   3.3582   3.3868   3.3875   3.3938   3.3949
     6.4614   6.4639   6.4657   6.4678   6.5924   6.7912   6.7913   6.8552
     6.8600   6.8701   6.9307   6.9311   7.0108   7.0134   7.0134   7.0135
     7.0144   7.0166   7.0494   7.0535   7.0639   7.0678   7.1231   7.1238
     7.1271   7.1280   7.1468   7.1512   7.3107   7.3119   7.3159   7.3167
     7.3227   7.3368   7.3368   7.3869   7.3873   7.4199   7.4210   7.4235
     7.4245   7.4322   7.5021   7.5025   7.5524   7.5551   7.5563   7.5590
     7.5758   7.8767   7.8778   7.8813   7.8822   8.0622   9.1889   9.6594
     9.6598   9.6605   9.6610   9.7636  10.1024  10.1025  10.1616  10.1618
    10.2130  10.2132  10.2139  10.2140  10.2920  10.2922  10.3219  10.3221
    10.3237  10.3248  10.7412  10.7453  10.7669  10.7673  10.9030  10.9037
    10.9056  10.9064  10.9942  10.9955  10.9969  11.0001

     occupation numbers 
     1.0000   1.0000   1.0000   1.0000   1.0000   1.0000   1.0000   1.0000
     1.0000   1.0000   1.0000   1.0000   1.0000   1.0000   1.0000   1.0000
     1.0000   1.0000   1.0000   1.0000   1.0000   1.0000   1.0000   1.0000
     1.0000   1.0000   1.0000   1.0000   1.0000   1.0000   1.0000   1.0000
     1.0000   1.0000   1.0000   1.0000   1.0000   1.0000   1.0000   1.0000
     1.0000   1.0000   1.0000   1.0000   1.0000   1.0000   1.0000   1.0000
     1.0000   1.0000   1.0000   1.0000   1.0000   1.0000   1.0000   1.0000
     1.0000   1.0000   1.0000   1.0000   1.0000   1.0000   1.0000   1.0000
     1.0000   1.0000   1.0000   1.0000   1.0000   1.0000   1.0000   1.0000
     1.0000   1.0000   1.0000   1.0000   1.0000   1.0000   1.0000   1.0000
     1.0000   1.0000   1.0000   1.0000   1.0000   1.0000   1.0000   1.0000
     1.0000   1.0000   1.0000   1.0000   1.0000   1.0000   1.0000   1.0000
     1.0000   1.0000   1.0000   1.0000   1.0000   1.0000   1.0000   1.0000
     1.0000   1.0000   1.0000   1.0000   1.0000   1.0000   1.0000   1.0000
     1.0000   1.0000   1.0000   1.0000   1.0000   1.0000   1.0000   1.0000
     1.0000   1.0000   1.0000   1.0000   1.0000   1.0000   1.0000   1.0000
     1.0000   1.0000   1.0000   1.0000   1.0000   1.0000   1.0000   1.0000
     1.0000   1.0000   1.0000   1.0000   1.0000   1.0000   1.0000   1.0000
     1.0000   1.0000   1.0000   1.0000   1.0000   1.0000   1.0000   1.0000
     1.0000   1.0000   1.0000   1.0000   1.0000   1.0000   1.0000   1.0000
     1.0000   1.0000   1.0000   1.0000   1.0000   1.0000   1.0000   1.0000
     1.0000   1.0000   1.0000   1.0000   1.0000   1.0000   1.0000   1.0000
     1.0000   1.0000   1.0000   1.0000   1.0000   1.0000   1.0000   1.0000
     1.0000   1.0000   1.0000   1.0000   1.0000   1.0000   1.0000   1.0000
     1.0000   1.0000   1.0000   1.0000   1.0000   1.0000   1.0000   1.0000
     1.0000   1.0000   1.0000   1.0000   1.0000   1.0000   1.0000   1.0000
     1.0000   1.0000   1.0000   1.0000   1.0000   1.0000   1.0000   1.0000
     1.0000   1.0000   1.0000   1.0000   1.0000   1.0000   1.0000   1.0000
     1.0000   1.0000   1.0000   1.0000   1.0000   1.0000   1.0000   1.0000
     1.0000   1.0000   1.0000   1.0000   1.0000   1.0000   1.0000   1.0000
     1.0000   1.0000   1.0000   1.0000   1.0000   1.0000   1.0000   1.0000
     1.0000   1.0000   1.0000   1.0000   1.0000   1.0000   1.0000   1.0000
     1.0000   1.0000   1.0000   1.0000   1.0000   1.0000   1.0000   1.0000
     1.0000   1.0000   1.0000   1.0000   1.0000   1.0000   1.0000   1.0000
     1.0000   1.0000   1.0000   1.0000   1.0000   1.0000   1.0000   1.0000
     1.0000   1.0000   1.0000   1.0000   1.0000   1.0000   1.0000   1.0000
     1.0000   1.0000   1.0000   1.0000   1.0000   1.0000   1.0000   1.0000
     1.0000   1.0000   1.0000   1.0000   1.0000   1.0000   1.0000   1.0000
     1.0000   1.0000   1.0000   1.0000   1.0000   1.0000   1.0000   1.0000
     1.0000   1.0000   1.0000   1.0000   1.0000   1.0000   1.0000   1.0000
     1.0000   1.0000   1.0000   1.0000   1.0000   1.0000   1.0000   1.0000
     1.0000   1.0000   1.0000   1.0000   1.0000   1.0000   1.0000   1.0000
     1.0000   1.0000   1.0000   1.0000   1.0000   1.0000   1.0000   1.0000
     1.0000   1.0000   1.0000   1.0000   1.0000   1.0000   1.0000   1.0000
     1.0000   1.0000   1.0000   1.0000   1.0000   1.0000   1.0000   1.0000
     1.0000   1.0000   1.0000   1.0000   1.0000   1.0000   1.0000   1.0000
     1.0000   1.0000   1.0000   1.0000   1.0000   1.0000   1.0000   1.0000
     1.0000   1.0000   1.0000   1.0000   1.0000   1.0000   1.0000   1.0000
     1.0000   1.0000   1.0000   1.0000   1.0000   1.0000   1.0000   1.0000
     1.0000   1.0000   1.0000   1.0000   1.0000   1.0000   1.0000   1.0000
     1.0000   1.0000   1.0000   1.0000   1.0000   1.0000   1.0000   1.0000
     1.0000   1.0000   1.0000   1.0000   1.0000   1.0000   1.0000   1.0000
     1.0000   1.0000   1.0000   1.0000   1.0000   1.0000   1.0000   1.0000
     1.0000   1.0000   1.0000   1.0000   1.0000   1.0000   1.0000   1.0000
     0.0000   0.0000   0.0000   0.0000   0.0000   0.0000   0.0000   0.0000
     0.0000   0.0000   0.0000   0.0000   0.0000   0.0000   0.0000   0.0000
     0.0000   0.0000   0.0000   0.0000   0.0000   0.0000   0.0000   0.0000
     0.0000   0.0000   0.0000   0.0000   0.0000   0.0000   0.0000   0.0000
     0.0000   0.0000   0.0000   0.0000   0.0000   0.0000   0.0000   0.0000
     0.0000   0.0000   0.0000   0.0000   0.0000   0.0000   0.0000   0.0000
     0.0000   0.0000   0.0000   0.0000   0.0000   0.0000   0.0000   0.0000
     0.0000   0.0000   0.0000   0.0000   0.0000   0.0000   0.0000   0.0000
     0.0000   0.0000   0.0000   0.0000   0.0000   0.0000   0.0000   0.0000
     0.0000   0.0000   0.0000   0.0000   0.0000   0.0000   0.0000   0.0000
     0.0000   0.0000   0.0000   0.0000   0.0000   0.0000

          k =-0.5000-0.2887 0.0000 (170366 PWs)   bands (ev):

   -40.7753 -40.7753 -40.7753 -40.7753 -40.7753 -40.7753 -40.7752 -40.7752
   -40.7752 -40.7752 -40.7752 -40.7752 -40.7752 -40.7752 -40.7752 -40.7752
   -40.7752 -40.7752 -40.7751 -40.7751 -40.7751 -40.7751 -40.7751 -40.7751
   -40.7736 -40.7736 -40.7736 -40.7735 -40.7735 -40.7735 -40.7735 -40.7735
   -40.7735 -40.7735 -40.7735 -40.7734 -40.7734 -40.7734 -40.7734 -40.7734
   -40.7734 -40.7734 -40.7734 -40.7734 -40.7733 -40.7733 -40.7733 -40.7733
   -40.7730 -40.7730 -40.7730 -40.7730 -40.7729 -40.7729 -40.7729 -40.7729
   -40.7729 -40.7729 -40.7729 -40.7729 -40.7718 -40.7718 -40.7718 -40.7718
   -40.7718 -40.7718 -40.7718 -40.7718 -40.7718 -40.7718 -40.7717 -40.7717
   -40.7717 -40.7717 -40.7717 -40.7717 -40.7717 -40.7717 -40.7717 -40.7717
   -40.7717 -40.7717 -40.7716 -40.7716 -40.7711 -40.7710 -40.7710 -40.7710
   -40.7710 -40.7710 -40.7710 -40.7709 -40.7709 -40.7709 -40.7709 -40.7709
   -40.7709 -40.7709 -40.7708 -40.7708 -40.7708 -40.7708 -40.7708 -40.7708
   -40.7708 -40.7708 -40.7707 -40.7707 -40.7703 -40.7703 -40.7703 -40.7702
   -40.7702 -40.7702 -40.7702 -40.7702 -40.7702 -40.7702 -40.7702 -40.7701
   -40.7700 -40.7700 -40.7700 -40.7700 -40.7700 -40.7700 -40.7700 -40.7700
   -40.7700 -40.7700 -40.7699 -40.7699 -40.7696 -40.7695 -40.7695 -40.7695
   -40.7695 -40.7695 -40.7695 -40.7695 -40.7695 -40.7695 -40.7695 -40.7695
   -40.7692 -40.7691 -40.7691 -40.7691 -40.7691 -40.7691 -40.7691 -40.7691
   -40.7691 -40.7691 -40.7690 -40.7690 -40.7690 -40.7690 -40.7690 -40.7690
   -40.7690 -40.7690 -40.7690 -40.7690 -40.7690 -40.7690 -40.7689 -40.7689
   -40.7686 -40.7686 -40.7685 -40.7685 -40.7685 -40.7685 -40.7685 -40.7685
   -40.7685 -40.7685 -40.7684 -40.7684 -12.9372 -12.9371 -12.9344 -12.9344
   -12.9319 -12.9319 -12.9303 -12.9303 -12.9298 -12.9298 -12.9256 -12.9255
   -12.9254 -12.9254 -12.9217 -12.9217 -12.9187 -12.9186 -12.9172 -12.9172
   -12.9164 -12.9164 -12.9154 -12.9154 -12.9143 -12.9143 -12.9141 -12.9141
   -12.9133 -12.9133 -12.9133 -12.9133 -12.9132 -12.9132 -12.9131 -12.9131
   -12.9112 -12.9112 -12.9110 -12.9110 -12.9100 -12.9099 -12.9090 -12.9089
   -12.9089 -12.9089 -12.9075 -12.9075 -12.9075 -12.9075 -12.9074 -12.9074
   -12.9073 -12.9073 -12.9071 -12.9071 -12.9067 -12.9067 -12.9066 -12.9066
   -12.9050 -12.9050 -12.9048 -12.9048 -12.9041 -12.9040 -12.9035 -12.9035
   -12.9034 -12.9033 -12.9031 -12.9031 -12.9022 -12.9021 -12.9016 -12.9016
   -12.9005 -12.9005 -12.9005 -12.9005 -12.8997 -12.8997 -12.8984 -12.8984
   -12.8978 -12.8978 -12.8977 -12.8977 -12.8966 -12.8966  -8.0125  -8.0117
    -7.9307  -7.9298  -7.8489  -7.8488  -7.7813  -7.7812  -7.6430  -7.6420
    -7.6370  -7.6362  -7.6359  -7.6351  -7.6216  -7.5999  -7.5992  -7.5987
    -7.5980  -7.5856  -7.5686  -7.5685  -7.5410  -7.5400  -7.5220  -7.5100
    -7.5100  -7.5088  -7.5086  -7.4909  -7.4907  -7.4878  -7.4734  -7.4731
    -7.4717  -7.4716  -3.6376  -3.6264  -3.6253  -3.6243  -3.6237  -3.6233
    -3.6227  -3.6226  -3.6220  -3.6210  -3.4258  -3.4257  -3.4131  -3.4130
    -3.2676  -3.2659  -3.2211  -3.2193   0.8596   1.0504   1.0506   1.0512
     1.0513   1.1230   1.2670   1.2670   1.2678   1.2678   1.5514   1.5515
     1.5519   1.5520   1.5523   1.5524   1.5747   1.5748   1.6186   1.6188
     1.6189   1.6193   1.6445   1.6446   1.7431   1.8393   1.8393   1.8718
     1.8720   1.8998   1.8999   1.9014   1.9017   1.9063   1.9178   1.9180
     1.9181   1.9182   2.0294   2.0794   2.0797   2.1646   2.2321   2.2321
     2.3564   2.3572   2.3602   2.3623   2.4276   2.4296   2.4654   2.4654
     2.4738   2.4894   2.4895   2.4908   2.4914   2.4921   2.4939   2.5923
     2.5924   2.5926   2.5926   2.6067   2.7047   2.7048   2.7172   2.7174
     2.7189   2.7192   2.7549   2.7579   2.7579   2.8119   2.8126   2.8127
     2.8134   2.8885   2.8888   2.8894   2.8897   2.9307   2.9307   2.9596
     3.0055   3.0057   3.0140   3.0211   3.0212   3.0546   3.0554   3.2081
     3.2108   3.2114   3.2117   3.2128   3.2770   3.2777   3.2796   3.2800
     3.3520   3.3525   3.3578   3.3582   3.3868   3.3875   3.3938   3.3949
     6.4614   6.4639   6.4657   6.4678   6.5924   6.7911   6.7913   6.8551
     6.8599   6.8701   6.9308   6.9311   7.0109   7.0133   7.0134   7.0135
     7.0145   7.0166   7.0494   7.0535   7.0639   7.0678   7.1231   7.1238
     7.1272   7.1280   7.1467   7.1511   7.3107   7.3118   7.3158   7.3167
     7.3227   7.3368   7.3369   7.3869   7.3874   7.4199   7.4210   7.4235
     7.4245   7.4321   7.5021   7.5025   7.5524   7.5551   7.5563   7.5590
     7.5758   7.8767   7.8778   7.8813   7.8823   8.0621   9.1889   9.6594
     9.6597   9.6605   9.6609   9.7636  10.1024  10.1025  10.1616  10.1618
    10.2130  10.2131  10.2138  10.2140  10.2920  10.2922  10.3220  10.3221
    10.3237  10.3248  10.7412  10.7453  10.7669  10.7673  10.9030  10.9037
    10.9056  10.9063  10.9941  10.9956  10.9972  10.9984

     occupation numbers 
     1.0000   1.0000   1.0000   1.0000   1.0000   1.0000   1.0000   1.0000
     1.0000   1.0000   1.0000   1.0000   1.0000   1.0000   1.0000   1.0000
     1.0000   1.0000   1.0000   1.0000   1.0000   1.0000   1.0000   1.0000
     1.0000   1.0000   1.0000   1.0000   1.0000   1.0000   1.0000   1.0000
     1.0000   1.0000   1.0000   1.0000   1.0000   1.0000   1.0000   1.0000
     1.0000   1.0000   1.0000   1.0000   1.0000   1.0000   1.0000   1.0000
     1.0000   1.0000   1.0000   1.0000   1.0000   1.0000   1.0000   1.0000
     1.0000   1.0000   1.0000   1.0000   1.0000   1.0000   1.0000   1.0000
     1.0000   1.0000   1.0000   1.0000   1.0000   1.0000   1.0000   1.0000
     1.0000   1.0000   1.0000   1.0000   1.0000   1.0000   1.0000   1.0000
     1.0000   1.0000   1.0000   1.0000   1.0000   1.0000   1.0000   1.0000
     1.0000   1.0000   1.0000   1.0000   1.0000   1.0000   1.0000   1.0000
     1.0000   1.0000   1.0000   1.0000   1.0000   1.0000   1.0000   1.0000
     1.0000   1.0000   1.0000   1.0000   1.0000   1.0000   1.0000   1.0000
     1.0000   1.0000   1.0000   1.0000   1.0000   1.0000   1.0000   1.0000
     1.0000   1.0000   1.0000   1.0000   1.0000   1.0000   1.0000   1.0000
     1.0000   1.0000   1.0000   1.0000   1.0000   1.0000   1.0000   1.0000
     1.0000   1.0000   1.0000   1.0000   1.0000   1.0000   1.0000   1.0000
     1.0000   1.0000   1.0000   1.0000   1.0000   1.0000   1.0000   1.0000
     1.0000   1.0000   1.0000   1.0000   1.0000   1.0000   1.0000   1.0000
     1.0000   1.0000   1.0000   1.0000   1.0000   1.0000   1.0000   1.0000
     1.0000   1.0000   1.0000   1.0000   1.0000   1.0000   1.0000   1.0000
     1.0000   1.0000   1.0000   1.0000   1.0000   1.0000   1.0000   1.0000
     1.0000   1.0000   1.0000   1.0000   1.0000   1.0000   1.0000   1.0000
     1.0000   1.0000   1.0000   1.0000   1.0000   1.0000   1.0000   1.0000
     1.0000   1.0000   1.0000   1.0000   1.0000   1.0000   1.0000   1.0000
     1.0000   1.0000   1.0000   1.0000   1.0000   1.0000   1.0000   1.0000
     1.0000   1.0000   1.0000   1.0000   1.0000   1.0000   1.0000   1.0000
     1.0000   1.0000   1.0000   1.0000   1.0000   1.0000   1.0000   1.0000
     1.0000   1.0000   1.0000   1.0000   1.0000   1.0000   1.0000   1.0000
     1.0000   1.0000   1.0000   1.0000   1.0000   1.0000   1.0000   1.0000
     1.0000   1.0000   1.0000   1.0000   1.0000   1.0000   1.0000   1.0000
     1.0000   1.0000   1.0000   1.0000   1.0000   1.0000   1.0000   1.0000
     1.0000   1.0000   1.0000   1.0000   1.0000   1.0000   1.0000   1.0000
     1.0000   1.0000   1.0000   1.0000   1.0000   1.0000   1.0000   1.0000
     1.0000   1.0000   1.0000   1.0000   1.0000   1.0000   1.0000   1.0000
     1.0000   1.0000   1.0000   1.0000   1.0000   1.0000   1.0000   1.0000
     1.0000   1.0000   1.0000   1.0000   1.0000   1.0000   1.0000   1.0000
     1.0000   1.0000   1.0000   1.0000   1.0000   1.0000   1.0000   1.0000
     1.0000   1.0000   1.0000   1.0000   1.0000   1.0000   1.0000   1.0000
     1.0000   1.0000   1.0000   1.0000   1.0000   1.0000   1.0000   1.0000
     1.0000   1.0000   1.0000   1.0000   1.0000   1.0000   1.0000   1.0000
     1.0000   1.0000   1.0000   1.0000   1.0000   1.0000   1.0000   1.0000
     1.0000   1.0000   1.0000   1.0000   1.0000   1.0000   1.0000   1.0000
     1.0000   1.0000   1.0000   1.0000   1.0000   1.0000   1.0000   1.0000
     1.0000   1.0000   1.0000   1.0000   1.0000   1.0000   1.0000   1.0000
     1.0000   1.0000   1.0000   1.0000   1.0000   1.0000   1.0000   1.0000
     1.0000   1.0000   1.0000   1.0000   1.0000   1.0000   1.0000   1.0000
     1.0000   1.0000   1.0000   1.0000   1.0000   1.0000   1.0000   1.0000
     1.0000   1.0000   1.0000   1.0000   1.0000   1.0000   1.0000   1.0000
     1.0000   1.0000   1.0000   1.0000   1.0000   1.0000   1.0000   1.0000
     1.0000   1.0000   1.0000   1.0000   1.0000   1.0000   1.0000   1.0000
     1.0000   1.0000   1.0000   1.0000   1.0000   1.0000   1.0000   1.0000
     1.0000   1.0000   1.0000   1.0000   1.0000   1.0000   1.0000   1.0000
     0.0000   0.0000   0.0000   0.0000   0.0000   0.0000   0.0000   0.0000
     0.0000   0.0000   0.0000   0.0000   0.0000   0.0000   0.0000   0.0000
     0.0000   0.0000   0.0000   0.0000   0.0000   0.0000   0.0000   0.0000
     0.0000   0.0000   0.0000   0.0000   0.0000   0.0000   0.0000   0.0000
     0.0000   0.0000   0.0000   0.0000   0.0000   0.0000   0.0000   0.0000
     0.0000   0.0000   0.0000   0.0000   0.0000   0.0000   0.0000   0.0000
     0.0000   0.0000   0.0000   0.0000   0.0000   0.0000   0.0000   0.0000
     0.0000   0.0000   0.0000   0.0000   0.0000   0.0000   0.0000   0.0000
     0.0000   0.0000   0.0000   0.0000   0.0000   0.0000   0.0000   0.0000
     0.0000   0.0000   0.0000   0.0000   0.0000   0.0000   0.0000   0.0000
     0.0000   0.0000   0.0000   0.0000   0.0000   0.0000

     the Fermi energy is     4.8159 ev

!    total energy              =  -36425.39744557 Ry
     total all-electron energy =  -1265045.825403 Ry
     estimated scf accuracy    <       0.00000001 Ry
     smearing contrib. (-TS)   =      -0.00000000 Ry
     internal energy E=F+TS    =  -36425.39744557 Ry

     The total energy is F=E-TS. E is the sum of the following terms:
     one-electron contribution =   -6718.16478438 Ry
     hartree contribution      =    3753.34181084 Ry
     xc contribution           =   -2551.86441153 Ry
     ewald contribution        =   -5556.48260220 Ry
     one-center paw contrib.   =  -25352.22745829 Ry
      -> PAW hartree energy AE =      95.92469411 Ry
      -> PAW hartree energy PS =     -96.16164798 Ry
      -> PAW xc energy AE      =    -798.43158562 Ry
      -> PAW xc energy PS      =      33.31151506 Ry
      -> total E_H with PAW    =    3753.10485697 Ry
      -> total E_XC with PAW   =   -3316.98448209 Ry

     convergence has been achieved in   1 iterations


     -----------------------------------------------
     Non-local corr. energy    =      25.88803434 Ry
     -----------------------------------------------


     Forces acting on atoms (cartesian axes, Ry/au):

     atom    1 type  1   force =     0.00005881    0.00010586   -0.00000186
     atom    2 type  1   force =     0.00006082    0.00010391   -0.00000134
     atom    3 type  1   force =    -0.00000348    0.00000159   -0.00009899
     atom    4 type  1   force =    -0.00000124    0.00000049   -0.00009802
     atom    5 type  1   force =     0.00011818    0.00000079   -0.00000149
     atom    6 type  1   force =     0.00011929   -0.00000028   -0.00000153
     atom    7 type  1   force =    -0.00000337    0.00000331    0.00009386
     atom    8 type  1   force =    -0.00000076    0.00000083    0.00009434
     atom    9 type  1   force =    -0.00006104   -0.00010299   -0.00000037
     atom   10 type  1   force =    -0.00005947   -0.00010414   -0.00000120
     atom   11 type  1   force =    -0.00012289    0.00000107   -0.00000448
     atom   12 type  1   force =    -0.00012144    0.00000025   -0.00000329
     atom   13 type  1   force =    -0.00006102    0.00010870   -0.00000339
     atom   14 type  1   force =    -0.00005912    0.00010685   -0.00000226
     atom   15 type  1   force =     0.00005966   -0.00010025    0.00000011
     atom   16 type  1   force =     0.00006174   -0.00010112   -0.00000020
     atom   17 type  1   force =     0.00000153    0.00000223   -0.00000136
     atom   18 type  1   force =     0.00000293    0.00000100   -0.00000167
     atom   19 type  2   force =     0.00005407    0.00003479    0.00015577
     atom   20 type  2   force =     0.00005336    0.00003597    0.00015893
     atom   21 type  2   force =    -0.00000569   -0.00010097    0.00005656
     atom   22 type  2   force =    -0.00000278   -0.00010015    0.00005567
     atom   23 type  2   force =    -0.00009011    0.00004158    0.00005377
     atom   24 type  2   force =    -0.00008867    0.00004797    0.00005273
     atom   25 type  2   force =     0.00000275    0.00011198    0.00011580
     atom   26 type  2   force =     0.00000462    0.00011387    0.00011887
     atom   27 type  2   force =     0.00009840   -0.00005243    0.00012188
     atom   28 type  2   force =     0.00009503   -0.00005016    0.00012275
     atom   29 type  2   force =     0.00009033    0.00004650    0.00005664
     atom   30 type  2   force =     0.00009014    0.00005089    0.00005207
     atom   31 type  2   force =    -0.00006316    0.00003823    0.00016184
     atom   32 type  2   force =    -0.00006290    0.00003565    0.00015618
     atom   33 type  2   force =    -0.00010001   -0.00005752    0.00011799
     atom   34 type  2   force =    -0.00009470   -0.00005785    0.00011795
     atom   35 type  2   force =    -0.00000227   -0.00006725    0.00015670
     atom   36 type  2   force =    -0.00000329   -0.00006403    0.00015842
     atom   37 type  2   force =    -0.00000133    0.00006429   -0.00016068
     atom   38 type  2   force =    -0.00000678    0.00006078   -0.00015933
     atom   39 type  2   force =     0.00009752    0.00005387   -0.00011789
     atom   40 type  2   force =     0.00009398    0.00005501   -0.00012222
     atom   41 type  2   force =     0.00006203   -0.00003709   -0.00015322
     atom   42 type  2   force =     0.00006174   -0.00003710   -0.00015425
     atom   43 type  2   force =    -0.00007518   -0.00005808   -0.00004889
     atom   44 type  2   force =    -0.00007941   -0.00005508   -0.00005282
     atom   45 type  2   force =    -0.00009274    0.00005789   -0.00011675
     atom   46 type  2   force =    -0.00009791    0.00006262   -0.00011658
     atom   47 type  2   force =     0.00000768   -0.00010968   -0.00011409
     atom   48 type  2   force =     0.00000339   -0.00011111   -0.00011647
     atom   49 type  2   force =     0.00008645   -0.00005815   -0.00005356
     atom   50 type  2   force =     0.00008958   -0.00005342   -0.00005770
     atom   51 type  2   force =     0.00000733    0.00009718   -0.00004975
     atom   52 type  2   force =     0.00000486    0.00010293   -0.00005128
     atom   53 type  2   force =    -0.00006190   -0.00003739   -0.00015716
     atom   54 type  2   force =    -0.00006359   -0.00003264   -0.00015475
     The non-local contrib.  to forces
     atom    1 type  1   force =    -0.00029924   -0.00055393   -0.00000745
     atom    2 type  1   force =    -0.00031691   -0.00053751   -0.00000953
     atom    3 type  1   force =     0.00002235   -0.00003071    0.00143822
     atom    4 type  1   force =     0.00000317   -0.00001417    0.00143899
     atom    5 type  1   force =    -0.00060717   -0.00000983    0.00000629
     atom    6 type  1   force =    -0.00062436    0.00000481    0.00001361
     atom    7 type  1   force =     0.00001408   -0.00002372   -0.00143461
     atom    8 type  1   force =    -0.00000233   -0.00000857   -0.00143357
     atom    9 type  1   force =     0.00031670    0.00051146   -0.00001434
     atom   10 type  1   force =     0.00029909    0.00052805   -0.00001438
     atom   11 type  1   force =     0.00063306   -0.00001626    0.00003302
     atom   12 type  1   force =     0.00061402   -0.00000101    0.00002778
     atom   13 type  1   force =     0.00033406   -0.00056433    0.00001715
     atom   14 type  1   force =     0.00031672   -0.00054903    0.00000870
     atom   15 type  1   force =    -0.00029198    0.00050528   -0.00001839
     atom   16 type  1   force =    -0.00030963    0.00052107   -0.00001065
     atom   17 type  1   force =     0.00000737   -0.00001291    0.00000203
     atom   18 type  1   force =    -0.00001045    0.00000344    0.00000088
     atom   19 type  2   force =    -0.00014756   -0.00009034    0.24349095
     atom   20 type  2   force =    -0.00015160   -0.00008567    0.24349668
     atom   21 type  2   force =     0.00000220   -0.00032661    0.24324611
     atom   22 type  2   force =     0.00000268   -0.00032133    0.24324262
     atom   23 type  2   force =    -0.00028817    0.00016513    0.24323869
     atom   24 type  2   force =    -0.00028959    0.00018080    0.24323749
     atom   25 type  2   force =    -0.00000404    0.00013305    0.24331984
     atom   26 type  2   force =    -0.00000582    0.00014035    0.24332543
     atom   27 type  2   force =     0.00011903   -0.00006406    0.24333443
     atom   28 type  2   force =     0.00011169   -0.00005822    0.24333292
     atom   29 type  2   force =     0.00028836    0.00016046    0.24324782
     atom   30 type  2   force =     0.00028385    0.00017306    0.24323883
     atom   31 type  2   force =     0.00015484   -0.00008749    0.24350106
     atom   32 type  2   force =     0.00015112   -0.00008922    0.24349145
     atom   33 type  2   force =    -0.00013428   -0.00006462    0.24332252
     atom   34 type  2   force =    -0.00012892   -0.00006068    0.24332207
     atom   35 type  2   force =    -0.00000179    0.00018407    0.24349284
     atom   36 type  2   force =    -0.00000475    0.00019212    0.24349664
     atom   37 type  2   force =    -0.00002279   -0.00015771   -0.24350723
     atom   38 type  2   force =    -0.00001886   -0.00017576   -0.24350279
     atom   39 type  2   force =     0.00011628    0.00006250   -0.24332997
     atom   40 type  2   force =     0.00011983    0.00005743   -0.24333523
     atom   41 type  2   force =    -0.00016680    0.00010340   -0.24348979
     atom   42 type  2   force =    -0.00015651    0.00009005   -0.24349039
     atom   43 type  2   force =    -0.00028257   -0.00015388   -0.24323991
     atom   44 type  2   force =    -0.00027885   -0.00015743   -0.24324450
     atom   45 type  2   force =    -0.00012543    0.00007502   -0.24333093
     atom   46 type  2   force =    -0.00012210    0.00007392   -0.24332930
     atom   47 type  2   force =     0.00001549   -0.00012924   -0.24332209
     atom   48 type  2   force =     0.00001591   -0.00014160   -0.24332331
     atom   49 type  2   force =     0.00028787   -0.00016036   -0.24324872
     atom   50 type  2   force =     0.00030244   -0.00016080   -0.24325252
     atom   51 type  2   force =     0.00000113    0.00032959   -0.24324184
     atom   52 type  2   force =     0.00000658    0.00033035   -0.24324277
     atom   53 type  2   force =     0.00013810    0.00009883   -0.24349975
     atom   54 type  2   force =     0.00014738    0.00009497   -0.24349380
     The ionic contribution  to forces
     atom    1 type  1   force =     0.00414220    0.00781726    0.00016498
     atom    2 type  1   force =     0.00447133    0.00757345    0.00077550
     atom    3 type  1   force =    -0.00071087    0.00096813   -0.06249120
     atom    4 type  1   force =    -0.00016706    0.00041323   -0.06194193
     atom    5 type  1   force =     0.00889733   -0.00000181   -0.00126180
     atom    6 type  1   force =     0.00912547   -0.00012916   -0.00112256
     atom    7 type  1   force =     0.00002741    0.00007409    0.06177267
     atom    8 type  1   force =     0.00020495   -0.00013926    0.06226125
     atom    9 type  1   force =    -0.00460830   -0.00691223    0.00023942
     atom   10 type  1   force =    -0.00440419   -0.00741739    0.00081005
     atom   11 type  1   force =    -0.00930666    0.00045123   -0.00167701
     atom   12 type  1   force =    -0.00882444    0.00014695   -0.00090535
     atom   13 type  1   force =    -0.00511955    0.00810491   -0.00021156
     atom   14 type  1   force =    -0.00461931    0.00778409    0.00077234
     atom   15 type  1   force =     0.00436378   -0.00699199    0.00037118
     atom   16 type  1   force =     0.00469844   -0.00737086    0.00055354
     atom   17 type  1   force =    -0.00022561    0.00031357   -0.00043041
     atom   18 type  1   force =     0.00012774    0.00017318    0.00019201
     atom   19 type  2   force =    -0.06122211   -0.03502414  -14.41585194
     atom   20 type  2   force =    -0.06130242   -0.03533015  -14.41657732
     atom   21 type  2   force =    -0.00077361   -0.01103077  -14.41355911
     atom   22 type  2   force =    -0.00102789   -0.01103512  -14.41461481
     atom   23 type  2   force =    -0.00785201    0.00579996  -14.41372637
     atom   24 type  2   force =    -0.00779814    0.00581981  -14.41399880
     atom   25 type  2   force =     0.00068885   -0.05688714  -14.41684953
     atom   26 type  2   force =     0.00101443   -0.05707457  -14.41718027
     atom   27 type  2   force =    -0.04905452    0.02686963  -14.41675058
     atom   28 type  2   force =    -0.04881851    0.02694042  -14.41766135
     atom   29 type  2   force =     0.00791771    0.00663851  -14.41368318
     atom   30 type  2   force =     0.00796008    0.00702006  -14.41436775
     atom   31 type  2   force =     0.06008578   -0.03467664  -14.41613727
     atom   32 type  2   force =     0.05992945   -0.03480556  -14.41694634
     atom   33 type  2   force =     0.04975744    0.02630058  -14.41705408
     atom   34 type  2   force =     0.04985278    0.02617621  -14.41766002
     atom   35 type  2   force =    -0.00010423    0.07168791  -14.41621924
     atom   36 type  2   force =    -0.00013052    0.07177197  -14.41670620
     atom   37 type  2   force =     0.00017013   -0.07071971   14.41600162
     atom   38 type  2   force =    -0.00011112   -0.07014164   14.41647716
     atom   39 type  2   force =    -0.04822080   -0.02914003   14.41686465
     atom   40 type  2   force =    -0.04815353   -0.02940184   14.41744346
     atom   41 type  2   force =    -0.06063004    0.03526479   14.41632823
     atom   42 type  2   force =    -0.06118926    0.03574874   14.41701581
     atom   43 type  2   force =    -0.00880666   -0.00548338   14.41396788
     atom   44 type  2   force =    -0.00942902   -0.00471775   14.41438478
     atom   45 type  2   force =     0.04865280   -0.02899066   14.41700891
     atom   46 type  2   force =     0.04835363   -0.02905215   14.41742916
     atom   47 type  2   force =     0.00020954    0.05615509   14.41712812
     atom   48 type  2   force =     0.00024312    0.05619399   14.41783893
     atom   49 type  2   force =     0.00959707   -0.00538517   14.41372984
     atom   50 type  2   force =     0.00968038   -0.00497704   14.41438014
     atom   51 type  2   force =     0.00045300    0.00951769   14.41388906
     atom   52 type  2   force =    -0.00021484    0.00959236   14.41459627
     atom   53 type  2   force =     0.06126458    0.03562701   14.41617916
     atom   54 type  2   force =     0.06093581    0.03589131   14.41700984
     The local contribution  to forces
     atom    1 type  1   force =    -0.00377838   -0.00715551   -0.00016305
     atom    2 type  1   force =    -0.00408919   -0.00693006   -0.00076546
     atom    3 type  1   force =     0.00068545   -0.00093661    0.06097146
     atom    4 type  1   force =     0.00016461   -0.00040153    0.06042159
     atom    5 type  1   force =    -0.00816884    0.00001325    0.00125329
     atom    6 type  1   force =    -0.00837980    0.00012931    0.00110774
     atom    7 type  1   force =    -0.00005295   -0.00004861   -0.06026744
     atom    8 type  1   force =    -0.00021208    0.00014484   -0.06075077
     atom    9 type  1   force =     0.00422465    0.00628762   -0.00022994
     atom   10 type  1   force =     0.00404006    0.00677444   -0.00079803
     atom   11 type  1   force =     0.00854032   -0.00043746    0.00163904
     atom   12 type  1   force =     0.00807790   -0.00014728    0.00087186
     atom   13 type  1   force =     0.00472714   -0.00742582    0.00019004
     atom   14 type  1   force =     0.00424870   -0.00712197   -0.00078464
     atom   15 type  1   force =    -0.00400578    0.00638584   -0.00035633
     atom   16 type  1   force =    -0.00432256    0.00674769   -0.00054343
     atom   17 type  1   force =     0.00022779   -0.00029603    0.00042704
     atom   18 type  1   force =    -0.00010689   -0.00017253   -0.00019710
     atom   19 type  2   force =     0.06127922    0.03506600   14.17764077
     atom   20 type  2   force =     0.06136507    0.03536684   14.17835649
     atom   21 type  2   force =     0.00077719    0.01127285   14.17548506
     atom   22 type  2   force =     0.00102683    0.01127614   14.17654259
     atom   23 type  2   force =     0.00807606   -0.00592075   14.17565582
     atom   24 type  2   force =     0.00801640   -0.00595883   14.17593383
     atom   25 type  2   force =    -0.00068724    0.05670756   14.17876423
     atom   26 type  2   force =    -0.00101575    0.05688918   14.17908656
     atom   27 type  2   force =     0.04888771   -0.02678740   14.17865131
     atom   28 type  2   force =     0.04866032   -0.02686060   14.17956040
     atom   29 type  2   force =    -0.00813866   -0.00675868   14.17560178
     atom   30 type  2   force =    -0.00817864   -0.00715537   14.17630033
     atom   31 type  2   force =    -0.06014919    0.03471192   14.17790857
     atom   32 type  2   force =    -0.05999259    0.03484650   14.17872947
     atom   33 type  2   force =    -0.04957879   -0.02621498   14.17896508
     atom   34 type  2   force =    -0.04968534   -0.02608943   14.17957102
     atom   35 type  2   force =     0.00010463   -0.07176269   14.17800409
     atom   36 type  2   force =     0.00013301   -0.07185743   14.17848657
     atom   37 type  2   force =    -0.00013850    0.07076656  -14.17776780
     atom   38 type  2   force =     0.00013919    0.07021716  -14.17825116
     atom   39 type  2   force =     0.04807225    0.02905202  -14.17876672
     atom   40 type  2   force =     0.04800073    0.02931739  -14.17933584
     atom   41 type  2   force =     0.06071426   -0.03531725  -14.17811408
     atom   42 type  2   force =     0.06126040   -0.03577803  -14.17879700
     atom   43 type  2   force =     0.00901760    0.00558927  -14.17589786
     atom   44 type  2   force =     0.00963152    0.00483249  -14.17630758
     atom   45 type  2   force =    -0.04848721    0.02888725  -14.17890937
     atom   46 type  2   force =    -0.04819173    0.02894462  -14.17933061
     atom   47 type  2   force =    -0.00022694   -0.05597935  -14.17903880
     atom   48 type  2   force =    -0.00026006   -0.05600141  -14.17974850
     atom   49 type  2   force =    -0.00981339    0.00549837  -14.17564932
     atom   50 type  2   force =    -0.00991719    0.00509488  -14.17629470
     atom   51 type  2   force =    -0.00045405   -0.00977025  -14.17581611
     atom   52 type  2   force =     0.00020352   -0.00984721  -14.17651542
     atom   53 type  2   force =    -0.06130835   -0.03567170  -14.17795451
     atom   54 type  2   force =    -0.06099050   -0.03593098  -14.17879244
     The core correction contribution to forces
     atom    1 type  1   force =    -0.00000263   -0.00000441    0.00000031
     atom    2 type  1   force =    -0.00000251   -0.00000445    0.00000046
     atom    3 type  1   force =    -0.00000010    0.00000032   -0.00001865
     atom    4 type  1   force =     0.00000018    0.00000003   -0.00001868
     atom    5 type  1   force =    -0.00000514    0.00000014    0.00000006
     atom    6 type  1   force =    -0.00000512    0.00000019   -0.00000008
     atom    7 type  1   force =    -0.00000008   -0.00000000    0.00001907
     atom    8 type  1   force =    -0.00000007   -0.00000005    0.00001913
     atom    9 type  1   force =     0.00000241    0.00000469    0.00000037
     atom   10 type  1   force =     0.00000250    0.00000447    0.00000041
     atom   11 type  1   force =     0.00000503    0.00000011   -0.00000015
     atom   12 type  1   force =     0.00000517    0.00000006   -0.00000014
     atom   13 type  1   force =     0.00000241   -0.00000452    0.00000021
     atom   14 type  1   force =     0.00000267   -0.00000454    0.00000026
     atom   15 type  1   force =    -0.00000263    0.00000468    0.00000037
     atom   16 type  1   force =    -0.00000261    0.00000456    0.00000035
     atom   17 type  1   force =    -0.00000013    0.00000020    0.00000012
     atom   18 type  1   force =    -0.00000002    0.00000014    0.00000012
     atom   19 type  2   force =     0.00014890    0.00008703   -0.00523370
[...]
     atom   45 type  2   force =    -0.00013536    0.00008054    0.00522556
     atom   46 type  2   force =    -0.00013536    0.00008047    0.00522519
     atom   47 type  2   force =    -0.00000093   -0.00015456    0.00522439
     atom   48 type  2   force =    -0.00000075   -0.00015429    0.00522423
     atom   49 type  2   force =     0.00001393   -0.00001199    0.00522543
     atom   50 type  2   force =     0.00001346   -0.00001238    0.00522554
     atom   51 type  2   force =     0.00000032    0.00001992    0.00522494
     atom   52 type  2   force =     0.00000085    0.00001977    0.00522460
     atom   53 type  2   force =    -0.00015084   -0.00008627    0.00523200
     atom   54 type  2   force =    -0.00015097   -0.00008624    0.00523146
     The Hubbard contrib.    to forces
     atom    1 type  1   force =     0.00000000    0.00000000    0.00000000
     atom    2 type  1   force =     0.00000000    0.00000000    0.00000000
     atom    3 type  1   force =     0.00000000    0.00000000    0.00000000
     atom    4 type  1   force =     0.00000000    0.00000000    0.00000000
     atom    5 type  1   force =     0.00000000    0.00000000    0.00000000
     atom    6 type  1   force =     0.00000000    0.00000000    0.00000000
     atom    7 type  1   force =     0.00000000    0.00000000    0.00000000
     atom    8 type  1   force =     0.00000000    0.00000000    0.00000000
     atom    9 type  1   force =     0.00000000    0.00000000    0.00000000
     atom   10 type  1   force =     0.00000000    0.00000000    0.00000000
     atom   11 type  1   force =     0.00000000    0.00000000    0.00000000
     atom   12 type  1   force =     0.00000000    0.00000000    0.00000000
     atom   13 type  1   force =     0.00000000    0.00000000    0.00000000
     atom   14 type  1   force =     0.00000000    0.00000000    0.00000000
     atom   15 type  1   force =     0.00000000    0.00000000    0.00000000
     atom   16 type  1   force =     0.00000000    0.00000000    0.00000000
     atom   17 type  1   force =     0.00000000    0.00000000    0.00000000
     atom   18 type  1   force =     0.00000000    0.00000000    0.00000000
     atom   19 type  2   force =     0.00000000    0.00000000    0.00000000
     atom   20 type  2   force =     0.00000000    0.00000000    0.00000000
     atom   21 type  2   force =     0.00000000    0.00000000    0.00000000
     atom   22 type  2   force =     0.00000000    0.00000000    0.00000000
     atom   23 type  2   force =     0.00000000    0.00000000    0.00000000
     atom   24 type  2   force =     0.00000000    0.00000000    0.00000000
     atom   25 type  2   force =     0.00000000    0.00000000    0.00000000
     atom   26 type  2   force =     0.00000000    0.00000000    0.00000000
     atom   27 type  2   force =     0.00000000    0.00000000    0.00000000
     atom   28 type  2   force =     0.00000000    0.00000000    0.00000000
     atom   29 type  2   force =     0.00000000    0.00000000    0.00000000
     atom   30 type  2   force =     0.00000000    0.00000000    0.00000000
     atom   31 type  2   force =     0.00000000    0.00000000    0.00000000
     atom   32 type  2   force =     0.00000000    0.00000000    0.00000000
     atom   33 type  2   force =     0.00000000    0.00000000    0.00000000
     atom   34 type  2   force =     0.00000000    0.00000000    0.00000000
     atom   35 type  2   force =     0.00000000    0.00000000    0.00000000
     atom   36 type  2   force =     0.00000000    0.00000000    0.00000000
     atom   37 type  2   force =     0.00000000    0.00000000    0.00000000
     atom   38 type  2   force =     0.00000000    0.00000000    0.00000000
     atom   39 type  2   force =     0.00000000    0.00000000    0.00000000
     atom   40 type  2   force =     0.00000000    0.00000000    0.00000000
     atom   41 type  2   force =     0.00000000    0.00000000    0.00000000
     atom   42 type  2   force =     0.00000000    0.00000000    0.00000000
     atom   43 type  2   force =     0.00000000    0.00000000    0.00000000
     atom   44 type  2   force =     0.00000000    0.00000000    0.00000000
     atom   45 type  2   force =     0.00000000    0.00000000    0.00000000
     atom   46 type  2   force =     0.00000000    0.00000000    0.00000000
     atom   47 type  2   force =     0.00000000    0.00000000    0.00000000
     atom   48 type  2   force =     0.00000000    0.00000000    0.00000000
     atom   49 type  2   force =     0.00000000    0.00000000    0.00000000
     atom   50 type  2   force =     0.00000000    0.00000000    0.00000000
     atom   51 type  2   force =     0.00000000    0.00000000    0.00000000
     atom   52 type  2   force =     0.00000000    0.00000000    0.00000000
     atom   53 type  2   force =     0.00000000    0.00000000    0.00000000
     atom   54 type  2   force =     0.00000000    0.00000000    0.00000000
     The SCF correction term to forces
     atom    1 type  1   force =    -0.00000304    0.00000217    0.00000230
     atom    2 type  1   force =    -0.00000181    0.00000219   -0.00000335
     atom    3 type  1   force =    -0.00000023    0.00000019    0.00000015
     atom    4 type  1   force =    -0.00000205    0.00000265    0.00000096
     atom    5 type  1   force =     0.00000208   -0.00000125   -0.00000038
     atom    6 type  1   force =     0.00000318   -0.00000571   -0.00000129
     atom    7 type  1   force =     0.00000825    0.00000127    0.00000312
     atom    8 type  1   force =     0.00000886    0.00000360   -0.00000274
     atom    9 type  1   force =     0.00000361    0.00000519    0.00000308
     atom   10 type  1   force =     0.00000316    0.00000602   -0.00000029
     atom   11 type  1   force =     0.00000546    0.00000317   -0.00000042
     atom   12 type  1   force =     0.00000600    0.00000126    0.00000152
     atom   13 type  1   force =    -0.00000499   -0.00000183   -0.00000026
     atom   14 type  1   force =    -0.00000780   -0.00000198    0.00000003
     atom   15 type  1   force =    -0.00000364   -0.00000433    0.00000223
     atom   16 type  1   force =    -0.00000182   -0.00000387   -0.00000105
     atom   17 type  1   force =    -0.00000779   -0.00000288   -0.00000119
     atom   18 type  1   force =    -0.00000736   -0.00000351    0.00000139
     atom   19 type  2   force =    -0.00000430   -0.00000405    0.00010864
     atom   20 type  2   force =    -0.00000678   -0.00000248    0.00011566
     atom   21 type  2   force =    -0.00001245    0.00000131    0.00010987
     atom   22 type  2   force =    -0.00000619   -0.00000200    0.00011012
     atom   23 type  2   force =    -0.00000711   -0.00000947    0.00011135
     atom   24 type  2   force =     0.00000168    0.00000008    0.00010578
     atom   25 type  2   force =     0.00000588    0.00000000    0.00010730
     atom   26 type  2   force =     0.00001272    0.00000039    0.00011320
     atom   27 type  2   force =     0.00001106    0.00000485    0.00011306
     atom   28 type  2   force =     0.00000644    0.00000348    0.00011687
     atom   29 type  2   force =     0.00000392    0.00000044    0.00011604
     atom   30 type  2   force =     0.00000530    0.00000871    0.00010601
     atom   31 type  2   force =    -0.00000630    0.00000393    0.00012163
     atom   32 type  2   force =    -0.00000313   -0.00000242    0.00011313
     atom   33 type  2   force =    -0.00000835   -0.00000338    0.00010977
     atom   34 type  2   force =     0.00000326   -0.00000910    0.00010997
     atom   35 type  2   force =    -0.00000064   -0.00000116    0.00011138
     atom   36 type  2   force =    -0.00000075    0.00000522    0.00011395
     atom   37 type  2   force =    -0.00001027    0.00000385   -0.00012091
     atom   38 type  2   force =    -0.00001602   -0.00001048   -0.00011599
     atom   39 type  2   force =    -0.00000461   -0.00000184   -0.00011235
     atom   40 type  2   force =    -0.00000750    0.00000087   -0.00012122
     atom   41 type  2   force =    -0.00000683   -0.00000141   -0.00010958
     atom   42 type  2   force =    -0.00000436   -0.00001142   -0.00011450
     atom   43 type  2   force =     0.00001092    0.00000247   -0.00010464
     atom   44 type  2   force =     0.00001104    0.00000071   -0.00011109
     atom   45 type  2   force =     0.00000255    0.00000547   -0.00011195
     atom   46 type  2   force =    -0.00000227    0.00001548   -0.00011205
     atom   47 type  2   force =     0.00001061   -0.00000191   -0.00010675
     atom   48 type  2   force =     0.00000526   -0.00000808   -0.00010887
     atom   49 type  2   force =     0.00000106    0.00000071   -0.00011184
     atom   50 type  2   force =     0.00001058    0.00000163   -0.00011719
     atom   51 type  2   force =     0.00000703   -0.00000005   -0.00010684
     atom   52 type  2   force =     0.00000884    0.00000739   -0.00011500
     atom   53 type  2   force =    -0.00000531   -0.00000554   -0.00011510
     atom   54 type  2   force =    -0.00000523   -0.00000198   -0.00011085

     Total force =     0.001019     Total SCF correction =     0.000677
     SCF correction compared to forces is large: reduce conv_thr to get better values


     Computing stress (Cartesian axis) and pressure



     -----------------------------------------------
     Non-local corr. energy    =      25.88803434 Ry
     -----------------------------------------------

          total   stress  (Ry/bohr**3)                   (kbar)     P=        1.47
   0.00000879  -0.00000001   0.00000001            1.29       -0.00        0.00
  -0.00000001   0.00000878  -0.00000001           -0.00        1.29       -0.00
   0.00000001  -0.00000001   0.00001242            0.00       -0.00        1.83

     kinetic stress (kbar)  14990.67      0.00      0.00
                                0.00  14990.67     -0.00
                                0.00     -0.00  15003.40

     local   stress (kbar)  -7569.78      0.14     -0.12
                                0.14  -7569.54      0.11
                               -0.12      0.11   1620.40

     nonloc. stress (kbar)  -1072.78     -0.00      0.00
                               -0.00  -1072.78     -0.00
                                0.00     -0.00  -1077.38

     hartree stress (kbar)  12064.11     -0.05      0.05
                               -0.05  12064.02     -0.04
                                0.05     -0.04   7923.38

     exc-cor stress (kbar)   6946.51     -0.00      0.00
                               -0.00   6946.50     -0.00
                                0.00     -0.00   6945.39

     corecor stress (kbar) -11310.08      0.00     -0.00
                                0.00 -11310.08      0.00
                               -0.00      0.00 -11310.05

     ewald   stress (kbar) -14130.63     -0.09      0.08
                               -0.09 -14130.78     -0.07
                                0.08     -0.07 -19187.95

     hubbard stress (kbar)      0.00      0.00      0.00
                                0.00      0.00      0.00
                                0.00      0.00      0.00

     DFT-D   stress (kbar)      0.00      0.00      0.00
                                0.00      0.00      0.00
                                0.00      0.00      0.00

     XDM     stress (kbar)      0.00      0.00      0.00
                                0.00      0.00      0.00
                                0.00      0.00      0.00

     dft-nl  stress (kbar)     83.28      0.00     -0.00
                                0.00     83.28      0.00
                               -0.00      0.00     84.64

     TS-vdW  stress (kbar)      0.00      0.00      0.00
                                0.00      0.00      0.00
                                0.00      0.00      0.00

     MDB     stress (kbar)      0.00      0.00      0.00
                                0.00      0.00      0.00
                                0.00      0.00      0.00

     3D-RISM stress (kbar)      0.00      0.00      0.00
                                0.00      0.00      0.00
                                0.00      0.00      0.00


     BFGS Geometry Optimization
     Energy error            =      0.0E+00 Ry
     Gradient error          =      1.6E-04 Ry/Bohr

     bfgs converged in   1 scf cycles and   0 bfgs steps
     (criteria: energy <  1.0E-04 Ry, force <  1.0E-03 Ry/Bohr)

     End of BFGS Geometry Optimization

     Final energy             =  -36425.3974455676 Ry
Begin final coordinates

ATOMIC_POSITIONS (angstrom)
Pb            2.3559035957        4.0799789281       14.7553932465
Pb            2.3558405989        4.0800321790        7.3776626662
Pb            0.0001194310        8.1598125308       14.7551076929
Pb            0.0000565250        8.1598677047        7.3773801031
Pb           -2.3552668165       12.2398893687       14.7552944646
Pb           -2.3553274711       12.2399417037        7.3775598497
Pb            7.0670263224        4.0797375836       14.7556518503
Pb            7.0669668772        4.0797889109        7.3779207894
Pb            4.7112556928        8.1595640660       14.7553693630
Pb            4.7111927532        8.1596192731        7.3776414893
Pb            2.3554812042       12.2398632709       14.7553742241
Pb            2.3554172213       12.2399201083        7.3776443444
Pb           11.7781673222        4.0799501803       14.7554657100
Pb           11.7781057011        4.0800034233        7.3777408563
Pb            9.4227720830        8.1595581753       14.7553632457
Pb            9.4227140125        8.1596139603        7.3776342238
Pb            7.0670098834       12.2398522070       14.7553690856
Pb            7.0669483265       12.2399086453        7.3776417023
I             2.3579617584        1.3610913132        5.4942539660
I             2.3580155021        1.3610661994       12.8719903843
I             0.0000772909        5.4389514422        5.4941228182
I             0.0001406106        5.4389100742       12.8718605173
I            -2.3563864640        9.5202703818        5.4940560181
I            -2.3563446292        9.5202316217       12.8717819065
I             7.0669657734        1.3631151822        5.4940619874
I             7.0669944182        1.3630814728       12.8717911241
I             4.7142285647        5.4381927740        5.4940719016
I             4.7142666457        5.4381499181       12.8717977743
I             2.3564981768        9.5202513090        5.4940740344
I             2.3565462907        9.5201875781       12.8718022731
I            11.7760003733        1.3610718612        5.4943207736
I            11.7760544877        1.3610300910       12.8720589106
I             9.4197175562        5.4381958755        5.4941179594
I             9.4197532824        5.4381636839       12.8718462352
I             7.0669671874        9.5171827193        5.4942640729
I             7.0670144383        9.5171362871       12.8719799275
I             0.0000741339        2.7224010942        1.8833184218
I             0.0000834628        2.7223775782        9.2610237335
I            -2.3527045286        6.8015704899        1.8835047050
I            -2.3527097119        6.8015848164        9.2612108475
I            -4.7089080050       10.8786224175        1.8832429163
I            -4.7088830971       10.8786073990        9.2609378701
I             4.7105867695        2.7192944088        1.8834553367
I             4.7106104632        2.7192579658        9.2611515238
I             2.3527962016        6.8015568209        1.8835026345
I             2.3528052438        6.8015612975        9.2611968843
I             0.0000290878       10.8766295406        1.8834443026
I             0.0000226315       10.8766329258        9.2611438663
I             9.4233248796        2.7192901691        1.8835029361
I             9.4233153605        2.7192710936        9.2612125993
I             7.0669503743        6.8007380222        1.8834905269
I             7.0669819358        6.8007352851        9.2611712435
I             4.7090048444       10.8785965018        1.8832962852
I             4.7090134192       10.8785917029        9.2609826579
End final coordinates



     Writing all to output data dir ./PbI2.save/
 
     init_run     :      9.65s CPU     10.19s WALL (       1 calls)
     electrons    :    351.65s CPU    357.59s WALL (       1 calls)
     forces       :      5.37s CPU      5.48s WALL (       1 calls)
     stress       :     75.58s CPU     76.17s WALL (       1 calls)

     Called by init_run:
     wfcinit      :      6.88s CPU      7.16s WALL (       1 calls)
     wfcinit:atom :      0.06s CPU      0.08s WALL (       2 calls)
     wfcinit:wfcr :      6.51s CPU      6.64s WALL (       2 calls)
     potinit      :      1.02s CPU      1.17s WALL (       1 calls)
     hinit0       :      0.61s CPU      0.66s WALL (       1 calls)

     Called by electrons:
     c_bands      :    345.87s CPU    351.33s WALL (       2 calls)
     sum_band     :      4.74s CPU      4.95s WALL (       2 calls)
     v_of_rho     :      1.36s CPU      1.47s WALL (       2 calls)
     v_h          :      0.01s CPU      0.01s WALL (       2 calls)
     v_xc         :      2.43s CPU      2.58s WALL (       4 calls)
     newd         :      0.37s CPU      0.38s WALL (       2 calls)
     PAW_pot      :      0.34s CPU      0.34s WALL (       2 calls)
     mix_rho      :      0.00s CPU      0.00s WALL (       2 calls)
     vdW_kernel   :      0.25s CPU      0.26s WALL (       1 calls)

     Called by c_bands:
     init_us_2    :      0.47s CPU      0.52s WALL (      14 calls)
     init_us_2:cp :      0.47s CPU      0.52s WALL (      14 calls)
     cegterg      :    332.04s CPU    336.26s WALL (       8 calls)

     Called by sum_band:
     sum_band:wei :      0.00s CPU      0.00s WALL (       2 calls)
     sum_band:loo :      4.35s CPU      4.40s WALL (       2 calls)
     sum_band:buf :      0.11s CPU      0.11s WALL (       4 calls)
     sum_band:ini :      0.16s CPU      0.16s WALL (       4 calls)
     sum_band:cal :      1.66s CPU      1.67s WALL (       4 calls)
     sum_band:bec :      0.02s CPU      0.02s WALL (       4 calls)
     addusdens    :      0.33s CPU      0.48s WALL (       2 calls)
     addusd:skk   :      0.02s CPU      0.02s WALL (       4 calls)
     addusd:dgemm :      0.18s CPU      0.32s WALL (       4 calls)
     addusd:qvan2 :      0.12s CPU      0.12s WALL (       4 calls)

     Called by *egterg:
     cdiaghg      :    185.49s CPU    186.49s WALL (     129 calls)
     cegterg:over :     29.48s CPU     30.10s WALL (     127 calls)
     cegterg:upda :     18.68s CPU     19.09s WALL (     127 calls)
     cegterg:last :     13.29s CPU     13.38s WALL (      12 calls)
     h_psi        :     65.70s CPU     66.82s WALL (     137 calls)
     s_psi        :     14.02s CPU     14.13s WALL (     137 calls)
     g_psi        :      0.15s CPU      0.15s WALL (     127 calls)

     Called by h_psi:
     h_psi:calbec :     15.13s CPU     15.28s WALL (     137 calls)
     vloc_psi     :     35.94s CPU     36.37s WALL (     137 calls)
     add_vuspsi   :     13.98s CPU     14.12s WALL (     137 calls)

     General routines
     calbec       :     22.64s CPU     22.83s WALL (     151 calls)
     fft          :      1.23s CPU      1.26s WALL (     294 calls)
     ffts         :      0.01s CPU      0.01s WALL (       4 calls)
     fftw         :     35.77s CPU     36.19s WALL (   34950 calls)
     interpolate  :      0.02s CPU      0.02s WALL (       2 calls)
 
     Parallel routines

     PAW routines
     PAW_pot      :      0.34s CPU      0.34s WALL (       2 calls)
 
     PWSCF        :   7m24.94s CPU   7m37.48s WALL

 
   This run was terminated on:   8:17: 3  18Feb2024            

=------------------------------------------------------------------------------=
   JOB DONE.
=------------------------------------------------------------------------------=
