
     Program PWSCF v.7.1 starts on  2Oct2023 at 22:16:36 

     This program is part of the open-source Quantum ESPRESSO suite
     for quantum simulation of materials; please cite
         "P. Giannozzi et al., J. Phys.:Condens. Matter 21 395502 (2009);
         "P. Giannozzi et al., J. Phys.:Condens. Matter 29 465901 (2017);
         "P. Giannozzi et al., J. Chem. Phys. 152 154105 (2020);
          URL http://www.quantum-espresso.org", 
     in publications or presentations arising from this work. More details at
     http://www.quantum-espresso.org/quote

     Parallel version (MPI & OpenMP), running on     128 processor cores
     Number of MPI processes:               128
     Threads/MPI process:                     1

     MPI processes distributed on     1 nodes
     1647785 MiB available memory on the printing compute node when the environment starts
 
     Reading input from espresso.pwi

     Current dimensions of program PWSCF are:
     Max number of different atomic species (ntypx) = 10
     Max number of k-points (npk) =  40000
     Max angular momentum in pseudopotentials (lmaxx) =  4
     file C.pbe-n-kjpaw_psl.1.0.0.UPF: wavefunction(s)  2S 2P renormalized

     **************************************************************************
     Initializing libbeef V0.1.2 with the BEEF-vdW functional.
     Citation: Wellendorff et al., PRB 85, 235149 (2012).
     **************************************************************************


     IMPORTANT: XC functional enforced from input :
     Exchange-correlation= BEEF-VDW
                           (   1   4  43  14   2   0   0)
     Any further DFT definition will be discarded
     Please, verify this is what you really want

 
     K-points division:     npool     =       4
     R & G space division:  proc/nbgrp/npool/nimage =      32
     Subspace diagonalization in iterative solution of the eigenvalue problem:
     a serial algorithm will be used

 
     Parallelization info
     --------------------
     sticks:   dense  smooth     PW     G-vecs:    dense   smooth      PW
     Min          16      13      3                  952      683     103
     Max          18      14      4                  960      696     120
     Sum         517     421    121                30603    21979    3643
 
     Using Slab Decomposition
 


     bravais-lattice index     =            4
     lattice parameter (alat)  =       4.6625  a.u.
     unit-cell volume          =     277.6091 (a.u.)^3
     number of atoms/cell      =            4
     number of atomic types    =            1
     number of electrons       =        16.00
     number of Kohn-Sham states=           12
     kinetic-energy cutoff     =      70.0000  Ry
     charge density cutoff     =     350.0000  Ry
     scf convergence threshold =      1.0E-08
     mixing beta               =       0.7000
     number of iterations used =            8  plain     mixing
     energy convergence thresh.=      1.0E-04
     force convergence thresh. =      1.0E-03
     press convergence thresh. =      5.0E-01
     Exchange-correlation= BEEF-VDW
                           (   1   4  43  14   2   0   0)
     nstep                     =           50


     celldm(1)=   4.662504  celldm(2)=   0.000000  celldm(3)=   3.162607
     celldm(4)=   0.000000  celldm(5)=   0.000000  celldm(6)=   0.000000

     crystal axes: (cart. coord. in units of alat)
               a(1) = (   1.000000   0.000000   0.000000 )  
               a(2) = (  -0.500000   0.866025   0.000000 )  
               a(3) = (   0.000000   0.000000   3.162607 )  

     reciprocal axes: (cart. coord. in units 2 pi/alat)
               b(1) = (  1.000000  0.577350 -0.000000 )  
               b(2) = (  0.000000  1.154701  0.000000 )  
               b(3) = (  0.000000 -0.000000  0.316195 )  


     PseudoPot. # 1 for C  read from file:
     //group///packages/espresso/pseudo/psl_1.0.0/pslibrary.1.0.0/pbe/PSEUDOPOTENTIALS/C.pbe-n-kjpaw_psl.1.0.0.UPF
     MD5 check sum: 5459cf7f2c8c37df2f7cde8914797f4d
     Pseudo is Projector augmented-wave + core cor, Zval =  4.0
     Generated using 'atomic' code by A. Dal Corso  v.7.1
     Shape of augmentation charge: PSQ
     Using radial grid of 1073 points,  4 beta functions with: 
                l(1) =   0
                l(2) =   0
                l(3) =   1
                l(4) =   1
     Q(r) pseudized with 0 coefficients 


     atomic species   valence    mass     pseudopotential
        C              4.00    12.01100     C ( 1.00)

     24 Sym. Ops., with inversion, found (12 have fractional translation)


                                    s                        frac. trans.

      isym =  1     identity                                     

 cryst.   s( 1) = (     1          0          0      )
                  (     0          1          0      )
                  (     0          0          1      )

 cart.    s( 1) = (  1.0000000  0.0000000  0.0000000 )
                  (  0.0000000  1.0000000  0.0000000 )
                  (  0.0000000  0.0000000  1.0000000 )


      isym =  2     180 deg rotation - cart. axis [0,0,1]        

 cryst.   s( 2) = (    -1          0          0      )    f =(  0.0000000 )
                  (     0         -1          0      )       (  0.0000000 )
                  (     0          0          1      )       (  0.5000000 )

 cart.    s( 2) = ( -1.0000000  0.0000000  0.0000000 )    f =(  0.0000000 )
                  (  0.0000000 -1.0000000  0.0000000 )       (  0.0000000 )
                  (  0.0000000  0.0000000  1.0000000 )       (  1.5813037 )


      isym =  3     180 deg rotation - cart. axis [0,1,0]        

 cryst.   s( 3) = (    -1          0          0      )    f =(  0.0000000 )
                  (     1          1          0      )       (  0.0000000 )
                  (     0          0         -1      )       ( -0.5000000 )

 cart.    s( 3) = ( -1.0000000  0.0000000  0.0000000 )    f =(  0.0000000 )
                  (  0.0000000  1.0000000  0.0000000 )       (  0.0000000 )
                  (  0.0000000  0.0000000 -1.0000000 )       ( -1.5813037 )


      isym =  4     180 deg rotation - cart. axis [1,0,0]        

 cryst.   s( 4) = (     1          0          0      )
                  (    -1         -1          0      )
                  (     0          0         -1      )

 cart.    s( 4) = (  1.0000000  0.0000000  0.0000000 )
                  (  0.0000000 -1.0000000  0.0000000 )
                  (  0.0000000  0.0000000 -1.0000000 )


      isym =  5      60 deg rotation - cryst. axis [0,0,1]       

 cryst.   s( 5) = (     1          1          0      )    f =(  0.0000000 )
                  (    -1          0          0      )       (  0.0000000 )
                  (     0          0          1      )       (  0.5000000 )

 cart.    s( 5) = (  0.5000000 -0.8660254  0.0000000 )    f =(  0.0000000 )
                  (  0.8660254  0.5000000  0.0000000 )       (  0.0000000 )
                  (  0.0000000  0.0000000  1.0000000 )       (  1.5813037 )


      isym =  6      60 deg rotation - cryst. axis [0,0,-1]      

 cryst.   s( 6) = (     0         -1          0      )    f =(  0.0000000 )
                  (     1          1          0      )       (  0.0000000 )
                  (     0          0          1      )       (  0.5000000 )

 cart.    s( 6) = (  0.5000000  0.8660254  0.0000000 )    f =(  0.0000000 )
                  ( -0.8660254  0.5000000  0.0000000 )       (  0.0000000 )
                  (  0.0000000  0.0000000  1.0000000 )       (  1.5813037 )


      isym =  7     120 deg rotation - cryst. axis [0,0,1]       

 cryst.   s( 7) = (     0          1          0      )
                  (    -1         -1          0      )
                  (     0          0          1      )

 cart.    s( 7) = ( -0.5000000 -0.8660254  0.0000000 )
                  (  0.8660254 -0.5000000  0.0000000 )
                  (  0.0000000  0.0000000  1.0000000 )


      isym =  8     120 deg rotation - cryst. axis [0,0,-1]      

 cryst.   s( 8) = (    -1         -1          0      )
                  (     1          0          0      )
                  (     0          0          1      )

 cart.    s( 8) = ( -0.5000000  0.8660254  0.0000000 )
                  ( -0.8660254 -0.5000000  0.0000000 )
                  (  0.0000000  0.0000000  1.0000000 )


      isym =  9     180 deg rotation - cryst. axis [1,-1,0]      

 cryst.   s( 9) = (     0         -1          0      )    f =(  0.0000000 )
                  (    -1          0          0      )       (  0.0000000 )
                  (     0          0         -1      )       ( -0.5000000 )

 cart.    s( 9) = (  0.5000000 -0.8660254  0.0000000 )    f =(  0.0000000 )
                  ( -0.8660254 -0.5000000  0.0000000 )       (  0.0000000 )
                  (  0.0000000  0.0000000 -1.0000000 )       ( -1.5813037 )


      isym = 10     180 deg rotation - cryst. axis [2,1,0]       

 cryst.   s(10) = (     1          1          0      )    f =(  0.0000000 )
                  (     0         -1          0      )       (  0.0000000 )
                  (     0          0         -1      )       ( -0.5000000 )

 cart.    s(10) = (  0.5000000  0.8660254  0.0000000 )    f =(  0.0000000 )
                  (  0.8660254 -0.5000000  0.0000000 )       (  0.0000000 )
                  (  0.0000000  0.0000000 -1.0000000 )       ( -1.5813037 )


      isym = 11     180 deg rotation - cryst. axis [0,1,0]       

 cryst.   s(11) = (    -1         -1          0      )
                  (     0          1          0      )
                  (     0          0         -1      )

 cart.    s(11) = ( -0.5000000 -0.8660254  0.0000000 )
                  ( -0.8660254  0.5000000  0.0000000 )
                  (  0.0000000  0.0000000 -1.0000000 )


      isym = 12     180 deg rotation - cryst. axis [1,1,0]       

 cryst.   s(12) = (     0          1          0      )
                  (     1          0          0      )
                  (     0          0         -1      )

 cart.    s(12) = ( -0.5000000  0.8660254  0.0000000 )
                  (  0.8660254  0.5000000  0.0000000 )
                  (  0.0000000  0.0000000 -1.0000000 )


      isym = 13     inversion                                    

 cryst.   s(13) = (    -1          0          0      )
                  (     0         -1          0      )
                  (     0          0         -1      )

 cart.    s(13) = ( -1.0000000  0.0000000  0.0000000 )
                  (  0.0000000 -1.0000000  0.0000000 )
                  (  0.0000000  0.0000000 -1.0000000 )


      isym = 14     inv. 180 deg rotation - cart. axis [0,0,1]   

 cryst.   s(14) = (     1          0          0      )    f =(  0.0000000 )
                  (     0          1          0      )       (  0.0000000 )
                  (     0          0         -1      )       ( -0.5000000 )

 cart.    s(14) = (  1.0000000  0.0000000  0.0000000 )    f =(  0.0000000 )
                  (  0.0000000  1.0000000  0.0000000 )       (  0.0000000 )
                  (  0.0000000  0.0000000 -1.0000000 )       ( -1.5813037 )


      isym = 15     inv. 180 deg rotation - cart. axis [0,1,0]   

 cryst.   s(15) = (     1          0          0      )    f =(  0.0000000 )
                  (    -1         -1          0      )       (  0.0000000 )
                  (     0          0          1      )       (  0.5000000 )

 cart.    s(15) = (  1.0000000  0.0000000  0.0000000 )    f =(  0.0000000 )
                  (  0.0000000 -1.0000000  0.0000000 )       (  0.0000000 )
                  (  0.0000000  0.0000000  1.0000000 )       (  1.5813037 )


      isym = 16     inv. 180 deg rotation - cart. axis [1,0,0]   

 cryst.   s(16) = (    -1          0          0      )
                  (     1          1          0      )
                  (     0          0          1      )

 cart.    s(16) = ( -1.0000000  0.0000000  0.0000000 )
                  (  0.0000000  1.0000000  0.0000000 )
                  (  0.0000000  0.0000000  1.0000000 )


      isym = 17     inv.  60 deg rotation - cryst. axis [0,0,1]  

 cryst.   s(17) = (    -1         -1          0      )    f =(  0.0000000 )
                  (     1          0          0      )       (  0.0000000 )
                  (     0          0         -1      )       ( -0.5000000 )

 cart.    s(17) = ( -0.5000000  0.8660254  0.0000000 )    f =(  0.0000000 )
                  ( -0.8660254 -0.5000000  0.0000000 )       (  0.0000000 )
                  (  0.0000000  0.0000000 -1.0000000 )       ( -1.5813037 )


      isym = 18     inv.  60 deg rotation - cryst. axis [0,0,-1] 

 cryst.   s(18) = (     0          1          0      )    f =(  0.0000000 )
                  (    -1         -1          0      )       (  0.0000000 )
                  (     0          0         -1      )       ( -0.5000000 )

 cart.    s(18) = ( -0.5000000 -0.8660254  0.0000000 )    f =(  0.0000000 )
                  (  0.8660254 -0.5000000  0.0000000 )       (  0.0000000 )
                  (  0.0000000  0.0000000 -1.0000000 )       ( -1.5813037 )


      isym = 19     inv. 120 deg rotation - cryst. axis [0,0,1]  

 cryst.   s(19) = (     0         -1          0      )
                  (     1          1          0      )
                  (     0          0         -1      )

 cart.    s(19) = (  0.5000000  0.8660254  0.0000000 )
                  ( -0.8660254  0.5000000  0.0000000 )
                  (  0.0000000  0.0000000 -1.0000000 )


      isym = 20     inv. 120 deg rotation - cryst. axis [0,0,-1] 

 cryst.   s(20) = (     1          1          0      )
                  (    -1          0          0      )
                  (     0          0         -1      )

 cart.    s(20) = (  0.5000000 -0.8660254  0.0000000 )
                  (  0.8660254  0.5000000  0.0000000 )
                  (  0.0000000  0.0000000 -1.0000000 )


      isym = 21     inv. 180 deg rotation - cryst. axis [1,-1,0] 

 cryst.   s(21) = (     0          1          0      )    f =(  0.0000000 )
                  (     1          0          0      )       (  0.0000000 )
                  (     0          0          1      )       (  0.5000000 )

 cart.    s(21) = ( -0.5000000  0.8660254  0.0000000 )    f =(  0.0000000 )
                  (  0.8660254  0.5000000  0.0000000 )       (  0.0000000 )
                  (  0.0000000  0.0000000  1.0000000 )       (  1.5813037 )


      isym = 22     inv. 180 deg rotation - cryst. axis [2,1,0]  

 cryst.   s(22) = (    -1         -1          0      )    f =(  0.0000000 )
                  (     0          1          0      )       (  0.0000000 )
                  (     0          0          1      )       (  0.5000000 )

 cart.    s(22) = ( -0.5000000 -0.8660254  0.0000000 )    f =(  0.0000000 )
                  ( -0.8660254  0.5000000  0.0000000 )       (  0.0000000 )
                  (  0.0000000  0.0000000  1.0000000 )       (  1.5813037 )


      isym = 23     inv. 180 deg rotation - cryst. axis [0,1,0]  

 cryst.   s(23) = (     1          1          0      )
                  (     0         -1          0      )
                  (     0          0          1      )

 cart.    s(23) = (  0.5000000  0.8660254  0.0000000 )
                  (  0.8660254 -0.5000000  0.0000000 )
                  (  0.0000000  0.0000000  1.0000000 )


      isym = 24     inv. 180 deg rotation - cryst. axis [1,1,0]  

 cryst.   s(24) = (     0         -1          0      )
                  (    -1          0          0      )
                  (     0          0          1      )

 cart.    s(24) = (  0.5000000 -0.8660254  0.0000000 )
                  ( -0.8660254 -0.5000000  0.0000000 )
                  (  0.0000000  0.0000000  1.0000000 )


     point group D_6h(6/mmm)
     there are 12 classes
     the character table:

       E     2C6   2C3   C2    3C2'  3C2'' i     2S3   2S6   s_h   3s_d  3s_v 
A_1g   1.00  1.00  1.00  1.00  1.00  1.00  1.00  1.00  1.00  1.00  1.00  1.00
A_2g   1.00  1.00  1.00  1.00 -1.00 -1.00  1.00  1.00  1.00  1.00 -1.00 -1.00
B_1g   1.00 -1.00  1.00 -1.00  1.00 -1.00  1.00 -1.00  1.00 -1.00  1.00 -1.00
B_2g   1.00 -1.00  1.00 -1.00 -1.00  1.00  1.00 -1.00  1.00 -1.00 -1.00  1.00
E_1g   2.00  1.00 -1.00 -2.00  0.00  0.00  2.00  1.00 -1.00 -2.00  0.00  0.00
E_2g   2.00 -1.00 -1.00  2.00  0.00  0.00  2.00 -1.00 -1.00  2.00  0.00  0.00
A_1u   1.00  1.00  1.00  1.00  1.00  1.00 -1.00 -1.00 -1.00 -1.00 -1.00 -1.00
A_2u   1.00  1.00  1.00  1.00 -1.00 -1.00 -1.00 -1.00 -1.00 -1.00  1.00  1.00
B_1u   1.00 -1.00  1.00 -1.00  1.00 -1.00 -1.00  1.00 -1.00  1.00 -1.00  1.00
B_2u   1.00 -1.00  1.00 -1.00 -1.00  1.00 -1.00  1.00 -1.00  1.00  1.00 -1.00
E_1u   2.00  1.00 -1.00 -2.00  0.00  0.00 -2.00 -1.00  1.00  2.00  0.00  0.00
E_2u   2.00 -1.00 -1.00  2.00  0.00  0.00 -2.00  1.00  1.00 -2.00  0.00  0.00

     the symmetry operations in each class and the name of the first element:

     E        1
          identity                                               
     2C6      5    6
           60 deg rotation - cryst. axis [0,0,1]                 
     2C3      7    8
          120 deg rotation - cryst. axis [0,0,1]                 
     C2       2
          180 deg rotation - cart. axis [0,0,1]                  
     3C2'     4   12   11
          180 deg rotation - cart. axis [1,0,0]                  
     3C2''    3    9   10
          180 deg rotation - cart. axis [0,1,0]                  
     i       13
          inversion                                              
     2S3     17   18
          inv.  60 deg rotation - cryst. axis [0,0,1]            
     2S6     19   20
          inv. 120 deg rotation - cryst. axis [0,0,1]            
     s_h     14
          inv. 180 deg rotation - cart. axis [0,0,1]             
     3s_d    16   24   23
          inv. 180 deg rotation - cart. axis [1,0,0]             
     3s_v    15   21   22
          inv. 180 deg rotation - cart. axis [0,1,0]             

   Cartesian axes

     site n.     atom                  positions (alat units)
         1           C   tau(   1) = (   0.0000000   0.0000000   0.7906519  )
         2           C   tau(   2) = (   0.0000000   0.0000000   2.3719556  )
         3           C   tau(   3) = (  -0.0000006   0.5773506   0.7906519  )
         4           C   tau(   4) = (   0.5000004   0.2886749   2.3719556  )

   Crystallographic axes

     site n.     atom                  positions (cryst. coord.)
         1           C   tau(   1) = (  0.0000000  0.0000000  0.2500000  )
         2           C   tau(   2) = (  0.0000000  0.0000000  0.7500000  )
         3           C   tau(   3) = (  0.3333329  0.6666671  0.2500000  )
         4           C   tau(   4) = (  0.6666670  0.3333330  0.7500000  )

     number of k points=    84  Gaussian smearing, width (Ry)=  0.0100
                       cart. coord. in units 2pi/alat
        k(    1) = (   0.0000000   0.0000000   0.0000000), wk =   0.0020000
        k(    2) = (   0.0000000   0.0000000   0.0316195), wk =   0.0040000
        k(    3) = (   0.0000000   0.0000000   0.0632390), wk =   0.0040000
        k(    4) = (   0.0000000   0.0000000   0.0948584), wk =   0.0040000
        k(    5) = (   0.0000000   0.0000000   0.1264779), wk =   0.0040000
        k(    6) = (   0.0000000   0.0000000  -0.1580974), wk =   0.0020000
        k(    7) = (   0.0000000   0.1154701   0.0000000), wk =   0.0120000
        k(    8) = (   0.0000000   0.1154701   0.0316195), wk =   0.0240000
        k(    9) = (   0.0000000   0.1154701   0.0632390), wk =   0.0240000
        k(   10) = (   0.0000000   0.1154701   0.0948584), wk =   0.0240000
        k(   11) = (   0.0000000   0.1154701   0.1264779), wk =   0.0240000
        k(   12) = (   0.0000000   0.1154701  -0.1580974), wk =   0.0120000
        k(   13) = (   0.0000000   0.2309401   0.0000000), wk =   0.0120000
        k(   14) = (   0.0000000   0.2309401   0.0316195), wk =   0.0240000
        k(   15) = (   0.0000000   0.2309401   0.0632390), wk =   0.0240000
        k(   16) = (   0.0000000   0.2309401   0.0948584), wk =   0.0240000
        k(   17) = (   0.0000000   0.2309401   0.1264779), wk =   0.0240000
        k(   18) = (   0.0000000   0.2309401  -0.1580974), wk =   0.0120000
        k(   19) = (   0.0000000   0.3464102   0.0000000), wk =   0.0120000
        k(   20) = (   0.0000000   0.3464102   0.0316195), wk =   0.0240000
        k(   21) = (   0.0000000   0.3464102   0.0632390), wk =   0.0240000
        k(   22) = (   0.0000000   0.3464102   0.0948584), wk =   0.0240000
        k(   23) = (   0.0000000   0.3464102   0.1264779), wk =   0.0240000
        k(   24) = (   0.0000000   0.3464102  -0.1580974), wk =   0.0120000
        k(   25) = (   0.0000000   0.4618802   0.0000000), wk =   0.0120000
        k(   26) = (   0.0000000   0.4618802   0.0316195), wk =   0.0240000
        k(   27) = (   0.0000000   0.4618802   0.0632390), wk =   0.0240000
        k(   28) = (   0.0000000   0.4618802   0.0948584), wk =   0.0240000
        k(   29) = (   0.0000000   0.4618802   0.1264779), wk =   0.0240000
        k(   30) = (   0.0000000   0.4618802  -0.1580974), wk =   0.0120000
        k(   31) = (   0.0000000  -0.5773503   0.0000000), wk =   0.0060000
        k(   32) = (   0.0000000  -0.5773503   0.0316195), wk =   0.0120000
        k(   33) = (   0.0000000  -0.5773503   0.0632390), wk =   0.0120000
        k(   34) = (   0.0000000  -0.5773503   0.0948584), wk =   0.0120000
        k(   35) = (   0.0000000  -0.5773503   0.1264779), wk =   0.0120000
        k(   36) = (   0.0000000  -0.5773503  -0.1580974), wk =   0.0060000
        k(   37) = (   0.1000000   0.1732051   0.0000000), wk =   0.0120000
        k(   38) = (   0.1000000   0.1732051   0.0316195), wk =   0.0240000
        k(   39) = (   0.1000000   0.1732051   0.0632390), wk =   0.0240000
        k(   40) = (   0.1000000   0.1732051   0.0948584), wk =   0.0240000
        k(   41) = (   0.1000000   0.1732051   0.1264779), wk =   0.0240000
        k(   42) = (   0.1000000   0.1732051  -0.1580974), wk =   0.0120000
        k(   43) = (   0.1000000   0.2886751   0.0000000), wk =   0.0240000
        k(   44) = (   0.1000000   0.2886751   0.0316195), wk =   0.0480000
        k(   45) = (   0.1000000   0.2886751   0.0632390), wk =   0.0480000
        k(   46) = (   0.1000000   0.2886751   0.0948584), wk =   0.0480000
        k(   47) = (   0.1000000   0.2886751   0.1264779), wk =   0.0480000
        k(   48) = (   0.1000000   0.2886751  -0.1580974), wk =   0.0240000
        k(   49) = (   0.1000000   0.4041452   0.0000000), wk =   0.0240000
        k(   50) = (   0.1000000   0.4041452   0.0316195), wk =   0.0480000
        k(   51) = (   0.1000000   0.4041452   0.0632390), wk =   0.0480000
        k(   52) = (   0.1000000   0.4041452   0.0948584), wk =   0.0480000
        k(   53) = (   0.1000000   0.4041452   0.1264779), wk =   0.0480000
        k(   54) = (   0.1000000   0.4041452  -0.1580974), wk =   0.0240000
        k(   55) = (   0.1000000   0.5196152   0.0000000), wk =   0.0240000
        k(   56) = (   0.1000000   0.5196152   0.0316195), wk =   0.0480000
        k(   57) = (   0.1000000   0.5196152   0.0632390), wk =   0.0480000
        k(   58) = (   0.1000000   0.5196152   0.0948584), wk =   0.0480000
        k(   59) = (   0.1000000   0.5196152   0.1264779), wk =   0.0480000
        k(   60) = (   0.1000000   0.5196152  -0.1580974), wk =   0.0240000
        k(   61) = (   0.2000000   0.3464102   0.0000000), wk =   0.0120000
        k(   62) = (   0.2000000   0.3464102   0.0316195), wk =   0.0240000
        k(   63) = (   0.2000000   0.3464102   0.0632390), wk =   0.0240000
        k(   64) = (   0.2000000   0.3464102   0.0948584), wk =   0.0240000
        k(   65) = (   0.2000000   0.3464102   0.1264779), wk =   0.0240000
        k(   66) = (   0.2000000   0.3464102  -0.1580974), wk =   0.0120000
        k(   67) = (   0.2000000   0.4618802   0.0000000), wk =   0.0240000
        k(   68) = (   0.2000000   0.4618802   0.0316195), wk =   0.0480000
        k(   69) = (   0.2000000   0.4618802   0.0632390), wk =   0.0480000
        k(   70) = (   0.2000000   0.4618802   0.0948584), wk =   0.0480000
        k(   71) = (   0.2000000   0.4618802   0.1264779), wk =   0.0480000
        k(   72) = (   0.2000000   0.4618802  -0.1580974), wk =   0.0240000
        k(   73) = (   0.2000000   0.5773503   0.0000000), wk =   0.0120000
        k(   74) = (   0.2000000   0.5773503   0.0316195), wk =   0.0240000
        k(   75) = (   0.2000000   0.5773503   0.0632390), wk =   0.0240000
        k(   76) = (   0.2000000   0.5773503   0.0948584), wk =   0.0240000
        k(   77) = (   0.2000000   0.5773503   0.1264779), wk =   0.0240000
        k(   78) = (   0.2000000   0.5773503  -0.1580974), wk =   0.0120000
        k(   79) = (   0.3000000   0.5196152   0.0000000), wk =   0.0120000
        k(   80) = (   0.3000000   0.5196152   0.0316195), wk =   0.0240000
        k(   81) = (   0.3000000   0.5196152   0.0632390), wk =   0.0240000
        k(   82) = (   0.3000000   0.5196152   0.0948584), wk =   0.0240000
        k(   83) = (   0.3000000   0.5196152   0.1264779), wk =   0.0240000
        k(   84) = (   0.3000000   0.5196152  -0.1580974), wk =   0.0120000

                       cryst. coord.
        k(    1) = (   0.0000000   0.0000000   0.0000000), wk =   0.0020000
        k(    2) = (   0.0000000   0.0000000   0.1000000), wk =   0.0040000
        k(    3) = (   0.0000000   0.0000000   0.2000000), wk =   0.0040000
        k(    4) = (   0.0000000   0.0000000   0.3000000), wk =   0.0040000
        k(    5) = (   0.0000000   0.0000000   0.4000000), wk =   0.0040000
        k(    6) = (   0.0000000   0.0000000  -0.5000000), wk =   0.0020000
        k(    7) = (   0.0000000   0.1000000   0.0000000), wk =   0.0120000
        k(    8) = (   0.0000000   0.1000000   0.1000000), wk =   0.0240000
        k(    9) = (   0.0000000   0.1000000   0.2000000), wk =   0.0240000
        k(   10) = (   0.0000000   0.1000000   0.3000000), wk =   0.0240000
        k(   11) = (   0.0000000   0.1000000   0.4000000), wk =   0.0240000
        k(   12) = (   0.0000000   0.1000000  -0.5000000), wk =   0.0120000
        k(   13) = (   0.0000000   0.2000000   0.0000000), wk =   0.0120000
        k(   14) = (   0.0000000   0.2000000   0.1000000), wk =   0.0240000
        k(   15) = (   0.0000000   0.2000000   0.2000000), wk =   0.0240000
        k(   16) = (   0.0000000   0.2000000   0.3000000), wk =   0.0240000
        k(   17) = (   0.0000000   0.2000000   0.4000000), wk =   0.0240000
        k(   18) = (   0.0000000   0.2000000  -0.5000000), wk =   0.0120000
        k(   19) = (   0.0000000   0.3000000   0.0000000), wk =   0.0120000
        k(   20) = (   0.0000000   0.3000000   0.1000000), wk =   0.0240000
        k(   21) = (   0.0000000   0.3000000   0.2000000), wk =   0.0240000
        k(   22) = (   0.0000000   0.3000000   0.3000000), wk =   0.0240000
        k(   23) = (   0.0000000   0.3000000   0.4000000), wk =   0.0240000
        k(   24) = (   0.0000000   0.3000000  -0.5000000), wk =   0.0120000
        k(   25) = (   0.0000000   0.4000000   0.0000000), wk =   0.0120000
        k(   26) = (   0.0000000   0.4000000   0.1000000), wk =   0.0240000
        k(   27) = (   0.0000000   0.4000000   0.2000000), wk =   0.0240000
        k(   28) = (   0.0000000   0.4000000   0.3000000), wk =   0.0240000
        k(   29) = (   0.0000000   0.4000000   0.4000000), wk =   0.0240000
        k(   30) = (   0.0000000   0.4000000  -0.5000000), wk =   0.0120000
        k(   31) = (   0.0000000  -0.5000000   0.0000000), wk =   0.0060000
        k(   32) = (   0.0000000  -0.5000000   0.1000000), wk =   0.0120000
        k(   33) = (   0.0000000  -0.5000000   0.2000000), wk =   0.0120000
        k(   34) = (   0.0000000  -0.5000000   0.3000000), wk =   0.0120000
        k(   35) = (   0.0000000  -0.5000000   0.4000000), wk =   0.0120000
        k(   36) = (   0.0000000  -0.5000000  -0.5000000), wk =   0.0060000
        k(   37) = (   0.1000000   0.1000000   0.0000000), wk =   0.0120000
        k(   38) = (   0.1000000   0.1000000   0.1000000), wk =   0.0240000
        k(   39) = (   0.1000000   0.1000000   0.2000000), wk =   0.0240000
        k(   40) = (   0.1000000   0.1000000   0.3000000), wk =   0.0240000
        k(   41) = (   0.1000000   0.1000000   0.4000000), wk =   0.0240000
        k(   42) = (   0.1000000   0.1000000  -0.5000000), wk =   0.0120000
        k(   43) = (   0.1000000   0.2000000   0.0000000), wk =   0.0240000
        k(   44) = (   0.1000000   0.2000000   0.1000000), wk =   0.0480000
        k(   45) = (   0.1000000   0.2000000   0.2000000), wk =   0.0480000
        k(   46) = (   0.1000000   0.2000000   0.3000000), wk =   0.0480000
        k(   47) = (   0.1000000   0.2000000   0.4000000), wk =   0.0480000
        k(   48) = (   0.1000000   0.2000000  -0.5000000), wk =   0.0240000
        k(   49) = (   0.1000000   0.3000000   0.0000000), wk =   0.0240000
        k(   50) = (   0.1000000   0.3000000   0.1000000), wk =   0.0480000
        k(   51) = (   0.1000000   0.3000000   0.2000000), wk =   0.0480000
        k(   52) = (   0.1000000   0.3000000   0.3000000), wk =   0.0480000
        k(   53) = (   0.1000000   0.3000000   0.4000000), wk =   0.0480000
        k(   54) = (   0.1000000   0.3000000  -0.5000000), wk =   0.0240000
        k(   55) = (   0.1000000   0.4000000   0.0000000), wk =   0.0240000
        k(   56) = (   0.1000000   0.4000000   0.1000000), wk =   0.0480000
        k(   57) = (   0.1000000   0.4000000   0.2000000), wk =   0.0480000
        k(   58) = (   0.1000000   0.4000000   0.3000000), wk =   0.0480000
        k(   59) = (   0.1000000   0.4000000   0.4000000), wk =   0.0480000
        k(   60) = (   0.1000000   0.4000000  -0.5000000), wk =   0.0240000
        k(   61) = (   0.2000000   0.2000000   0.0000000), wk =   0.0120000
        k(   62) = (   0.2000000   0.2000000   0.1000000), wk =   0.0240000
        k(   63) = (   0.2000000   0.2000000   0.2000000), wk =   0.0240000
        k(   64) = (   0.2000000   0.2000000   0.3000000), wk =   0.0240000
        k(   65) = (   0.2000000   0.2000000   0.4000000), wk =   0.0240000
        k(   66) = (   0.2000000   0.2000000  -0.5000000), wk =   0.0120000
        k(   67) = (   0.2000000   0.3000000   0.0000000), wk =   0.0240000
        k(   68) = (   0.2000000   0.3000000   0.1000000), wk =   0.0480000
        k(   69) = (   0.2000000   0.3000000   0.2000000), wk =   0.0480000
        k(   70) = (   0.2000000   0.3000000   0.3000000), wk =   0.0480000
        k(   71) = (   0.2000000   0.3000000   0.4000000), wk =   0.0480000
        k(   72) = (   0.2000000   0.3000000  -0.5000000), wk =   0.0240000
        k(   73) = (   0.2000000   0.4000000   0.0000000), wk =   0.0120000
        k(   74) = (   0.2000000   0.4000000   0.1000000), wk =   0.0240000
        k(   75) = (   0.2000000   0.4000000   0.2000000), wk =   0.0240000
        k(   76) = (   0.2000000   0.4000000   0.3000000), wk =   0.0240000
        k(   77) = (   0.2000000   0.4000000   0.4000000), wk =   0.0240000
        k(   78) = (   0.2000000   0.4000000  -0.5000000), wk =   0.0120000
        k(   79) = (   0.3000000   0.3000000   0.0000000), wk =   0.0120000
        k(   80) = (   0.3000000   0.3000000   0.1000000), wk =   0.0240000
        k(   81) = (   0.3000000   0.3000000   0.2000000), wk =   0.0240000
        k(   82) = (   0.3000000   0.3000000   0.3000000), wk =   0.0240000
        k(   83) = (   0.3000000   0.3000000   0.4000000), wk =   0.0240000
        k(   84) = (   0.3000000   0.3000000  -0.5000000), wk =   0.0120000

     Dense  grid:    30603 G-vectors     FFT dimensions: (  27,  27,  90)

     Smooth grid:    21979 G-vectors     FFT dimensions: (  25,  25,  80)

     Dynamical RAM for                 wfc:       0.02 MB

     Dynamical RAM for     wfc (w. buffer):       0.34 MB

     Dynamical RAM for           str. fact:       0.01 MB

     Dynamical RAM for           local pot:       0.00 MB

     Dynamical RAM for          nlocal pot:       0.04 MB

     Dynamical RAM for                qrad:       0.86 MB

     Dynamical RAM for          rho,v,vnew:       0.09 MB

     Dynamical RAM for               rhoin:       0.03 MB

     Dynamical RAM for            rho*nmix:       0.23 MB

     Dynamical RAM for           G-vectors:       0.06 MB

     Dynamical RAM for          h,s,v(r/c):       0.11 MB

     Dynamical RAM for          <psi|beta>:       0.01 MB

     Dynamical RAM for                 psi:       0.06 MB

     Dynamical RAM for                hpsi:       0.06 MB

     Dynamical RAM for                spsi:       0.06 MB

     Dynamical RAM for      wfcinit/wfcrot:       0.05 MB

     Dynamical RAM for           addusdens:       0.18 MB

     Dynamical RAM for          addusforce:       0.20 MB

     Dynamical RAM for         addusstress:       0.19 MB

     Estimated static dynamical RAM per process >       1.55 MB

     Estimated max dynamical RAM per process >       2.09 MB

     Estimated total dynamical RAM >     244.68 MB

     Check: negative core charge=   -0.000011

     Initial potential from superposition of free atoms

     starting charge      15.9998, renormalised to      16.0000


     %%%%%%%%%%%%%%%%%%%%%%%%%%%%%%%%%%%%%%%%%%%%%%%%%%%%%%%%%%%%%%%%%%%%%%%%
     %                                                                      %
     % You are using vdW-DF, which was implemented by the Thonhauser group. %
     % Please cite the following two papers that made this development      %
     % possible and the two reviews that describe the various versions:     %
     %                                                                      %
     %   T. Thonhauser et al., PRL 115, 136402 (2015).                      %
     %   T. Thonhauser et al., PRB 76, 125112 (2007).                       %
     %   K. Berland et al., Rep. Prog. Phys. 78, 066501 (2015).             %
     %   D.C. Langreth et al., J. Phys.: Condens. Matter 21, 084203 (2009). %
     %                                                                      %
     % If you are calculating stress with vdW-DF, please also cite:         %
     %                                                                      %
     %   R. Sabatini et al., J. Phys.: Condens. Matter 24, 424209 (2012).   %
     %                                                                      %
     %%%%%%%%%%%%%%%%%%%%%%%%%%%%%%%%%%%%%%%%%%%%%%%%%%%%%%%%%%%%%%%%%%%%%%%%

     %%%%%%%%%%%%%%%%%%%%%%%%%%%%%%%%%%%%%%%%%%%%%%%%%%%%%%%%%%%%%%%%%%%%%%%%
     %                                                                      %
     %  vdW-DF NEWS:                                                        %
     %                                                                      %
     %  * vdW-DF3 is now available. DOI: 10.1021/acs.jctc.0c00471           %
     %    use with input_dft = 'vdW-DF3-opt1' or 'vdW-DF3-opt2'             %
     %                                                                      %
     %  * Unscreened and range-separated vdW-DF hybrid functionals          %
     %    DOI: 10.1063/1.4986522 and 10.1088/1361-648X/ac2ad2               %
     %    use with input_dft = 'vdW-DF-cx0' (etc) and 'vdW-DF-ahcx'         %
     %                                                                      %
     %%%%%%%%%%%%%%%%%%%%%%%%%%%%%%%%%%%%%%%%%%%%%%%%%%%%%%%%%%%%%%%%%%%%%%%%


     Carrying out vdW-DF run using the following parameters:
     Nqs    =  20  Npoints =  1024  r_max =  100.000
     q_mesh =  0.00001000  0.04494208  0.09755937  0.15916263
               0.23128650  0.31572767  0.41458969  0.53033537
               0.66584808  0.82450364  1.01025438  1.22772762
               1.48234092  1.78043706  2.12944203  2.53805004
               3.01644009  3.57652955  4.23227104  5.00000000


     -----------------------------------------------
     Non-local corr. energy    =       0.17190938 Ry
     -----------------------------------------------

     Starting wfcs are   16 randomized atomic wfcs
     Checking if some PAW data can be deallocated... 

     total cpu time spent up to now is        0.6 secs

     Self-consistent Calculation

     iteration #  1     ecut=    70.00 Ry     beta= 0.70
     Davidson diagonalization with overlap

---- Real-time Memory Report at c_bands before calling an iterative solver
           131 MiB given to the printing process from OS
             0 MiB allocation reported by mallinfo(arena+hblkhd)
       1644815 MiB available memory on the node where the printing process lives
------------------
     ethr =  1.00E-02,  avg # of iterations =  3.1


     -----------------------------------------------
     Non-local corr. energy    =       0.20020378 Ry
     -----------------------------------------------


     total cpu time spent up to now is        0.8 secs

     total energy              =     -75.95382904 Ry
     estimated scf accuracy    <       0.40113897 Ry

     iteration #  2     ecut=    70.00 Ry     beta= 0.70
     Davidson diagonalization with overlap

---- Real-time Memory Report at c_bands before calling an iterative solver
           138 MiB given to the printing process from OS
             0 MiB allocation reported by mallinfo(arena+hblkhd)
       1644539 MiB available memory on the node where the printing process lives
------------------
     ethr =  2.51E-03,  avg # of iterations =  3.8


     -----------------------------------------------
     Non-local corr. energy    =       0.19981715 Ry
     -----------------------------------------------


     total cpu time spent up to now is        1.1 secs

     total energy              =     -76.01147858 Ry
     estimated scf accuracy    <       0.00492157 Ry

     iteration #  3     ecut=    70.00 Ry     beta= 0.70
     Davidson diagonalization with overlap

---- Real-time Memory Report at c_bands before calling an iterative solver
           141 MiB given to the printing process from OS
             0 MiB allocation reported by mallinfo(arena+hblkhd)
       1644466 MiB available memory on the node where the printing process lives
------------------
     ethr =  3.08E-05,  avg # of iterations =  5.0


     -----------------------------------------------
     Non-local corr. energy    =       0.20034286 Ry
     -----------------------------------------------


     total cpu time spent up to now is        1.3 secs

     total energy              =     -76.01212950 Ry
     estimated scf accuracy    <       0.00039787 Ry

     iteration #  4     ecut=    70.00 Ry     beta= 0.70
     Davidson diagonalization with overlap

---- Real-time Memory Report at c_bands before calling an iterative solver
           142 MiB given to the printing process from OS
             0 MiB allocation reported by mallinfo(arena+hblkhd)
       1644437 MiB available memory on the node where the printing process lives
------------------
     ethr =  2.49E-06,  avg # of iterations =  4.2


     -----------------------------------------------
     Non-local corr. energy    =       0.20035892 Ry
     -----------------------------------------------


     total cpu time spent up to now is        1.6 secs

     total energy              =     -76.01215468 Ry
     estimated scf accuracy    <       0.00000096 Ry

     iteration #  5     ecut=    70.00 Ry     beta= 0.70
     Davidson diagonalization with overlap

---- Real-time Memory Report at c_bands before calling an iterative solver
           142 MiB given to the printing process from OS
             0 MiB allocation reported by mallinfo(arena+hblkhd)
       1644419 MiB available memory on the node where the printing process lives
------------------
     c_bands:  2 eigenvalues not converged
     c_bands:  2 eigenvalues not converged
     ethr =  6.01E-09,  avg # of iterations = 10.6


     -----------------------------------------------
     Non-local corr. energy    =       0.20036663 Ry
     -----------------------------------------------


     total cpu time spent up to now is        2.0 secs

     total energy              =     -76.01215670 Ry
     estimated scf accuracy    <       0.00000008 Ry

     iteration #  6     ecut=    70.00 Ry     beta= 0.70
     Davidson diagonalization with overlap

---- Real-time Memory Report at c_bands before calling an iterative solver
           143 MiB given to the printing process from OS
             0 MiB allocation reported by mallinfo(arena+hblkhd)
       1644389 MiB available memory on the node where the printing process lives
------------------
     ethr =  4.89E-10,  avg # of iterations =  5.2


     -----------------------------------------------
     Non-local corr. energy    =       0.20036880 Ry
     -----------------------------------------------


     total cpu time spent up to now is        2.3 secs

     total energy              =     -76.01215673 Ry
     estimated scf accuracy    <       0.00000002 Ry

     iteration #  7     ecut=    70.00 Ry     beta= 0.70
     Davidson diagonalization with overlap

---- Real-time Memory Report at c_bands before calling an iterative solver
           143 MiB given to the printing process from OS
             0 MiB allocation reported by mallinfo(arena+hblkhd)
       1644389 MiB available memory on the node where the printing process lives
------------------
     ethr =  1.09E-10,  avg # of iterations =  2.8


     -----------------------------------------------
     Non-local corr. energy    =       0.20036987 Ry
     -----------------------------------------------


     total cpu time spent up to now is        2.5 secs

     End of self-consistent calculation

          k = 0.0000 0.0000 0.0000 (  2799 PWs)   bands (ev):

   -14.4561 -14.3742  -2.7719  -1.9195   2.0703   2.0704   2.0736   2.0737
     8.5693  12.7769  13.5608  13.5609

     occupation numbers 
     1.0000   1.0000   1.0000   1.0000   1.0000   1.0000   1.0000   1.0000
     0.0000   0.0000   0.0000   0.0000

          k = 0.0000 0.0000 0.0316 (  2775 PWs)   bands (ev):

   -14.4541 -14.3763  -2.7533  -1.9432   2.0704   2.0705   2.0735   2.0736
     8.6432  12.5914  13.5612  13.5612

     occupation numbers 
     1.0000   1.0000   1.0000   1.0000   1.0000   1.0000   1.0000   1.0000
     0.0000   0.0000   0.0000   0.0000

          k = 0.0000 0.0000 0.0632 (  2769 PWs)   bands (ev):

   -14.4484 -14.3822  -2.6989  -2.0112   2.0706   2.0707   2.0733   2.0734
     8.8606  12.1185  13.5620  13.5621

     occupation numbers 
     1.0000   1.0000   1.0000   1.0000   1.0000   1.0000   1.0000   1.0000
     0.0000   0.0000   0.0000   0.0000

          k = 0.0000 0.0000 0.0949 (  2733 PWs)   bands (ev):

   -14.4395 -14.3914  -2.6126  -2.1140   2.0710   2.0711   2.0729   2.0730
     9.2103  11.5049  13.5634  13.5635

     occupation numbers 
     1.0000   1.0000   1.0000   1.0000   1.0000   1.0000   1.0000   1.0000
     0.0000   0.0000   0.0000   0.0000

          k = 0.0000 0.0000 0.1265 (  2734 PWs)   bands (ev):

   -14.4282 -14.4029  -2.5008  -2.2392   2.0715   2.0715   2.0725   2.0725
     9.6750  10.8557  13.5652  13.5652

     occupation numbers 
     1.0000   1.0000   1.0000   1.0000   1.0000   1.0000   1.0000   1.0000
     0.0000   0.0000   0.0000   0.0000

          k = 0.0000 0.0000-0.1581 (  2728 PWs)   bands (ev):

   -14.4156 -14.4156  -2.3725  -2.3725   2.0720   2.0720   2.0720   2.0721
    10.2328  10.2328  13.5671  13.5672

     occupation numbers 
     1.0000   1.0000   1.0000   1.0000   1.0000   1.0000   1.0000   1.0000
     0.0000   0.0000   0.0000   0.0000

          k = 0.0000 0.1155 0.0000 (  2755 PWs)   bands (ev):

   -14.2198 -14.1394  -2.4867  -1.6442   1.1473   1.1552   1.6019   1.6079
     8.8728  13.0452  13.6336  13.6704

     occupation numbers 
     1.0000   1.0000   1.0000   1.0000   1.0000   1.0000   1.0000   1.0000
     0.0000   0.0000   0.0000   0.0000

          k = 0.0000 0.1155 0.0316 (  2742 PWs)   bands (ev):

   -14.2179 -14.1414  -2.4684  -1.6676   1.1475   1.1550   1.6021   1.6077
     8.9460  12.8591  13.6388  13.6700

     occupation numbers 
     1.0000   1.0000   1.0000   1.0000   1.0000   1.0000   1.0000   1.0000
     0.0000   0.0000   0.0000   0.0000

          k = 0.0000 0.1155 0.0632 (  2744 PWs)   bands (ev):

   -14.2123 -14.1472  -2.4146  -1.7347   1.1480   1.1544   1.6025   1.6073
     9.1616  12.3895  13.6458  13.6685

     occupation numbers 
     1.0000   1.0000   1.0000   1.0000   1.0000   1.0000   1.0000   1.0000
     0.0000   0.0000   0.0000   0.0000

          k = 0.0000 0.1155 0.0949 (  2739 PWs)   bands (ev):

   -14.2035 -14.1562  -2.3292  -1.8363   1.1489   1.1536   1.6031   1.6066
     9.5083  11.7821  13.6509  13.6661

     occupation numbers 
     1.0000   1.0000   1.0000   1.0000   1.0000   1.0000   1.0000   1.0000
     0.0000   0.0000   0.0000   0.0000

          k = 0.0000 0.1155 0.1265 (  2744 PWs)   bands (ev):

   -14.1924 -14.1676  -2.2186  -1.9599   1.1500   1.1525   1.6040   1.6058
     9.9691  11.1393  13.6552  13.6629

     occupation numbers 
     1.0000   1.0000   1.0000   1.0000   1.0000   1.0000   1.0000   1.0000
     0.0000   0.0000   0.0000   0.0000

          k = 0.0000 0.1155-0.1581 (  2740 PWs)   bands (ev):

   -14.1800 -14.1800  -2.0917  -2.0917   1.1512   1.1512   1.6049   1.6049
    10.5221  10.5221  13.6592  13.6592

     occupation numbers 
     1.0000   1.0000   1.0000   1.0000   1.0000   1.0000   1.0000   1.0000
     0.0000   0.0000   0.0000   0.0000

          k = 0.0000 0.2309 0.0000 (  2727 PWs)   bands (ev):

   -13.5150 -13.4387  -1.6419  -1.0408  -1.0235  -0.8310   0.5951   0.6038
     9.7831  13.4517  13.5334  13.5902

     occupation numbers 
     1.0000   1.0000   1.0000   1.0000   1.0000   1.0000   1.0000   1.0000
     0.0000   0.0000   0.0000   0.0000

          k = 0.0000 0.2309 0.0316 (  2739 PWs)   bands (ev):

   -13.5132 -13.4406  -1.6241  -1.0404  -1.0239  -0.8535   0.5953   0.6035
     9.8540  13.4144  13.5170  13.5509

     occupation numbers 
     1.0000   1.0000   1.0000   1.0000   1.0000   1.0000   1.0000   1.0000
     0.0000   0.0000   0.0000   0.0000

          k = 0.0000 0.2309 0.0632 (  2734 PWs)   bands (ev):

   -13.5079 -13.4461  -1.5722  -1.0392  -1.0252  -0.9177   0.5959   0.6029
    10.0630  13.1066  13.4903  13.5344

     occupation numbers 
     1.0000   1.0000   1.0000   1.0000   1.0000   1.0000   1.0000   1.0000
     0.0000   0.0000   0.0000   0.0000

          k = 0.0000 0.2309 0.0949 (  2739 PWs)   bands (ev):

   -13.4995 -13.4547  -1.4897  -1.0376  -1.0271  -1.0148   0.5969   0.6020
    10.3989  12.5700  13.4903  13.5249

     occupation numbers 
     1.0000   1.0000   1.0000   1.0000   1.0000   1.0000   1.0000   1.0000
     0.0000   0.0000   0.0000   0.0000

          k = 0.0000 0.2309 0.1265 (  2732 PWs)   bands (ev):

   -13.4890 -13.4654  -1.3830  -1.1341  -1.0347  -1.0295   0.5981   0.6008
    10.8445  11.9671  13.4961  13.5147

     occupation numbers 
     1.0000   1.0000   1.0000   1.0000   1.0000   1.0000   1.0000   1.0000
     0.0000   0.0000   0.0000   0.0000

          k = 0.0000 0.2309-0.1581 (  2740 PWs)   bands (ev):

   -13.4772 -13.4772  -1.2608  -1.2608  -1.0321  -1.0321   0.5994   0.5994
    11.3772  11.3772  13.5047  13.5047

     occupation numbers 
     1.0000   1.0000   1.0000   1.0000   1.0000   1.0000   1.0000   1.0000
     0.0000   0.0000   0.0000   0.0000

          k = 0.0000 0.3464 0.0000 (  2729 PWs)   bands (ev):

   -12.3554 -12.2858  -3.6596  -3.6314  -0.3872  -0.3771  -0.2796   0.4678
    10.9277  11.2255  11.2885  13.0386

     occupation numbers 
     1.0000   1.0000   1.0000   1.0000   1.0000   1.0000   1.0000   1.0000
     0.0000   0.0000   0.0000   0.0000

          k = 0.0000 0.3464 0.0316 (  2741 PWs)   bands (ev):

   -12.3537 -12.2875  -3.6590  -3.6321  -0.3870  -0.3773  -0.2631   0.4474
    10.9254  11.2101  11.3719  13.0394

     occupation numbers 
     1.0000   1.0000   1.0000   1.0000   1.0000   1.0000   1.0000   1.0000
     0.0000   0.0000   0.0000   0.0000

          k = 0.0000 0.3464 0.0632 (  2739 PWs)   bands (ev):

   -12.3488 -12.2925  -3.6570  -3.6342  -0.3863  -0.3780  -0.2148   0.3887
    10.9309  11.1814  11.5889  13.0403

     occupation numbers 
     1.0000   1.0000   1.0000   1.0000   1.0000   1.0000   1.0000   1.0000
     0.0000   0.0000   0.0000   0.0000

          k = 0.0000 0.3464 0.0949 (  2744 PWs)   bands (ev):

   -12.3412 -12.3003  -3.6539  -3.6373  -0.3851  -0.3792  -0.1382   0.2995
    10.9540  11.1411  11.9168  13.0358

     occupation numbers 
     1.0000   1.0000   1.0000   1.0000   1.0000   1.0000   1.0000   1.0000
     0.0000   0.0000   0.0000   0.0000

          k = 0.0000 0.3464 0.1265 (  2751 PWs)   bands (ev):

   -12.3316 -12.3101  -3.6500  -3.6412  -0.3837  -0.3806  -0.0394   0.1905
    10.9926  11.0924  12.3325  12.9987

     occupation numbers 
     1.0000   1.0000   1.0000   1.0000   1.0000   1.0000   1.0000   1.0000
     0.0000   0.0000   0.0000   0.0000

          k = 0.0000 0.3464-0.1581 (  2754 PWs)   bands (ev):

   -12.3209 -12.3209  -3.6456  -3.6456  -0.3822  -0.3822   0.0736   0.0736
    11.0409  11.0409  12.7726  12.7726

     occupation numbers 
     1.0000   1.0000   1.0000   1.0000   1.0000   1.0000   1.0000   1.0000
     0.0000   0.0000   0.0000   0.0000

          k = 0.0000 0.4619 0.0000 (  2736 PWs)   bands (ev):

   -10.7785 -10.7183  -6.2316  -6.1931  -1.0526  -1.0417   1.4542   2.0618
     8.2104   8.6237  12.6779  12.7732

     occupation numbers 
     1.0000   1.0000   1.0000   1.0000   1.0000   1.0000   1.0000   1.0000
     0.0000   0.0000   0.0000   0.0000

          k = 0.0000 0.4619 0.0316 (  2745 PWs)   bands (ev):

   -10.7771 -10.7198  -6.2307  -6.1941  -1.0524  -1.0420   1.4680   2.0457
     8.2181   8.6113  12.6815  12.7727

     occupation numbers 
     1.0000   1.0000   1.0000   1.0000   1.0000   1.0000   1.0000   1.0000
     0.0000   0.0000   0.0000   0.0000

          k = 0.0000 0.4619 0.0632 (  2745 PWs)   bands (ev):

   -10.7729 -10.7241  -6.2280  -6.1968  -1.0516  -1.0427   1.5084   1.9995
     8.2412   8.5760  12.6911  12.7696

     occupation numbers 
     1.0000   1.0000   1.0000   1.0000   1.0000   1.0000   1.0000   1.0000
     0.0000   0.0000   0.0000   0.0000

          k = 0.0000 0.4619 0.0949 (  2752 PWs)   bands (ev):

   -10.7663 -10.7308  -6.2238  -6.2011  -1.0504  -1.0440   1.5721   1.9286
     8.2794   8.5229  12.7045  12.7622

     occupation numbers 
     1.0000   1.0000   1.0000   1.0000   1.0000   1.0000   1.0000   1.0000
     0.0000   0.0000   0.0000   0.0000

          k = 0.0000 0.4619 0.1265 (  2746 PWs)   bands (ev):

   -10.7579 -10.7393  -6.2184  -6.2065  -1.0489  -1.0455   1.6538   1.8411
     8.3312   8.4593  12.7199  12.7505

     occupation numbers 
     1.0000   1.0000   1.0000   1.0000   1.0000   1.0000   1.0000   1.0000
     0.0000   0.0000   0.0000   0.0000

          k = 0.0000 0.4619-0.1581 (  2748 PWs)   bands (ev):

   -10.7486 -10.7486  -6.2125  -6.2125  -1.0472  -1.0472   1.7463   1.7463
     8.3930   8.3930  12.7358  12.7358

     occupation numbers 
     1.0000   1.0000   1.0000   1.0000   1.0000   1.0000   1.0000   1.0000
     0.0000   0.0000   0.0000   0.0000

          k = 0.0000-0.5774 0.0000 (  2732 PWs)   bands (ev):

    -9.2552  -9.2271  -8.0790  -8.0568  -1.2846  -1.2735   2.7110   2.9863
     6.7942   7.1350  12.5603  12.6772

     occupation numbers 
     1.0000   1.0000   1.0000   1.0000   1.0000   1.0000   1.0000   1.0000
     0.0000   0.0000   0.0000   0.0000

          k = 0.0000-0.5774 0.0316 (  2742 PWs)   bands (ev):

    -9.2545  -9.2277  -8.0785  -8.0574  -1.2844  -1.2738   2.7185   2.9805
     6.7984   7.1225  12.5632  12.6743

     occupation numbers 
     1.0000   1.0000   1.0000   1.0000   1.0000   1.0000   1.0000   1.0000
     0.0000   0.0000   0.0000   0.0000

          k = 0.0000-0.5774 0.0632 (  2742 PWs)   bands (ev):

    -9.2525  -9.2297  -8.0771  -8.0591  -1.2836  -1.2746   2.7399   2.9632
     6.8117   7.0877  12.5713  12.6658

     occupation numbers 
     1.0000   1.0000   1.0000   1.0000   1.0000   1.0000   1.0000   1.0000
     0.0000   0.0000   0.0000   0.0000

          k = 0.0000-0.5774 0.0949 (  2756 PWs)   bands (ev):

    -9.2493  -9.2327  -8.0748  -8.0618  -1.2823  -1.2758   2.7728   2.9354
     6.8361   7.0368  12.5841  12.6527

     occupation numbers 
     1.0000   1.0000   1.0000   1.0000   1.0000   1.0000   1.0000   1.0000
     0.0000   0.0000   0.0000   0.0000

          k = 0.0000-0.5774 0.1265 (  2758 PWs)   bands (ev):

    -9.2453  -9.2366  -8.0719  -8.0650  -1.2808  -1.2774   2.8133   2.8990
     6.8730   6.9786  12.6002  12.6363

     occupation numbers 
     1.0000   1.0000   1.0000   1.0000   1.0000   1.0000   1.0000   1.0000
     0.0000   0.0000   0.0000   0.0000

          k = 0.0000-0.5774-0.1581 (  2752 PWs)   bands (ev):

    -9.2409  -9.2409  -8.0685  -8.0685  -1.2791  -1.2791   2.8570   2.8570
     6.9217   6.9217  12.6182  12.6182

     occupation numbers 
     1.0000   1.0000   1.0000   1.0000   1.0000   1.0000   1.0000   1.0000
     0.0000   0.0000   0.0000   0.0000

          k = 0.1000 0.1732 0.0000 (  2737 PWs)   bands (ev):

   -13.7493 -13.6716  -1.9214  -1.0995  -0.2116  -0.2039   0.6701   0.6754
     9.4809  13.5684  14.1112  14.1777

     occupation numbers 
     1.0000   1.0000   1.0000   1.0000   1.0000   1.0000   1.0000   1.0000
     0.0000   0.0000   0.0000   0.0000

          k = 0.1000 0.1732 0.0316 (  2745 PWs)   bands (ev):

   -13.7474 -13.6736  -1.9035  -1.1223  -0.2114  -0.2041   0.6702   0.6752
     9.5528  13.3843  14.1220  14.1764

     occupation numbers 
     1.0000   1.0000   1.0000   1.0000   1.0000   1.0000   1.0000   1.0000
     0.0000   0.0000   0.0000   0.0000

          k = 0.1000 0.1732 0.0632 (  2735 PWs)   bands (ev):

   -13.7420 -13.6792  -1.8509  -1.1875  -0.2109  -0.2046   0.6706   0.6749
     9.7645  12.9252  14.1349  14.1725

     occupation numbers 
     1.0000   1.0000   1.0000   1.0000   1.0000   1.0000   1.0000   1.0000
     0.0000   0.0000   0.0000   0.0000

          k = 0.1000 0.1732 0.0949 (  2730 PWs)   bands (ev):

   -13.7335 -13.6879  -1.7674  -1.2865  -0.2100  -0.2055   0.6712   0.6743
    10.1049  12.3326  14.1425  14.1669

     occupation numbers 
     1.0000   1.0000   1.0000   1.0000   1.0000   1.0000   1.0000   1.0000
     0.0000   0.0000   0.0000   0.0000

          k = 0.1000 0.1732 0.1265 (  2734 PWs)   bands (ev):

   -13.7228 -13.6988  -1.6593  -1.4069  -0.2089  -0.2065   0.6719   0.6735
    10.5572  11.7042  14.1483  14.1604

     occupation numbers 
     1.0000   1.0000   1.0000   1.0000   1.0000   1.0000   1.0000   1.0000
     0.0000   0.0000   0.0000   0.0000

          k = 0.1000 0.1732-0.1581 (  2718 PWs)   bands (ev):

   -13.7108 -13.7108  -1.5355  -1.5355  -0.2077  -0.2077   0.6727   0.6727
    11.0995  11.0995  14.1541  14.1541

     occupation numbers 
     1.0000   1.0000   1.0000   1.0000   1.0000   1.0000   1.0000   1.0000
     0.0000   0.0000   0.0000   0.0000

          k = 0.1000 0.2887 0.0000 (  2746 PWs)   bands (ev):

   -12.8170 -12.7447  -2.3810  -2.3618  -0.8140  -0.5655  -0.5544  -0.0382
    10.6939  12.0740  12.2597  14.2037

     occupation numbers 
     1.0000   1.0000   1.0000   1.0000   1.0000   1.0000   1.0000   1.0000
     0.0000   0.0000   0.0000   0.0000

          k = 0.1000 0.2887 0.0316 (  2741 PWs)   bands (ev):

   -12.8152 -12.7465  -2.3805  -2.3623  -0.7970  -0.5652  -0.5547  -0.0596
    10.7619  12.0795  12.2539  14.1818

     occupation numbers 
     1.0000   1.0000   1.0000   1.0000   1.0000   1.0000   1.0000   1.0000
     0.0000   0.0000   0.0000   0.0000

          k = 0.1000 0.2887 0.0632 (  2736 PWs)   bands (ev):

   -12.8102 -12.7517  -2.3791  -2.3636  -0.7470  -0.5645  -0.5555  -0.1207
    10.9616  12.0959  12.2371  13.9377

     occupation numbers 
     1.0000   1.0000   1.0000   1.0000   1.0000   1.0000   1.0000   1.0000
     0.0000   0.0000   0.0000   0.0000

          k = 0.1000 0.2887 0.0949 (  2742 PWs)   bands (ev):

   -12.8023 -12.7598  -2.3770  -2.3658  -0.6679  -0.5632  -0.5567  -0.2137
    11.2803  12.1233  12.2101  13.4207

     occupation numbers 
     1.0000   1.0000   1.0000   1.0000   1.0000   1.0000   1.0000   1.0000
     0.0000   0.0000   0.0000   0.0000

          k = 0.1000 0.2887 0.1265 (  2747 PWs)   bands (ev):

   -12.7923 -12.7700  -2.3744  -2.3684  -0.5656  -0.5617  -0.5582  -0.3271
    11.6910  12.1541  12.1855  12.8503

     occupation numbers 
     1.0000   1.0000   1.0000   1.0000   1.0000   1.0000   1.0000   1.0000
     0.0000   0.0000   0.0000   0.0000

          k = 0.1000 0.2887-0.1581 (  2744 PWs)   bands (ev):

   -12.7812 -12.7812  -2.3714  -2.3714  -0.5600  -0.5600  -0.4484  -0.4484
    12.0599  12.0599  12.3527  12.3527

     occupation numbers 
     1.0000   1.0000   1.0000   1.0000   1.0000   1.0000   1.0000   1.0000
     0.0000   0.0000   0.0000   0.0000

          k = 0.1000 0.4041 0.0000 (  2750 PWs)   bands (ev):

   -11.4458 -11.3815  -4.8892  -4.8574  -1.4822  -1.4676   0.7614   1.4473
     9.4000   9.7224  12.4886  13.8484

     occupation numbers 
     1.0000   1.0000   1.0000   1.0000   1.0000   1.0000   1.0000   1.0000
     0.0000   0.0000   0.0000   0.0000

          k = 0.1000 0.4041 0.0316 (  2748 PWs)   bands (ev):

   -11.4443 -11.3831  -4.8885  -4.8582  -1.4818  -1.4680   0.7767   1.4288
     9.4064   9.7133  12.5528  13.8502

     occupation numbers 
     1.0000   1.0000   1.0000   1.0000   1.0000   1.0000   1.0000   1.0000
     0.0000   0.0000   0.0000   0.0000

          k = 0.1000 0.4041 0.0632 (  2748 PWs)   bands (ev):

   -11.4398 -11.3877  -4.8862  -4.8604  -1.4808  -1.4690   0.8215   1.3756
     9.4255   9.6872  12.7405  13.8545

     occupation numbers 
     1.0000   1.0000   1.0000   1.0000   1.0000   1.0000   1.0000   1.0000
     0.0000   0.0000   0.0000   0.0000

          k = 0.1000 0.4041 0.0949 (  2750 PWs)   bands (ev):

   -11.4327 -11.3949  -4.8827  -4.8640  -1.4792  -1.4707   0.8923   1.2943
     9.4567   9.6475  13.0367  13.8576

     occupation numbers 
     1.0000   1.0000   1.0000   1.0000   1.0000   1.0000   1.0000   1.0000
     0.0000   0.0000   0.0000   0.0000

          k = 0.1000 0.4041 0.1265 (  2756 PWs)   bands (ev):

   -11.4238 -11.4039  -4.8783  -4.8684  -1.4772  -1.4727   0.9836   1.1947
     9.4985   9.5990  13.4093  13.8454

     occupation numbers 
     1.0000   1.0000   1.0000   1.0000   1.0000   1.0000   1.0000   1.0000
     0.0000   0.0000   0.0000   0.0000

          k = 0.1000 0.4041-0.1581 (  2746 PWs)   bands (ev):

   -11.4139 -11.4139  -4.8734  -4.8734  -1.4749  -1.4749   1.0875   1.0875
     9.5475   9.5475  13.7431  13.7431

     occupation numbers 
     1.0000   1.0000   1.0000   1.0000   1.0000   1.0000   1.0000   1.0000
     0.0000   0.0000   0.0000   0.0000

          k = 0.1000 0.5196 0.0000 (  2764 PWs)   bands (ev):

    -9.7250  -9.6734  -7.2503  -7.2108  -1.9589  -1.9431   2.4935   2.9419
     7.1461   7.4980  13.5920  13.7261

     occupation numbers 
     1.0000   1.0000   1.0000   1.0000   1.0000   1.0000   1.0000   1.0000
     0.0000   0.0000   0.0000   0.0000

          k = 0.1000 0.5196 0.0316 (  2754 PWs)   bands (ev):

    -9.7237  -9.6747  -7.2494  -7.2118  -1.9585  -1.9435   2.5043   2.9308
     7.1519   7.4868  13.5954  13.7229

     occupation numbers 
     1.0000   1.0000   1.0000   1.0000   1.0000   1.0000   1.0000   1.0000
     0.0000   0.0000   0.0000   0.0000

          k = 0.1000 0.5196 0.0632 (  2749 PWs)   bands (ev):

    -9.7201  -9.6784  -7.2466  -7.2147  -1.9574  -1.9446   2.5357   2.8987
     7.1698   7.4551  13.6050  13.7134

     occupation numbers 
     1.0000   1.0000   1.0000   1.0000   1.0000   1.0000   1.0000   1.0000
     0.0000   0.0000   0.0000   0.0000

          k = 0.1000 0.5196 0.0949 (  2754 PWs)   bands (ev):

    -9.7144  -9.6841  -7.2423  -7.2191  -1.9556  -1.9463   2.5848   2.8487
     7.2001   7.4078  13.6199  13.6987

     occupation numbers 
     1.0000   1.0000   1.0000   1.0000   1.0000   1.0000   1.0000   1.0000
     0.0000   0.0000   0.0000   0.0000

          k = 0.1000 0.5196 0.1265 (  2759 PWs)   bands (ev):

    -9.7073  -9.6914  -7.2368  -7.2246  -1.9534  -1.9485   2.6470   2.7858
     7.2425   7.3518  13.6386  13.6800

     occupation numbers 
     1.0000   1.0000   1.0000   1.0000   1.0000   1.0000   1.0000   1.0000
     0.0000   0.0000   0.0000   0.0000

          k = 0.1000 0.5196-0.1581 (  2756 PWs)   bands (ev):

    -9.6993  -9.6993  -7.2308  -7.2308  -1.9510  -1.9510   2.7162   2.7162
     7.2946   7.2946  13.6593  13.6593

     occupation numbers 
     1.0000   1.0000   1.0000   1.0000   1.0000   1.0000   1.0000   1.0000
     0.0000   0.0000   0.0000   0.0000

          k = 0.2000 0.3464 0.0000 (  2746 PWs)   bands (ev):

   -11.6722 -11.6064  -3.8734  -3.8588  -2.2934  -2.2825   0.5211   1.2304
    10.0186  10.2120  12.2001  15.5326

     occupation numbers 
     1.0000   1.0000   1.0000   1.0000   1.0000   1.0000   1.0000   1.0000
     0.0000   0.0000   0.0000   0.0000

          k = 0.2000 0.3464 0.0316 (  2750 PWs)   bands (ev):

   -11.6706 -11.6081  -3.8730  -3.8592  -2.2931  -2.2828   0.5368   1.2111
    10.0233  10.2072  12.2628  15.3982

     occupation numbers 
     1.0000   1.0000   1.0000   1.0000   1.0000   1.0000   1.0000   1.0000
     0.0000   0.0000   0.0000   0.0000

          k = 0.2000 0.3464 0.0632 (  2744 PWs)   bands (ev):

   -11.6660 -11.6128  -3.8720  -3.8602  -2.2924  -2.2836   0.5829   1.1557
    10.0370  10.1933  12.4470  15.0577

     occupation numbers 
     1.0000   1.0000   1.0000   1.0000   1.0000   1.0000   1.0000   1.0000
     0.0000   0.0000   0.0000   0.0000

          k = 0.2000 0.3464 0.0949 (  2744 PWs)   bands (ev):

   -11.6588 -11.6202  -3.8704  -3.8618  -2.2912  -2.2848   0.6559   1.0714
    10.0582  10.1717  12.7421  14.6000

     occupation numbers 
     1.0000   1.0000   1.0000   1.0000   1.0000   1.0000   1.0000   1.0000
     0.0000   0.0000   0.0000   0.0000

          k = 0.2000 0.3464 0.1265 (  2740 PWs)   bands (ev):

   -11.6497 -11.6294  -3.8683  -3.8638  -2.2897  -2.2864   0.7500   0.9682
    10.0851  10.1447  13.1312  14.0940

     occupation numbers 
     1.0000   1.0000   1.0000   1.0000   1.0000   1.0000   1.0000   1.0000
     0.0000   0.0000   0.0000   0.0000

          k = 0.2000 0.3464-0.1581 (  2742 PWs)   bands (ev):

   -11.6396 -11.6396  -3.8661  -3.8661  -2.2881  -2.2881   0.8574   0.8574
    10.1149  10.1149  13.5915  13.5915

     occupation numbers 
     1.0000   1.0000   1.0000   1.0000   1.0000   1.0000   1.0000   1.0000
     0.0000   0.0000   0.0000   0.0000

          k = 0.2000 0.4619 0.0000 (  2745 PWs)   bands (ev):

   -10.1255 -10.0691  -5.8607  -5.8305  -3.3712  -3.3509   2.2393   2.8210
     7.7954   8.0552  14.2532  16.0575

     occupation numbers 
     1.0000   1.0000   1.0000   1.0000   1.0000   1.0000   1.0000   1.0000
     0.0000   0.0000   0.0000   0.0000

          k = 0.2000 0.4619 0.0316 (  2747 PWs)   bands (ev):

   -10.1241 -10.0705  -5.8600  -5.8312  -3.3707  -3.3514   2.2525   2.8056
     7.8012   8.0484  14.3005  16.0445

     occupation numbers 
     1.0000   1.0000   1.0000   1.0000   1.0000   1.0000   1.0000   1.0000
     0.0000   0.0000   0.0000   0.0000

          k = 0.2000 0.4619 0.0632 (  2746 PWs)   bands (ev):

   -10.1201 -10.0745  -5.8578  -5.8334  -3.3693  -3.3529   2.2912   2.7614
     7.8184   8.0288  14.4377  15.9747

     occupation numbers 
     1.0000   1.0000   1.0000   1.0000   1.0000   1.0000   1.0000   1.0000
     0.0000   0.0000   0.0000   0.0000

          k = 0.2000 0.4619 0.0949 (  2743 PWs)   bands (ev):

   -10.1140 -10.0808  -5.8545  -5.8367  -3.3671  -3.3552   2.3522   2.6936
     7.8456   7.9986  14.6517  15.7904

     occupation numbers 
     1.0000   1.0000   1.0000   1.0000   1.0000   1.0000   1.0000   1.0000
     0.0000   0.0000   0.0000   0.0000

          k = 0.2000 0.4619 0.1265 (  2742 PWs)   bands (ev):

   -10.1061 -10.0887  -5.8503  -5.8410  -3.3643  -3.3580   2.4305   2.6098
     7.8806   7.9611  14.9218  15.5227

     occupation numbers 
     1.0000   1.0000   1.0000   1.0000   1.0000   1.0000   1.0000   1.0000
     0.0000   0.0000   0.0000   0.0000

          k = 0.2000 0.4619-0.1581 (  2744 PWs)   bands (ev):

   -10.0975 -10.0975  -5.8456  -5.8456  -3.3612  -3.3611   2.5191   2.5191
     7.9204   7.9204  15.2219  15.2219

     occupation numbers 
     1.0000   1.0000   1.0000   1.0000   1.0000   1.0000   1.0000   1.0000
     0.0000   0.0000   0.0000   0.0000

          k = 0.2000 0.5774 0.0000 (  2736 PWs)   bands (ev):

    -8.6428  -8.6166  -7.5508  -7.5337  -3.6827  -3.6593   3.5724   3.8396
     6.4980   6.6044  15.8936  16.1815

     occupation numbers 
     1.0000   1.0000   1.0000   1.0000   1.0000   1.0000   1.0000   1.0000
     0.0000   0.0000   0.0000   0.0000

          k = 0.2000 0.5774 0.0316 (  2740 PWs)   bands (ev):

    -8.6421  -8.6172  -7.5505  -7.5341  -3.6822  -3.6599   3.5797   3.8341
     6.4980   6.5996  15.8981  16.1634

     occupation numbers 
     1.0000   1.0000   1.0000   1.0000   1.0000   1.0000   1.0000   1.0000
     0.0000   0.0000   0.0000   0.0000

          k = 0.2000 0.5774 0.0632 (  2741 PWs)   bands (ev):

    -8.6402  -8.6190  -7.5494  -7.5355  -3.6805  -3.6616   3.6009   3.8179
     6.4988   6.5861  15.9072  16.1102

     occupation numbers 
     1.0000   1.0000   1.0000   1.0000   1.0000   1.0000   1.0000   1.0000
     0.0000   0.0000   0.0000   0.0000

          k = 0.2000 0.5774 0.0949 (  2751 PWs)   bands (ev):

    -8.6372  -8.6218  -7.5476  -7.5375  -3.6780  -3.6642   3.6334   3.7915
     6.5026   6.5668  15.9139  16.0373

     occupation numbers 
     1.0000   1.0000   1.0000   1.0000   1.0000   1.0000   1.0000   1.0000
     0.0000   0.0000   0.0000   0.0000

          k = 0.2000 0.5774 0.1265 (  2745 PWs)   bands (ev):

    -8.6335  -8.6254  -7.5454  -7.5401  -3.6747  -3.6675   3.6732   3.7566
     6.5114   6.5455  15.9194  15.9737

     occupation numbers 
     1.0000   1.0000   1.0000   1.0000   1.0000   1.0000   1.0000   1.0000
     0.0000   0.0000   0.0000   0.0000

          k = 0.2000 0.5774-0.1581 (  2748 PWs)   bands (ev):

    -8.6294  -8.6294  -7.5428  -7.5427  -3.6711  -3.6711   3.7158   3.7158
     6.5260   6.5260  15.9352  15.9352

     occupation numbers 
     1.0000   1.0000   1.0000   1.0000   1.0000   1.0000   1.0000   1.0000
     0.0000   0.0000   0.0000   0.0000

          k = 0.3000 0.5196 0.0000 (  2748 PWs)   bands (ev):

    -8.5093  -8.4657  -6.8202  -6.7991  -4.9448  -4.9326   3.9871   4.4056
     6.1102   6.3560  16.1629  16.3865

     occupation numbers 
     1.0000   1.0000   1.0000   1.0000   1.0000   1.0000   1.0000   1.0000
     0.0000   0.0000   0.0000   0.0000

          k = 0.3000 0.5196 0.0316 (  2746 PWs)   bands (ev):

    -8.5082  -8.4667  -6.8197  -6.7996  -4.9445  -4.9329   3.9972   4.3953
     6.1158   6.3494  16.1157  16.1915

     occupation numbers 
     1.0000   1.0000   1.0000   1.0000   1.0000   1.0000   1.0000   1.0000
     0.0000   0.0000   0.0000   0.0000

          k = 0.3000 0.5196 0.0632 (  2745 PWs)   bands (ev):

    -8.5051  -8.4698  -6.8182  -6.8011  -4.9437  -4.9339   4.0264   4.3652
     6.1322   6.3305  15.9877  16.0039

     occupation numbers 
     1.0000   1.0000   1.0000   1.0000   1.0000   1.0000   1.0000   1.0000
     0.0000   0.0000   0.0000   0.0000

          k = 0.3000 0.5196 0.0949 (  2745 PWs)   bands (ev):

    -8.5003  -8.4747  -6.8159  -6.8034  -4.9425  -4.9353   4.0722   4.3184
     6.1579   6.3017  15.8402  15.8807

     occupation numbers 
     1.0000   1.0000   1.0000   1.0000   1.0000   1.0000   1.0000   1.0000
     0.0000   0.0000   0.0000   0.0000

          k = 0.3000 0.5196 0.1265 (  2752 PWs)   bands (ev):

    -8.4943  -8.4808  -6.8129  -6.8064  -4.9408  -4.9371   4.1301   4.2596
     6.1908   6.2663  15.7574  15.7855

     occupation numbers 
     1.0000   1.0000   1.0000   1.0000   1.0000   1.0000   1.0000   1.0000
     0.0000   0.0000   0.0000   0.0000

          k = 0.3000 0.5196-0.1581 (  2748 PWs)   bands (ev):

    -8.4875  -8.4875  -6.8096  -6.8096  -4.9390  -4.9390   4.1947   4.1947
     6.2281   6.2281  15.7405  15.7405

     occupation numbers 
     1.0000   1.0000   1.0000   1.0000   1.0000   1.0000   1.0000   1.0000
     0.0000   0.0000   0.0000   0.0000

     the Fermi energy is     5.1607 ev

!    total energy              =     -76.01215674 Ry
     total all-electron energy =      -307.068545 Ry
     estimated scf accuracy    <          4.9E-10 Ry
     smearing contrib. (-TS)   =      -0.00000000 Ry
     internal energy E=F+TS    =     -76.01215674 Ry

     The total energy is F=E-TS. E is the sum of the following terms:
     one-electron contribution =     -23.06837526 Ry
     hartree contribution      =      19.05596346 Ry
     xc contribution           =     -19.30661451 Ry
     ewald contribution        =     -26.51210324 Ry
     one-center paw contrib.   =     -26.18102719 Ry
      -> PAW hartree energy AE =       9.51488795 Ry
      -> PAW hartree energy PS =      -9.50611908 Ry
      -> PAW xc energy AE      =     -11.25035370 Ry
      -> PAW xc energy PS      =       4.69631319 Ry
      -> total E_H with PAW    =      19.06473233 Ry
      -> total E_XC with PAW   =     -25.86065501 Ry

     convergence has been achieved in   7 iterations


     -----------------------------------------------
     Non-local corr. energy    =       0.20036987 Ry
     -----------------------------------------------


     Forces acting on atoms (cartesian axes, Ry/au):

     atom    1 type  1   force =    -0.00000000   -0.00000000    0.00000000
     atom    2 type  1   force =     0.00000000    0.00000000    0.00000000
     atom    3 type  1   force =     0.00000000    0.00000000    0.00000000
     atom    4 type  1   force =     0.00000000    0.00000000    0.00000000
     The non-local contrib.  to forces
     atom    1 type  1   force =     0.00000000    0.00000000    0.00000000
     atom    2 type  1   force =    -0.00000000    0.00000000    0.00000000
     atom    3 type  1   force =     0.00000000    0.00000000    0.00000000
     atom    4 type  1   force =     0.00000000   -0.00000000    0.00000000
     The ionic contribution  to forces
     atom    1 type  1   force =    -0.00001082    0.00000632   -0.00000010
     atom    2 type  1   force =     0.00000733   -0.00000422    0.00000010
     atom    3 type  1   force =     0.00001083   -0.00000633   -0.00000010
     atom    4 type  1   force =    -0.00000733    0.00000422    0.00000010
     The local contribution  to forces
     atom    1 type  1   force =     0.00000000   -0.00000000    0.00000024
     atom    2 type  1   force =    -0.00000000    0.00000000    0.00000072
     atom    3 type  1   force =     0.00000788   -0.00000461    0.00000024
     atom    4 type  1   force =    -0.00000534    0.00000307    0.00000072
     The core correction contribution to forces
     atom    1 type  1   force =     0.00000000   -0.00000000   -0.00000000
     atom    2 type  1   force =    -0.00000000    0.00000000   -0.00000000
     atom    3 type  1   force =    -0.00000105    0.00000062   -0.00000000
     atom    4 type  1   force =     0.00000071   -0.00000041   -0.00000000
     The Hubbard contrib.    to forces
     atom    1 type  1   force =     0.00000000    0.00000000    0.00000000
     atom    2 type  1   force =     0.00000000    0.00000000    0.00000000
     atom    3 type  1   force =     0.00000000    0.00000000    0.00000000
     atom    4 type  1   force =     0.00000000    0.00000000    0.00000000
     The SCF correction term to forces
     atom    1 type  1   force =    -0.00000000    0.00000000   -0.00000000
     atom    2 type  1   force =     0.00000000   -0.00000000    0.00000000
     atom    3 type  1   force =     0.00000000   -0.00000000   -0.00000000
     atom    4 type  1   force =    -0.00000000    0.00000000    0.00000000

     Total force =     0.000000     Total SCF correction =     0.000000


     Computing stress (Cartesian axis) and pressure



     -----------------------------------------------
     Non-local corr. energy    =       0.20036987 Ry
     -----------------------------------------------

          total   stress  (Ry/bohr**3)                   (kbar)     P=       -8.80
  -0.00005795   0.00000000   0.00000000           -8.52        0.00        0.00
   0.00000000  -0.00005795   0.00000000            0.00       -8.52        0.00
   0.00000000   0.00000000  -0.00006350            0.00        0.00       -9.34

     kinetic stress (kbar)   9945.32     -0.00      0.00
                                0.00   9945.32      0.00
                                0.00      0.00  11309.92

     local   stress (kbar) -25958.16      0.01      0.00
                                0.01 -25958.14     -0.00
                                0.00     -0.00  25204.50

     nonloc. stress (kbar)   2541.78     -0.00      0.00
                               -0.00   2541.78      0.00
                                0.00      0.00   2319.15

     hartree stress (kbar)   9193.97     -0.00     -0.00
                               -0.00   9193.97     -0.00
                               -0.00     -0.00  -8290.17

     exc-cor stress (kbar)   -140.77     -0.00     -0.00
                               -0.00   -140.77      0.00
                               -0.00      0.00   -369.30

     corecor stress (kbar)  -2479.72      0.00     -0.00
                                0.00  -2479.72      0.00
                               -0.00      0.00  -2437.34

     ewald   stress (kbar)   6885.04     -0.02     -0.00
                               -0.02   6885.01      0.00
                               -0.00      0.00 -27818.82

     hubbard stress (kbar)      0.00      0.00      0.00
                                0.00      0.00      0.00
                                0.00      0.00      0.00

     DFT-D   stress (kbar)      0.00      0.00      0.00
                                0.00      0.00      0.00
                                0.00      0.00      0.00

     XDM     stress (kbar)      0.00      0.00      0.00
                                0.00      0.00      0.00
                                0.00      0.00      0.00

     dft-nl  stress (kbar)      4.03      0.00      0.00
                                0.00      4.03     -0.00
                                0.00     -0.00     72.70

     TS-vdW  stress (kbar)      0.00      0.00      0.00
                                0.00      0.00      0.00
                                0.00      0.00      0.00

     MDB     stress (kbar)      0.00      0.00      0.00
                                0.00      0.00      0.00
                                0.00      0.00      0.00

     3D-RISM stress (kbar)      0.00      0.00      0.00
                                0.00      0.00      0.00
                                0.00      0.00      0.00


     BFGS Geometry Optimization
     Energy error            =      0.0E+00 Ry
     Gradient error          =      2.1E-22 Ry/Bohr
     Cell gradient error     =      9.3E+00 kbar

     number of scf cycles    =   1
     number of bfgs steps    =   0

     enthalpy           new  =     -76.0121567365 Ry

     new trust radius        =       0.0052902207 bohr
     new conv_thr            =       0.0000000100 Ry

     new unit-cell volume =    276.36589 a.u.^3 (    40.95320 Ang^3 )
     density =      1.94805 g/cm^3

CELL_PARAMETERS (alat=  4.66250428)
   0.998551341   0.000000000   0.000000000
  -0.499275670   0.864770828   0.000000000
   0.000000000   0.000000000   3.157586699

ATOMIC_POSITIONS (angstrom)
C            -0.0000000000       -0.0000000000        1.9476713110
C             0.0000000000        0.0000000000        5.8430139331
C            -0.0000015647        1.4224284423        1.9476713110
C             1.2318594337        0.7112131543        5.8430139331



     Writing config-only to output data dir ./GaN.save/
     NEW-OLD atomic charge density approx. for the potential

     Check: negative core charge=   -0.000011


     -----------------------------------------------
     Non-local corr. energy    =       0.19955533 Ry
     -----------------------------------------------

     extrapolated charge   15.92803, renormalised to   16.00000

     total cpu time spent up to now is        2.8 secs

     Self-consistent Calculation

     iteration #  1     ecut=    70.00 Ry     beta= 0.70
     Davidson diagonalization with overlap

---- Real-time Memory Report at c_bands before calling an iterative solver
           145 MiB given to the printing process from OS
             0 MiB allocation reported by mallinfo(arena+hblkhd)
       1644339 MiB available memory on the node where the printing process lives
------------------
     ethr =  1.00E-06,  avg # of iterations =  4.8


     -----------------------------------------------
     Non-local corr. energy    =       0.20089027 Ry
     -----------------------------------------------


     total cpu time spent up to now is        3.1 secs

     total energy              =     -76.01183111 Ry
     estimated scf accuracy    <       0.00018697 Ry

     iteration #  2     ecut=    70.00 Ry     beta= 0.70
     Davidson diagonalization with overlap

---- Real-time Memory Report at c_bands before calling an iterative solver
           145 MiB given to the printing process from OS
             0 MiB allocation reported by mallinfo(arena+hblkhd)
       1644367 MiB available memory on the node where the printing process lives
------------------
     ethr =  1.17E-06,  avg # of iterations =  5.2


     -----------------------------------------------
     Non-local corr. energy    =       0.20049781 Ry
     -----------------------------------------------


     total cpu time spent up to now is        3.4 secs

     total energy              =     -76.01219791 Ry
     estimated scf accuracy    <       0.00019610 Ry

     iteration #  3     ecut=    70.00 Ry     beta= 0.70
     Davidson diagonalization with overlap

---- Real-time Memory Report at c_bands before calling an iterative solver
           145 MiB given to the printing process from OS
             0 MiB allocation reported by mallinfo(arena+hblkhd)
       1644356 MiB available memory on the node where the printing process lives
------------------
     ethr =  1.17E-06,  avg # of iterations =  3.3


     -----------------------------------------------
     Non-local corr. energy    =       0.20017457 Ry
     -----------------------------------------------


     total cpu time spent up to now is        3.6 secs

     total energy              =     -76.01218014 Ry
     estimated scf accuracy    <       0.00004238 Ry

     iteration #  4     ecut=    70.00 Ry     beta= 0.70
     Davidson diagonalization with overlap

---- Real-time Memory Report at c_bands before calling an iterative solver
           145 MiB given to the printing process from OS
             0 MiB allocation reported by mallinfo(arena+hblkhd)
       1644297 MiB available memory on the node where the printing process lives
------------------
     ethr =  2.65E-07,  avg # of iterations =  4.0


     -----------------------------------------------
     Non-local corr. energy    =       0.20014787 Ry
     -----------------------------------------------


     total cpu time spent up to now is        3.8 secs

     total energy              =     -76.01218875 Ry
     estimated scf accuracy    <       0.00000007 Ry

     iteration #  5     ecut=    70.00 Ry     beta= 0.70
     Davidson diagonalization with overlap

---- Real-time Memory Report at c_bands before calling an iterative solver
           145 MiB given to the printing process from OS
             0 MiB allocation reported by mallinfo(arena+hblkhd)
[...]

    -9.2532  -9.1736  -6.7756  -6.7140  -1.4721  -1.4463   2.9077   3.5013
     7.6072   8.0610  14.0865  14.2795

     occupation numbers 
     1.0000   1.0000   1.0000   1.0000   1.0000   1.0000   1.0000   1.0000
     0.0000   0.0000   0.0000   0.0000

          k = 0.1001 0.5201 0.0332 (  2622 PWs)   bands (ev):

    -9.2513  -9.1756  -6.7741  -6.7156  -1.4715  -1.4469   2.9220   3.4869
     7.6139   8.0459  14.0912  14.2746

     occupation numbers 
     1.0000   1.0000   1.0000   1.0000   1.0000   1.0000   1.0000   1.0000
     0.0000   0.0000   0.0000   0.0000

          k = 0.1001 0.5201 0.0663 (  2620 PWs)   bands (ev):

    -9.2457  -9.1813  -6.7698  -6.7201  -1.4697  -1.4487   2.9638   3.4448
     7.6347   8.0033  14.1048  14.2607

     occupation numbers 
     1.0000   1.0000   1.0000   1.0000   1.0000   1.0000   1.0000   1.0000
     0.0000   0.0000   0.0000   0.0000

          k = 0.1001 0.5201 0.0995 (  2618 PWs)   bands (ev):

    -9.2370  -9.1902  -6.7632  -6.7270  -1.4668  -1.4516   3.0291   3.3790
     7.6713   7.9400  14.1258  14.2390

     occupation numbers 
     1.0000   1.0000   1.0000   1.0000   1.0000   1.0000   1.0000   1.0000
     0.0000   0.0000   0.0000   0.0000

          k = 0.1001 0.5201 0.1326 (  2625 PWs)   bands (ev):

    -9.2260  -9.2014  -6.7547  -6.7357  -1.4632  -1.4552   3.1117   3.2959
     7.7241   7.8658  14.1523  14.2118

     occupation numbers 
     1.0000   1.0000   1.0000   1.0000   1.0000   1.0000   1.0000   1.0000
     0.0000   0.0000   0.0000   0.0000

          k = 0.1001 0.5201-0.1658 (  2624 PWs)   bands (ev):

    -9.2137  -9.2137  -6.7452  -6.7452  -1.4592  -1.4592   3.2037   3.2037
     7.7909   7.7909  14.1819  14.1819

     occupation numbers 
     1.0000   1.0000   1.0000   1.0000   1.0000   1.0000   1.0000   1.0000
     0.0000   0.0000   0.0000   0.0000

          k = 0.2002 0.3467-0.0000 (  2618 PWs)   bands (ev):

   -11.2084 -11.1080  -3.3829  -3.3596  -1.8070  -1.7896   0.9044   1.8334
    10.4857  10.7543  13.0104  16.5616

     occupation numbers 
     1.0000   1.0000   1.0000   1.0000   1.0000   1.0000   1.0000   1.0000
     0.0000   0.0000   0.0000   0.0000

          k = 0.2002 0.3467 0.0332 (  2606 PWs)   bands (ev):

   -11.2060 -11.1105  -3.3824  -3.3601  -1.8066  -1.7901   0.9247   1.8076
    10.4922  10.7476  13.0828  16.4706

     occupation numbers 
     1.0000   1.0000   1.0000   1.0000   1.0000   1.0000   1.0000   1.0000
     0.0000   0.0000   0.0000   0.0000

          k = 0.2002 0.3467 0.0663 (  2607 PWs)   bands (ev):

   -11.1990 -11.1178  -3.3807  -3.3618  -1.8054  -1.7914   0.9842   1.7340
    10.5112  10.7282  13.2948  16.1553

     occupation numbers 
     1.0000   1.0000   1.0000   1.0000   1.0000   1.0000   1.0000   1.0000
     0.0000   0.0000   0.0000   0.0000

          k = 0.2002 0.3467 0.0995 (  2615 PWs)   bands (ev):

   -11.1881 -11.1291  -3.3781  -3.3643  -1.8036  -1.7934   1.0786   1.6222
    10.5407  10.6982  13.6321  15.6836

     occupation numbers 
     1.0000   1.0000   1.0000   1.0000   1.0000   1.0000   1.0000   1.0000
     0.0000   0.0000   0.0000   0.0000

          k = 0.2002 0.3467 0.1326 (  2612 PWs)   bands (ev):

   -11.1742 -11.1432  -3.3748  -3.3676  -1.8013  -1.7959   1.2008   1.4861
    10.5780  10.6607  14.0725  15.1400

     occupation numbers 
     1.0000   1.0000   1.0000   1.0000   1.0000   1.0000   1.0000   1.0000
     0.0000   0.0000   0.0000   0.0000

          k = 0.2002 0.3467-0.1658 (  2616 PWs)   bands (ev):

   -11.1588 -11.1588  -3.3712  -3.3712  -1.7986  -1.7986   1.3408   1.3408
    10.6193  10.6193  14.5873  14.5873

     occupation numbers 
     1.0000   1.0000   1.0000   1.0000   1.0000   1.0000   1.0000   1.0000
     0.0000   0.0000   0.0000   0.0000

          k = 0.2002 0.4623-0.0000 (  2607 PWs)   bands (ev):

    -9.6564  -9.5696  -5.3786  -5.3310  -2.8895  -2.8571   2.6390   3.4065
     8.2511   8.6023  15.0266  16.5515

     occupation numbers 
     1.0000   1.0000   1.0000   1.0000   1.0000   1.0000   1.0000   1.0000
     0.0000   0.0000   0.0000   0.0000

          k = 0.2002 0.4623 0.0332 (  2603 PWs)   bands (ev):

    -9.6543  -9.5717  -5.3775  -5.3322  -2.8887  -2.8580   2.6563   3.3860
     8.2589   8.5931  15.0787  16.5485

     occupation numbers 
     1.0000   1.0000   1.0000   1.0000   1.0000   1.0000   1.0000   1.0000
     0.0000   0.0000   0.0000   0.0000

          k = 0.2002 0.4623 0.0663 (  2616 PWs)   bands (ev):

    -9.6482  -9.5780  -5.3741  -5.3356  -2.8865  -2.8603   2.7069   3.3270
     8.2818   8.5664  15.2286  16.5320

     occupation numbers 
     1.0000   1.0000   1.0000   1.0000   1.0000   1.0000   1.0000   1.0000
     0.0000   0.0000   0.0000   0.0000

          k = 0.2002 0.4623 0.0995 (  2618 PWs)   bands (ev):

    -9.6388  -9.5877  -5.3689  -5.3409  -2.8830  -2.8640   2.7867   3.2368
     8.3183   8.5253  15.4573  16.4677

     occupation numbers 
     1.0000   1.0000   1.0000   1.0000   1.0000   1.0000   1.0000   1.0000
     0.0000   0.0000   0.0000   0.0000

          k = 0.2002 0.4623 0.1326 (  2616 PWs)   bands (ev):

    -9.6268  -9.6000  -5.3623  -5.3476  -2.8785  -2.8685   2.8894   3.1258
     8.3655   8.4744  15.7363  16.2948

     occupation numbers 
     1.0000   1.0000   1.0000   1.0000   1.0000   1.0000   1.0000   1.0000
     0.0000   0.0000   0.0000   0.0000

          k = 0.2002 0.4623-0.1658 (  2614 PWs)   bands (ev):

    -9.6134  -9.6134  -5.3549  -5.3549  -2.8735  -2.8735   3.0060   3.0060
     8.4192   8.4193  16.0303  16.0303

     occupation numbers 
     1.0000   1.0000   1.0000   1.0000   1.0000   1.0000   1.0000   1.0000
     0.0000   0.0000   0.0000   0.0000

          k = 0.2002 0.5779-0.0000 (  2616 PWs)   bands (ev):

    -8.1609  -8.1199  -7.0704  -7.0442  -3.2022  -3.1648   4.0069   4.3671
     7.0036   7.1228  16.3837  16.7547

     occupation numbers 
     1.0000   1.0000   1.0000   1.0000   1.0000   1.0000   1.0000   1.0000
     0.0000   0.0000   0.0000   0.0000

          k = 0.2002 0.5779 0.0332 (  2619 PWs)   bands (ev):

    -8.1599  -8.1208  -7.0699  -7.0449  -3.2013  -3.1657   4.0172   4.3603
     7.0020   7.1163  16.3887  16.7319

     occupation numbers 
     1.0000   1.0000   1.0000   1.0000   1.0000   1.0000   1.0000   1.0000
     0.0000   0.0000   0.0000   0.0000

          k = 0.2002 0.5779 0.0663 (  2612 PWs)   bands (ev):

    -8.1568  -8.1236  -7.0683  -7.0471  -3.1987  -3.1684   4.0469   4.3400
     6.9989   7.0982  16.3997  16.6646

     occupation numbers 
     1.0000   1.0000   1.0000   1.0000   1.0000   1.0000   1.0000   1.0000
     0.0000   0.0000   0.0000   0.0000

          k = 0.2002 0.5779 0.0995 (  2608 PWs)   bands (ev):

    -8.1521  -8.1279  -7.0658  -7.0503  -3.1946  -3.1726   4.0921   4.3063
     6.9986   7.0726  16.4099  16.5728

     occupation numbers 
     1.0000   1.0000   1.0000   1.0000   1.0000   1.0000   1.0000   1.0000
     0.0000   0.0000   0.0000   0.0000

          k = 0.2002 0.5779 0.1326 (  2613 PWs)   bands (ev):

    -8.1462  -8.1335  -7.0624  -7.0543  -3.1894  -3.1779   4.1473   4.2603
     7.0052   7.0449  16.4207  16.4933

     occupation numbers 
     1.0000   1.0000   1.0000   1.0000   1.0000   1.0000   1.0000   1.0000
     0.0000   0.0000   0.0000   0.0000

          k = 0.2002 0.5779-0.1658 (  2612 PWs)   bands (ev):

    -8.1398  -8.1398  -7.0585  -7.0585  -3.1837  -3.1837   4.2056   4.2056
     7.0211   7.0211  16.4438  16.4438

     occupation numbers 
     1.0000   1.0000   1.0000   1.0000   1.0000   1.0000   1.0000   1.0000
     0.0000   0.0000   0.0000   0.0000

          k = 0.3003 0.5201-0.0000 (  2630 PWs)   bands (ev):

    -8.0331  -7.9653  -6.3348  -6.3014  -4.4669  -4.4478   4.4076   4.9654
     6.5636   6.9009  16.8437  17.0849

     occupation numbers 
     1.0000   1.0000   1.0000   1.0000   1.0000   1.0000   1.0000   1.0000
     0.0000   0.0000   0.0000   0.0000

          k = 0.3003 0.5201 0.0332 (  2629 PWs)   bands (ev):

    -8.0315  -7.9670  -6.3340  -6.3022  -4.4665  -4.4483   4.4210   4.9518
     6.5711   6.8915  16.7771  16.8152

     occupation numbers 
     1.0000   1.0000   1.0000   1.0000   1.0000   1.0000   1.0000   1.0000
     0.0000   0.0000   0.0000   0.0000

          k = 0.3003 0.5201 0.0663 (  2619 PWs)   bands (ev):

    -8.0267  -7.9719  -6.3316  -6.3046  -4.4653  -4.4498   4.4602   4.9121
     6.5932   6.8648  16.5737  16.6256

     occupation numbers 
     1.0000   1.0000   1.0000   1.0000   1.0000   1.0000   1.0000   1.0000
     0.0000   0.0000   0.0000   0.0000

          k = 0.3003 0.5201 0.0995 (  2613 PWs)   bands (ev):

    -8.0193  -7.9794  -6.3279  -6.3082  -4.4634  -4.4521   4.5214   4.8501
     6.6280   6.8245  16.3996  16.4652

     occupation numbers 
     1.0000   1.0000   1.0000   1.0000   1.0000   1.0000   1.0000   1.0000
     0.0000   0.0000   0.0000   0.0000

          k = 0.3003 0.5201 0.1326 (  2611 PWs)   bands (ev):

    -8.0099  -7.9889  -6.3232  -6.3129  -4.4608  -4.4549   4.5989   4.7719
     6.6726   6.7755  16.3026  16.3434

     occupation numbers 
     1.0000   1.0000   1.0000   1.0000   1.0000   1.0000   1.0000   1.0000
     0.0000   0.0000   0.0000   0.0000

          k = 0.3003 0.5201-0.1658 (  2612 PWs)   bands (ev):

    -7.9994  -7.9994  -6.3180  -6.3180  -4.4580  -4.4579   4.6853   4.6853
     6.7232   6.7232  16.2852  16.2852

     occupation numbers 
     1.0000   1.0000   1.0000   1.0000   1.0000   1.0000   1.0000   1.0000
     0.0000   0.0000   0.0000   0.0000

     the Fermi energy is     5.7679 ev

!    total energy              =     -76.01259670 Ry
     total all-electron energy =      -307.068985 Ry
     estimated scf accuracy    <          3.2E-11 Ry
     smearing contrib. (-TS)   =      -0.00000000 Ry
     internal energy E=F+TS    =     -76.01259670 Ry

     The total energy is F=E-TS. E is the sum of the following terms:
     one-electron contribution =     -18.78583634 Ry
     hartree contribution      =      17.21039131 Ry
     xc contribution           =     -19.32007985 Ry
     ewald contribution        =     -28.93576919 Ry
     one-center paw contrib.   =     -26.18130263 Ry
      -> PAW hartree energy AE =       9.54085037 Ry
      -> PAW hartree energy PS =      -9.53206731 Ry
      -> PAW xc energy AE      =     -11.25676878 Ry
      -> PAW xc energy PS      =       4.70263346 Ry
      -> total E_H with PAW    =      17.21917437 Ry
      -> total E_XC with PAW   =     -25.87421516 Ry

     convergence has been achieved in   8 iterations


     -----------------------------------------------
     Non-local corr. energy    =       0.19727672 Ry
     -----------------------------------------------


     Forces acting on atoms (cartesian axes, Ry/au):

     atom    1 type  1   force =    -0.00000000   -0.00000000    0.00000000
     atom    2 type  1   force =     0.00000000    0.00000000   -0.00000000
     atom    3 type  1   force =    -0.00000000   -0.00000000    0.00000000
     atom    4 type  1   force =     0.00000000    0.00000000   -0.00000000
     The non-local contrib.  to forces
     atom    1 type  1   force =     0.00000000    0.00000000   -0.00000000
     atom    2 type  1   force =    -0.00000000   -0.00000000    0.00000000
     atom    3 type  1   force =    -0.00000000   -0.00000000    0.00000000
     atom    4 type  1   force =     0.00000000    0.00000000   -0.00000000
     The ionic contribution  to forces
     atom    1 type  1   force =    -0.00001084    0.00000633   -0.00000010
     atom    2 type  1   force =     0.00000734   -0.00000422    0.00000010
     atom    3 type  1   force =     0.00001085   -0.00000634   -0.00000010
     atom    4 type  1   force =    -0.00000735    0.00000423    0.00000010
     The local contribution  to forces
     atom    1 type  1   force =    -0.00000000   -0.00000000    0.00000022
     atom    2 type  1   force =     0.00000000    0.00000000    0.00000067
     atom    3 type  1   force =     0.00000787   -0.00000460    0.00000022
     atom    4 type  1   force =    -0.00000533    0.00000307    0.00000067
     The core correction contribution to forces
     atom    1 type  1   force =     0.00000000   -0.00000000   -0.00000000
     atom    2 type  1   force =    -0.00000000    0.00000000   -0.00000000
     atom    3 type  1   force =    -0.00000105    0.00000061   -0.00000000
     atom    4 type  1   force =     0.00000071   -0.00000041   -0.00000000
     The Hubbard contrib.    to forces
     atom    1 type  1   force =     0.00000000    0.00000000    0.00000000
     atom    2 type  1   force =     0.00000000    0.00000000    0.00000000
     atom    3 type  1   force =     0.00000000    0.00000000    0.00000000
     atom    4 type  1   force =     0.00000000    0.00000000    0.00000000
     The SCF correction term to forces
     atom    1 type  1   force =    -0.00000000    0.00000000   -0.00000000
     atom    2 type  1   force =     0.00000000   -0.00000000    0.00000000
     atom    3 type  1   force =     0.00000000   -0.00000000   -0.00000000
     atom    4 type  1   force =    -0.00000000    0.00000000    0.00000000

     Total force =     0.000000     Total SCF correction =     0.000000


     Computing stress (Cartesian axis) and pressure



     -----------------------------------------------
     Non-local corr. energy    =       0.19727672 Ry
     -----------------------------------------------

          total   stress  (Ry/bohr**3)                   (kbar)     P=       -0.09
  -0.00000065  -0.00000000   0.00000000           -0.10       -0.00        0.00
  -0.00000000  -0.00000065   0.00000000           -0.00       -0.10        0.00
   0.00000000   0.00000000  -0.00000056            0.00        0.00       -0.08

     kinetic stress (kbar)  10460.30      0.00     -0.00
                                0.00  10460.30     -0.00
                               -0.00     -0.00  11899.74

     local   stress (kbar) -24919.63      0.01      0.00
                                0.01 -24919.61     -0.00
                                0.00     -0.00  24142.33

     nonloc. stress (kbar)   2671.24      0.00     -0.00
                                0.00   2671.24      0.00
                                0.00     -0.00   2436.94

     hartree stress (kbar)   8633.96     -0.00     -0.00
                               -0.00   8633.96      0.00
                               -0.00      0.00  -7686.32

     exc-cor stress (kbar)   -149.49     -0.00     -0.00
                               -0.00   -149.49      0.00
                               -0.00      0.00   -388.66

     corecor stress (kbar)  -2605.51      0.00     -0.00
                                0.00  -2605.51      0.00
                               -0.00      0.00  -2559.55

     ewald   stress (kbar)   5904.63     -0.02     -0.00
                               -0.02   5904.60      0.00
                               -0.00      0.00 -27918.73

     hubbard stress (kbar)      0.00      0.00      0.00
                                0.00      0.00      0.00
                                0.00      0.00      0.00

     DFT-D   stress (kbar)      0.00      0.00      0.00
                                0.00      0.00      0.00
                                0.00      0.00      0.00

     XDM     stress (kbar)      0.00      0.00      0.00
                                0.00      0.00      0.00
                                0.00      0.00      0.00

     dft-nl  stress (kbar)      4.42      0.00      0.00
                                0.00      4.42     -0.00
                                0.00     -0.00     74.17

     TS-vdW  stress (kbar)      0.00      0.00      0.00
                                0.00      0.00      0.00
                                0.00      0.00      0.00

     MDB     stress (kbar)      0.00      0.00      0.00
                                0.00      0.00      0.00
                                0.00      0.00      0.00

     3D-RISM stress (kbar)      0.00      0.00      0.00
                                0.00      0.00      0.00
                                0.00      0.00      0.00


     Writing all to output data dir ./GaN.save/
 
     init_run     :      0.49s CPU      0.54s WALL (       2 calls)
     electrons    :     22.95s CPU     24.35s WALL (      10 calls)
     update_pot   :      0.41s CPU      0.44s WALL (       8 calls)
     forces       :      0.52s CPU      0.58s WALL (      10 calls)
     stress       :      0.67s CPU      0.76s WALL (      10 calls)

     Called by init_run:
     wfcinit      :      0.11s CPU      0.12s WALL (       2 calls)
     wfcinit:atom :      0.00s CPU      0.00s WALL (      42 calls)
     wfcinit:wfcr :      0.10s CPU      0.11s WALL (      42 calls)
     potinit      :      0.32s CPU      0.34s WALL (       2 calls)
     hinit0       :      0.04s CPU      0.04s WALL (       2 calls)

     Called by electrons:
     c_bands      :     18.40s CPU     19.09s WALL (      92 calls)
     sum_band     :      1.87s CPU      1.94s WALL (      92 calls)
     v_of_rho     :      1.51s CPU      1.65s WALL (     102 calls)
     v_h          :      0.02s CPU      0.02s WALL (     102 calls)
     v_xc         :      1.73s CPU      1.89s WALL (     122 calls)
     newd         :      0.05s CPU      0.06s WALL (     102 calls)
     PAW_pot      :      1.43s CPU      1.52s WALL (     110 calls)
     mix_rho      :      0.06s CPU      0.06s WALL (      92 calls)
     vdW_kernel   :      0.25s CPU      0.26s WALL (       1 calls)

     Called by c_bands:
     init_us_2    :      0.11s CPU      0.11s WALL (    4494 calls)
     init_us_2:cp :      0.10s CPU      0.10s WALL (    4494 calls)
     cegterg      :     13.22s CPU     13.76s WALL (    1932 calls)

     Called by sum_band:
     sum_band:wei :      0.02s CPU      0.02s WALL (      92 calls)
     sum_band:loo :      1.56s CPU      1.62s WALL (      92 calls)
     sum_band:buf :      0.01s CPU      0.01s WALL (    1932 calls)
     sum_band:ini :      0.04s CPU      0.04s WALL (    1932 calls)
     sum_band:cal :      0.16s CPU      0.17s WALL (    2100 calls)
     sum_band:bec :      0.02s CPU      0.02s WALL (    2100 calls)
     addusdens    :      0.07s CPU      0.08s WALL (      92 calls)
     addusd:skk   :      0.00s CPU      0.00s WALL (      92 calls)
     addusd:dgemm :      0.00s CPU      0.00s WALL (      92 calls)
     addusd:qvan2 :      0.01s CPU      0.01s WALL (      92 calls)

     Called by *egterg:
     cdiaghg      :      2.59s CPU      2.69s WALL (    9386 calls)
     cegterg:over :      0.72s CPU      0.76s WALL (    7622 calls)
     cegterg:upda :      0.14s CPU      0.15s WALL (    7622 calls)
     cegterg:last :      0.05s CPU      0.05s WALL (    2107 calls)
     h_psi        :      9.02s CPU      9.40s WALL (    9596 calls)
     s_psi        :      0.12s CPU      0.12s WALL (    9596 calls)
     g_psi        :      0.02s CPU      0.02s WALL (    7622 calls)

     Called by h_psi:
     h_psi:calbec :      0.60s CPU      0.63s WALL (    9596 calls)
     vloc_psi     :      8.21s CPU      8.55s WALL (    9596 calls)
     add_vuspsi   :      0.15s CPU      0.15s WALL (    9596 calls)

     General routines
     calbec       :      0.81s CPU      0.85s WALL (   12746 calls)
     fft          :      0.92s CPU      0.94s WALL (    8104 calls)
     ffts         :      0.03s CPU      0.03s WALL (     194 calls)
     fftw         :      9.03s CPU      9.41s WALL (  163468 calls)
     interpolate  :      0.03s CPU      0.03s WALL (     102 calls)
 
     Parallel routines

     PAW routines
     PAW_pot      :      1.43s CPU      1.52s WALL (     110 calls)
     PAW_symme    :      0.03s CPU      0.03s WALL (     202 calls)
 
     PWSCF        :     25.59s CPU     28.52s WALL

 
   This run was terminated on:  22:17: 5   2Oct2023            

=------------------------------------------------------------------------------=
   JOB DONE.
=------------------------------------------------------------------------------=
