
     Program PWSCF v.7.1 starts on 27Mar2024 at 22:35:47 

     This program is part of the open-source Quantum ESPRESSO suite
     for quantum simulation of materials; please cite
         "P. Giannozzi et al., J. Phys.:Condens. Matter 21 395502 (2009);
         "P. Giannozzi et al., J. Phys.:Condens. Matter 29 465901 (2017);
         "P. Giannozzi et al., J. Chem. Phys. 152 154105 (2020);
          URL http://www.quantum-espresso.org", 
     in publications or presentations arising from this work. More details at
     http://www.quantum-espresso.org/quote

     Parallel version (MPI & OpenMP), running on      20 processor cores
     Number of MPI processes:                20
     Threads/MPI process:                     1

     MPI processes distributed on     1 nodes
     1983781 MiB available memory on the printing compute node when the environment starts
 
     Reading input from espresso.pwi
Warning: card &CELL ignored
Warning: card    CELL_DYNAMICS    = 'BFGS' ignored
Warning: card / ignored

     Current dimensions of program PWSCF are:
     Max number of different atomic species (ntypx) = 10
     Max number of k-points (npk) =  40000
     Max angular momentum in pseudopotentials (lmaxx) =  4
     file Pb.pbe-dn-kjpaw_psl.1.0.0.UPF: wavefunction(s)  6S 6P 5D renormalized
     file I.pbe-dn-kjpaw_psl.1.0.0.UPF: wavefunction(s)  5S 5P renormalized

     **************************************************************************
     Initializing libbeef V0.1.2 with the BEEF-vdW functional.
     Citation: Wellendorff et al., PRB 85, 235149 (2012).
     **************************************************************************


     IMPORTANT: XC functional enforced from input :
     Exchange-correlation= BEEF-VDW
                           (   1   4  43  14   2   0   0)
     Any further DFT definition will be discarded
     Please, verify this is what you really want

 
     R & G space division:  proc/nbgrp/npool/nimage =      20
     Subspace diagonalization in iterative solution of the eigenvalue problem:
     a serial algorithm will be used

 
     Parallelization info
     --------------------
     sticks:   dense  smooth     PW     G-vecs:    dense   smooth      PW
     Min         381     306     80                42326    30292    4074
     Max         383     307     81                42331    30298    4079
     Sum        7639    6121   1615               846533   605897   81527
 
     Using Slab Decomposition
 


     bravais-lattice index     =            4
     lattice parameter (alat)  =      17.8060  a.u.
     unit-cell volume          =    7656.2263 (a.u.)^3
     number of atoms/cell      =           23
     number of atomic types    =            2
     number of electrons       =       371.00
     number of Kohn-Sham states=          223
     kinetic-energy cutoff     =      70.0000  Ry
     charge density cutoff     =     350.0000  Ry
     scf convergence threshold =      1.0E-07
     mixing beta               =       0.7000
     number of iterations used =            8  plain     mixing
     energy convergence thresh.=      1.0E-04
     force convergence thresh. =      1.0E-03
     Exchange-correlation= BEEF-VDW
                           (   1   4  43  14   2   0   0)
     nstep                     =           50


     celldm(1)=  17.806016  celldm(2)=   0.000000  celldm(3)=   1.565971
     celldm(4)=   0.000000  celldm(5)=   0.000000  celldm(6)=   0.000000

     crystal axes: (cart. coord. in units of alat)
               a(1) = (   1.000000   0.000000   0.000000 )  
               a(2) = (  -0.500000   0.866025   0.000000 )  
               a(3) = (   0.000000   0.000000   1.565971 )  

     reciprocal axes: (cart. coord. in units 2 pi/alat)
               b(1) = (  1.000000  0.577350 -0.000000 )  
               b(2) = (  0.000000  1.154701  0.000000 )  
               b(3) = (  0.000000 -0.000000  0.638581 )  


     PseudoPot. # 1 for Pb read from file:
     /trace/group/acmegroup/atimmins/packages/espresso/pseudo/psl_1.0.0/pslibrary.1.0.0/pbe/PSEUDOPOTENTIALS/Pb.pbe-dn-kjpaw_psl.1.0.0.UPF
     MD5 check sum: 39ab5b8a6bbd56b7735ad9f188aac93a
     Pseudo is Projector augmented-wave + core cor, Zval = 14.0
     Generated using 'atomic' code by A. Dal Corso  v.7.1
     Shape of augmentation charge: PSQ
     Using radial grid of 1281 points,  6 beta functions with: 
                l(1) =   0
                l(2) =   0
                l(3) =   1
                l(4) =   1
                l(5) =   2
                l(6) =   2
     Q(r) pseudized with 0 coefficients 


     PseudoPot. # 2 for I  read from file:
     /trace/group/acmegroup/atimmins/packages/espresso/pseudo/psl_1.0.0/pslibrary.1.0.0/pbe/PSEUDOPOTENTIALS/I.pbe-dn-kjpaw_psl.1.0.0.UPF
     MD5 check sum: bfa8781bc1224d19af3f3980e3fab11e
     Pseudo is Projector augmented-wave + core cor, Zval = 17.0
     Generated using 'atomic' code by A. Dal Corso  v.7.1
     Shape of augmentation charge: PSQ
     Using radial grid of 1247 points,  6 beta functions with: 
                l(1) =   0
                l(2) =   0
                l(3) =   1
                l(4) =   1
                l(5) =   2
                l(6) =   2
     Q(r) pseudized with 0 coefficients 


     atomic species   valence    mass     pseudopotential
        Pb            14.00   207.20000     Pb( 1.00)
        I             17.00   126.90447     I ( 1.00)

     No symmetry found


                                    s                        frac. trans.

      isym =  1     identity                                     

 cryst.   s( 1) = (     1          0          0      )
                  (     0          1          0      )
                  (     0          0          1      )

 cart.    s( 1) = (  1.0000000  0.0000000  0.0000000 )
                  (  0.0000000  1.0000000  0.0000000 )
                  (  0.0000000  0.0000000  1.0000000 )


     point group C_1 (1)    
     there are  1 classes
     the character table:

       E    
A      1.00

     the symmetry operations in each class and the name of the first element:

     E        1
          identity                                               

   Cartesian axes

     site n.     atom                  positions (alat units)
         1           Pb  tau(   1) = (   0.2500068   0.4329836   0.7829793  )
         2           Pb  tau(   2) = (   0.0000153   0.8659852   1.5659567  )
         3           Pb  tau(   3) = (   0.0000051   0.8659943   0.7829710  )
         4           Pb  tau(   4) = (   0.7500170   0.4329726   1.5659715  )
         5           Pb  tau(   5) = (   0.7500068   0.4329816   0.7829858  )
         6           Pb  tau(   6) = (   0.5000153   0.8659833   1.5659633  )
         7           Pb  tau(   7) = (   0.5000051   0.8659923   0.7829776  )
         8           I   tau(   8) = (   0.2500107   0.1443099   0.5818649  )
         9           I   tau(   9) = (   0.2500209   0.1443009   1.3648506  )
        10           I   tau(  10) = (   0.0000091   0.5773207   0.5818567  )
        11           I   tau(  11) = (   0.0000193   0.5773116   1.3648424  )
        12           I   tau(  12) = (   0.7500107   0.1443080   0.5818714  )
        13           I   tau(  13) = (   0.7500209   0.1442990   1.3648571  )
        14           I   tau(  14) = (   0.5000091   0.5773187   0.5818632  )
        15           I   tau(  15) = (   0.5000193   0.5773097   1.3648489  )
        16           I   tau(  16) = (  -0.0000034   0.2886595   0.2011110  )
        17           I   tau(  17) = (   0.0000068   0.2886504   0.9840967  )
        18           I   tau(  18) = (  -0.2500051   0.7216702   0.2011027  )
        19           I   tau(  19) = (  -0.2499949   0.7216611   0.9840884  )
        20           I   tau(  20) = (   0.4999966   0.2886575   0.2011175  )
        21           I   tau(  21) = (   0.5000068   0.2886485   0.9841032  )
        22           I   tau(  22) = (   0.2499949   0.7216682   0.2011092  )
        23           I   tau(  23) = (   0.2500051   0.7216592   0.9840949  )

   Crystallographic axes

     site n.     atom                  positions (cryst. coord.)
         1           Pb  tau(   1) = (  0.4999900  0.4999663  0.4999959  )
         2           Pb  tau(   2) = (  0.4999921  0.9999536  0.9999906  )
         3           Pb  tau(   3) = (  0.4999871  0.9999640  0.4999906  )
         4           Pb  tau(   4) = (  0.9999938  0.4999537  1.0000001  )
         5           Pb  tau(   5) = (  0.9999888  0.4999641  0.5000001  )
         6           Pb  tau(   6) = (  0.9999910  0.9999514  0.9999948  )
         7           Pb  tau(   7) = (  0.9999860  0.9999618  0.4999948  )
         8           I   tau(   8) = (  0.3333281  0.1666348  0.3715680  )
         9           I   tau(   9) = (  0.3333331  0.1666243  0.8715680  )
        10           I   tau(  10) = (  0.3333253  0.6666325  0.3715628  )
        11           I   tau(  11) = (  0.3333303  0.6666220  0.8715628  )
        12           I   tau(  12) = (  0.8333270  0.1666326  0.3715722  )
        13           I   tau(  13) = (  0.8333320  0.1666221  0.8715722  )
        14           I   tau(  14) = (  0.8333242  0.6666303  0.3715669  )
        15           I   tau(  15) = (  0.8333292  0.6666198  0.8715669  )
        16           I   tau(  16) = (  0.1666542  0.3333152  0.1284257  )
        17           I   tau(  17) = (  0.1666592  0.3333048  0.6284257  )
        18           I   tau(  18) = (  0.1666514  0.8333129  0.1284204  )
        19           I   tau(  19) = (  0.1666564  0.8333025  0.6284204  )
        20           I   tau(  20) = (  0.6666531  0.3333130  0.1284299  )
        21           I   tau(  21) = (  0.6666581  0.3333026  0.6284299  )
        22           I   tau(  22) = (  0.6666503  0.8333107  0.1284246  )
        23           I   tau(  23) = (  0.6666553  0.8333003  0.6284246  )

     number of k points=     4  Gaussian smearing, width (Ry)=  0.0100
                       cart. coord. in units 2pi/alat
        k(    1) = (   0.0000000   0.0000000   0.0000000), wk =   0.5000000
        k(    2) = (   0.0000000  -0.5773503   0.0000000), wk =   0.5000000
        k(    3) = (   0.5000000  -0.2886751   0.0000000), wk =   0.5000000
        k(    4) = (  -0.5000000  -0.2886751   0.0000000), wk =   0.5000000

                       cryst. coord.
        k(    1) = (   0.0000000   0.0000000   0.0000000), wk =   0.5000000
        k(    2) = (   0.0000000  -0.5000000   0.0000000), wk =   0.5000000
        k(    3) = (   0.5000000  -0.5000000   0.0000000), wk =   0.5000000
        k(    4) = (  -0.5000000  -0.0000000   0.0000000), wk =   0.5000000

     Dense  grid:   846533 G-vectors     FFT dimensions: ( 108, 108, 180)

     Smooth grid:   605897 G-vectors     FFT dimensions: (  96,  96, 150)

     Dynamical RAM for                 wfc:      12.88 MB

     Dynamical RAM for     wfc (w. buffer):      64.41 MB

     Dynamical RAM for           str. fact:       1.29 MB

     Dynamical RAM for           local pot:       0.00 MB

     Dynamical RAM for          nlocal pot:      23.92 MB

     Dynamical RAM for                qrad:       3.00 MB

     Dynamical RAM for          rho,v,vnew:       4.34 MB

     Dynamical RAM for               rhoin:       1.45 MB

     Dynamical RAM for            rho*nmix:      10.33 MB

     Dynamical RAM for           G-vectors:       2.65 MB

     Dynamical RAM for          h,s,v(r/c):      36.42 MB

     Dynamical RAM for          <psi|beta>:       1.41 MB

     Dynamical RAM for                 psi:      51.53 MB

     Dynamical RAM for                hpsi:      51.53 MB

     Dynamical RAM for                spsi:      51.53 MB

     Dynamical RAM for      wfcinit/wfcrot:      26.91 MB

     Dynamical RAM for           addusdens:     130.48 MB

     Dynamical RAM for          addusforce:     150.24 MB

     Dynamical RAM for         addusstress:     129.83 MB

     Estimated static dynamical RAM per process >     107.01 MB

     Estimated max dynamical RAM per process >     309.77 MB

     Estimated total dynamical RAM >       6.05 GB

     Check: negative core charge=   -0.000002

     Initial potential from superposition of free atoms

     starting charge     369.9823, renormalised to     371.0000


     %%%%%%%%%%%%%%%%%%%%%%%%%%%%%%%%%%%%%%%%%%%%%%%%%%%%%%%%%%%%%%%%%%%%%%%%
     %                                                                      %
     % You are using vdW-DF, which was implemented by the Thonhauser group. %
     % Please cite the following two papers that made this development      %
     % possible and the two reviews that describe the various versions:     %
     %                                                                      %
     %   T. Thonhauser et al., PRL 115, 136402 (2015).                      %
     %   T. Thonhauser et al., PRB 76, 125112 (2007).                       %
     %   K. Berland et al., Rep. Prog. Phys. 78, 066501 (2015).             %
     %   D.C. Langreth et al., J. Phys.: Condens. Matter 21, 084203 (2009). %
     %                                                                      %
     % If you are calculating stress with vdW-DF, please also cite:         %
     %                                                                      %
     %   R. Sabatini et al., J. Phys.: Condens. Matter 24, 424209 (2012).   %
     %                                                                      %
     %%%%%%%%%%%%%%%%%%%%%%%%%%%%%%%%%%%%%%%%%%%%%%%%%%%%%%%%%%%%%%%%%%%%%%%%

     %%%%%%%%%%%%%%%%%%%%%%%%%%%%%%%%%%%%%%%%%%%%%%%%%%%%%%%%%%%%%%%%%%%%%%%%
     %                                                                      %
     %  vdW-DF NEWS:                                                        %
     %                                                                      %
     %  * vdW-DF3 is now available. DOI: 10.1021/acs.jctc.0c00471           %
     %    use with input_dft = 'vdW-DF3-opt1' or 'vdW-DF3-opt2'             %
     %                                                                      %
     %  * Unscreened and range-separated vdW-DF hybrid functionals          %
     %    DOI: 10.1063/1.4986522 and 10.1088/1361-648X/ac2ad2               %
     %    use with input_dft = 'vdW-DF-cx0' (etc) and 'vdW-DF-ahcx'         %
     %                                                                      %
     %%%%%%%%%%%%%%%%%%%%%%%%%%%%%%%%%%%%%%%%%%%%%%%%%%%%%%%%%%%%%%%%%%%%%%%%


     Carrying out vdW-DF run using the following parameters:
     Nqs    =  20  Npoints =  1024  r_max =  100.000
     q_mesh =  0.00001000  0.04494208  0.09755937  0.15916263
               0.23128650  0.31572767  0.41458969  0.53033537
               0.66584808  0.82450364  1.01025438  1.22772762
               1.48234092  1.78043706  2.12944203  2.53805004
               3.01644009  3.57652955  4.23227104  5.00000000


     -----------------------------------------------
     Non-local corr. energy    =      11.23974601 Ry
     -----------------------------------------------

     Starting wfcs are  207 randomized atomic wfcs +   16 random wfcs
     Checking if some PAW data can be deallocated... 
       PAW data deallocated on   16 nodes for type:  1
       PAW data deallocated on    4 nodes for type:  2

     total cpu time spent up to now is        9.1 secs

     Self-consistent Calculation

     iteration #  1     ecut=    70.00 Ry     beta= 0.70
     Davidson diagonalization with overlap

---- Real-time Memory Report at c_bands before calling an iterative solver
           349 MiB given to the printing process from OS
             0 MiB allocation reported by mallinfo(arena+hblkhd)
       1982283 MiB available memory on the node where the printing process lives
------------------
     ethr =  1.00E-02,  avg # of iterations =  7.0

     Threshold (ethr) on eigenvalues was too large:
     Diagonalizing with lowered threshold

     Davidson diagonalization with overlap

---- Real-time Memory Report at c_bands before calling an iterative solver
           449 MiB given to the printing process from OS
             0 MiB allocation reported by mallinfo(arena+hblkhd)
       1981253 MiB available memory on the node where the printing process lives
------------------
     ethr =  2.46E-04,  avg # of iterations = 11.5


     -----------------------------------------------
     Non-local corr. energy    =      11.27491660 Ry
     -----------------------------------------------


     total cpu time spent up to now is       61.3 secs

     total energy              =  -15291.81482099 Ry
     estimated scf accuracy    <       0.86704814 Ry

     iteration #  2     ecut=    70.00 Ry     beta= 0.70
     Davidson diagonalization with overlap

---- Real-time Memory Report at c_bands before calling an iterative solver
           461 MiB given to the printing process from OS
             0 MiB allocation reported by mallinfo(arena+hblkhd)
       1980467 MiB available memory on the node where the printing process lives
------------------
     ethr =  2.34E-04,  avg # of iterations = 15.8


     -----------------------------------------------
     Non-local corr. energy    =      11.25362166 Ry
     -----------------------------------------------


     total cpu time spent up to now is      102.9 secs

     total energy              =  -15290.46920968 Ry
     estimated scf accuracy    <       8.53140926 Ry

     iteration #  3     ecut=    70.00 Ry     beta= 0.70
     Davidson diagonalization with overlap

---- Real-time Memory Report at c_bands before calling an iterative solver
           470 MiB given to the printing process from OS
             0 MiB allocation reported by mallinfo(arena+hblkhd)
       1980693 MiB available memory on the node where the printing process lives
------------------
     ethr =  2.34E-04,  avg # of iterations = 10.5


     -----------------------------------------------
     Non-local corr. energy    =      11.24619968 Ry
     -----------------------------------------------


     total cpu time spent up to now is      133.8 secs

     total energy              =  -15292.18231712 Ry
     estimated scf accuracy    <       0.79726412 Ry

     iteration #  4     ecut=    70.00 Ry     beta= 0.70
     Davidson diagonalization with overlap

---- Real-time Memory Report at c_bands before calling an iterative solver
           471 MiB given to the printing process from OS
             0 MiB allocation reported by mallinfo(arena+hblkhd)
       1981482 MiB available memory on the node where the printing process lives
------------------
     ethr =  2.15E-04,  avg # of iterations =  9.3


     -----------------------------------------------
     Non-local corr. energy    =      11.25114941 Ry
     -----------------------------------------------


     total cpu time spent up to now is      158.9 secs

     total energy              =  -15292.24741372 Ry
     estimated scf accuracy    <       0.08224010 Ry

     iteration #  5     ecut=    70.00 Ry     beta= 0.70
     Davidson diagonalization with overlap

---- Real-time Memory Report at c_bands before calling an iterative solver
           471 MiB given to the printing process from OS
             0 MiB allocation reported by mallinfo(arena+hblkhd)
       1979315 MiB available memory on the node where the printing process lives
------------------
     ethr =  2.22E-05,  avg # of iterations =  9.0


     -----------------------------------------------
     Non-local corr. energy    =      11.25278545 Ry
     -----------------------------------------------


     total cpu time spent up to now is      185.3 secs

     total energy              =  -15292.24948137 Ry
     estimated scf accuracy    <       0.05831248 Ry

     iteration #  6     ecut=    70.00 Ry     beta= 0.70
     Davidson diagonalization with overlap

---- Real-time Memory Report at c_bands before calling an iterative solver
           471 MiB given to the printing process from OS
             0 MiB allocation reported by mallinfo(arena+hblkhd)
       1981742 MiB available memory on the node where the printing process lives
------------------
     ethr =  1.57E-05,  avg # of iterations =  9.0


     -----------------------------------------------
     Non-local corr. energy    =      11.25462760 Ry
     -----------------------------------------------


     total cpu time spent up to now is      209.4 secs

     total energy              =  -15292.25300508 Ry
     estimated scf accuracy    <       0.03601475 Ry

     iteration #  7     ecut=    70.00 Ry     beta= 0.70
     Davidson diagonalization with overlap

---- Real-time Memory Report at c_bands before calling an iterative solver
           471 MiB given to the printing process from OS
             0 MiB allocation reported by mallinfo(arena+hblkhd)
       1980459 MiB available memory on the node where the printing process lives
------------------
     ethr =  9.71E-06,  avg # of iterations =  7.3


     -----------------------------------------------
     Non-local corr. energy    =      11.25700826 Ry
     -----------------------------------------------


     total cpu time spent up to now is      230.2 secs

     total energy              =  -15292.25377585 Ry
     estimated scf accuracy    <       0.01649824 Ry

     iteration #  8     ecut=    70.00 Ry     beta= 0.70
     Davidson diagonalization with overlap

---- Real-time Memory Report at c_bands before calling an iterative solver
           471 MiB given to the printing process from OS
             0 MiB allocation reported by mallinfo(arena+hblkhd)
       1980693 MiB available memory on the node where the printing process lives
------------------
     ethr =  4.45E-06,  avg # of iterations =  7.0


     -----------------------------------------------
     Non-local corr. energy    =      11.26052291 Ry
     -----------------------------------------------


     total cpu time spent up to now is      250.8 secs

     total energy              =  -15292.25345484 Ry
     estimated scf accuracy    <       0.00765019 Ry

     iteration #  9     ecut=    70.00 Ry     beta= 0.70
     Davidson diagonalization with overlap

---- Real-time Memory Report at c_bands before calling an iterative solver
           471 MiB given to the printing process from OS
             0 MiB allocation reported by mallinfo(arena+hblkhd)
       1981320 MiB available memory on the node where the printing process lives
------------------
     ethr =  2.06E-06,  avg # of iterations =  9.0


     -----------------------------------------------
     Non-local corr. energy    =      11.26252903 Ry
     -----------------------------------------------


     total cpu time spent up to now is      274.9 secs

     total energy              =  -15292.25309044 Ry
     estimated scf accuracy    <       0.00380948 Ry

     iteration # 10     ecut=    70.00 Ry     beta= 0.70
     Davidson diagonalization with overlap

---- Real-time Memory Report at c_bands before calling an iterative solver
           471 MiB given to the printing process from OS
             0 MiB allocation reported by mallinfo(arena+hblkhd)
       1983273 MiB available memory on the node where the printing process lives
------------------
     ethr =  1.03E-06,  avg # of iterations =  9.8


     -----------------------------------------------
     Non-local corr. energy    =      11.26391448 Ry
     -----------------------------------------------


     total cpu time spent up to now is      300.7 secs

     total energy              =  -15292.25289678 Ry
     estimated scf accuracy    <       0.00219072 Ry

     iteration # 11     ecut=    70.00 Ry     beta= 0.70
     Davidson diagonalization with overlap

---- Real-time Memory Report at c_bands before calling an iterative solver
           471 MiB given to the printing process from OS
             0 MiB allocation reported by mallinfo(arena+hblkhd)
       1978683 MiB available memory on the node where the printing process lives
------------------
     ethr =  5.90E-07,  avg # of iterations =  9.5


     -----------------------------------------------
     Non-local corr. energy    =      11.26515594 Ry
     -----------------------------------------------


     total cpu time spent up to now is      326.7 secs

     total energy              =  -15292.25294514 Ry
     estimated scf accuracy    <       0.00046211 Ry

     iteration # 12     ecut=    70.00 Ry     beta= 0.70
     Davidson diagonalization with overlap

---- Real-time Memory Report at c_bands before calling an iterative solver
           471 MiB given to the printing process from OS
             0 MiB allocation reported by mallinfo(arena+hblkhd)
       1978355 MiB available memory on the node where the printing process lives
------------------
     ethr =  1.25E-07,  avg # of iterations =  9.8


     -----------------------------------------------
     Non-local corr. energy    =      11.26522022 Ry
     -----------------------------------------------


     total cpu time spent up to now is      359.6 secs

     total energy              =  -15292.25304592 Ry
     estimated scf accuracy    <       0.00005683 Ry

     iteration # 13     ecut=    70.00 Ry     beta= 0.70
     Davidson diagonalization with overlap

---- Real-time Memory Report at c_bands before calling an iterative solver
           492 MiB given to the printing process from OS
             0 MiB allocation reported by mallinfo(arena+hblkhd)
       1980468 MiB available memory on the node where the printing process lives
------------------
     ethr =  1.53E-08,  avg # of iterations = 11.5


     -----------------------------------------------
     Non-local corr. energy    =      11.26514639 Ry
     -----------------------------------------------


     total cpu time spent up to now is      394.2 secs

     total energy              =  -15292.25305818 Ry
     estimated scf accuracy    <       0.00001986 Ry

     iteration # 14     ecut=    70.00 Ry     beta= 0.70
     Davidson diagonalization with overlap

---- Real-time Memory Report at c_bands before calling an iterative solver
           492 MiB given to the printing process from OS
             0 MiB allocation reported by mallinfo(arena+hblkhd)
       1982583 MiB available memory on the node where the printing process lives
------------------
     ethr =  5.35E-09,  avg # of iterations = 11.8


     -----------------------------------------------
     Non-local corr. energy    =      11.26513582 Ry
     -----------------------------------------------


     total cpu time spent up to now is      423.5 secs

     total energy              =  -15292.25305966 Ry
     estimated scf accuracy    <       0.00004540 Ry

     iteration # 15     ecut=    70.00 Ry     beta= 0.70
     Davidson diagonalization with overlap

---- Real-time Memory Report at c_bands before calling an iterative solver
           492 MiB given to the printing process from OS
             0 MiB allocation reported by mallinfo(arena+hblkhd)
       1981705 MiB available memory on the node where the printing process lives
------------------
     ethr =  5.35E-09,  avg # of iterations = 12.3


     -----------------------------------------------
     Non-local corr. energy    =      11.26510222 Ry
     -----------------------------------------------


     total cpu time spent up to now is      451.4 secs

     total energy              =  -15292.25306520 Ry
     estimated scf accuracy    <       0.00000077 Ry

     iteration # 16     ecut=    70.00 Ry     beta= 0.70
     Davidson diagonalization with overlap

---- Real-time Memory Report at c_bands before calling an iterative solver
           492 MiB given to the printing process from OS
             0 MiB allocation reported by mallinfo(arena+hblkhd)
       1978279 MiB available memory on the node where the printing process lives
------------------
     ethr =  2.09E-10,  avg # of iterations =  8.3


     -----------------------------------------------
     Non-local corr. energy    =      11.26509158 Ry
     -----------------------------------------------


     total cpu time spent up to now is      490.5 secs

     total energy              =  -15292.25306542 Ry
     estimated scf accuracy    <       0.00000100 Ry

     iteration # 17     ecut=    70.00 Ry     beta= 0.70
     Davidson diagonalization with overlap

---- Real-time Memory Report at c_bands before calling an iterative solver
           521 MiB given to the printing process from OS
             0 MiB allocation reported by mallinfo(arena+hblkhd)
       1979418 MiB available memory on the node where the printing process lives
------------------
     ethr =  2.09E-10,  avg # of iterations = 11.8


     -----------------------------------------------
     Non-local corr. energy    =      11.26508140 Ry
     -----------------------------------------------


     total cpu time spent up to now is      519.9 secs

     total energy              =  -15292.25306545 Ry
     estimated scf accuracy    <       0.00000304 Ry

     iteration # 18     ecut=    70.00 Ry     beta= 0.70
     Davidson diagonalization with overlap

---- Real-time Memory Report at c_bands before calling an iterative solver
           521 MiB given to the printing process from OS
             0 MiB allocation reported by mallinfo(arena+hblkhd)
       1983488 MiB available memory on the node where the printing process lives
------------------
     ethr =  2.09E-10,  avg # of iterations = 10.5


     -----------------------------------------------
     Non-local corr. energy    =      11.26507551 Ry
     -----------------------------------------------


     total cpu time spent up to now is      543.0 secs

     total energy              =  -15292.25306564 Ry
     estimated scf accuracy    <       0.00000021 Ry

     iteration # 19     ecut=    70.00 Ry     beta= 0.70
     Davidson diagonalization with overlap

---- Real-time Memory Report at c_bands before calling an iterative solver
           521 MiB given to the printing process from OS
             0 MiB allocation reported by mallinfo(arena+hblkhd)
       1987594 MiB available memory on the node where the printing process lives
------------------
     ethr =  5.73E-11,  avg # of iterations = 10.5


     -----------------------------------------------
     Non-local corr. energy    =      11.26507692 Ry
     -----------------------------------------------


     total cpu time spent up to now is      566.3 secs

     total energy              =  -15292.25306566 Ry
     estimated scf accuracy    <       0.00000012 Ry

     iteration # 20     ecut=    70.00 Ry     beta= 0.70
     Davidson diagonalization with overlap

---- Real-time Memory Report at c_bands before calling an iterative solver
           521 MiB given to the printing process from OS
             0 MiB allocation reported by mallinfo(arena+hblkhd)
       1987876 MiB available memory on the node where the printing process lives
------------------
     ethr =  3.11E-11,  avg # of iterations = 10.3


     -----------------------------------------------
     Non-local corr. energy    =      11.26507515 Ry
     -----------------------------------------------


     total cpu time spent up to now is      587.9 secs

     End of self-consistent calculation

          k = 0.0000 0.0000 0.0000 ( 75645 PWs)   bands (ev):

   -41.6343 -41.6343 -41.6342 -41.6342 -41.6342 -41.6342 -41.6337 -41.6337
   -41.6337 -41.6336 -41.6336 -41.6336 -41.6333 -41.6333 -41.6332 -41.6332
   -41.6332 -41.6331 -41.6330 -41.6330 -41.6329 -41.6329 -41.6329 -41.6328
   -41.6325 -41.6325 -41.6325 -41.6325 -41.6324 -41.6324 -41.5900 -41.5900
   -41.5899 -41.5899 -41.5888 -41.5887 -41.5887 -41.5887 -41.5883 -41.5883
   -41.1166 -41.1166 -41.1165 -41.1165 -41.1160 -41.1160 -41.1159 -41.1159
   -41.1159 -41.1158 -40.7014 -40.7012 -40.7012 -40.7011 -40.7011 -40.7011
   -40.7009 -40.7009 -40.7008 -40.7008 -40.7005 -40.7003 -40.6498 -40.6496
   -40.6496 -40.6495 -40.6495 -40.6489 -40.6487 -40.6485 -40.6485 -40.6485
   -40.6484 -40.6479 -40.6324 -40.6322 -40.6322 -40.6321 -40.6321 -40.6315
   -13.8405 -13.8405 -13.8251 -13.8228 -13.8228 -13.8123 -13.8055 -13.8055
   -13.7944 -13.7918 -13.7917 -13.7917 -13.7905 -13.7887 -13.7886 -13.7870
   -13.7870 -13.7808 -13.7808 -13.7782 -13.1480 -13.1260 -13.1259 -13.1158
   -13.1142 -13.1142 -13.1063 -13.1062 -13.1045 -13.0986 -13.0986 -13.0849
   -13.0815 -13.0789 -13.0788  -8.9099  -8.4931  -8.4600  -8.4600  -8.4174
    -8.3634  -8.3633  -8.3274  -8.1165  -7.9630  -7.5205  -7.4538  -7.4196
    -7.4194  -7.3705  -7.3703  -4.5273  -4.5057  -4.5056  -4.0317  -3.7700
    -3.7699  -3.4078   0.1269   0.1272   0.1272   1.0051   1.0052   1.0244
     1.0944   1.0944   1.1141   1.1314   1.1314   1.1764   1.6026   1.7777
     1.7967   1.7968   1.8811   1.8812   1.9112   1.9859   1.9859   1.9896
     2.0008   2.0024   2.0024   2.0225   2.0226   2.0605   2.0918   2.0918
     2.2189   2.2697   2.2700   2.4420   2.5625   2.5626   2.6259   2.9089
     2.9089   2.9246   3.0186   3.0575   3.0576   3.1659   3.2271   3.2272
     3.3090   3.3091   5.1644   5.8468   5.8469   5.8603   5.9667   5.9668
     6.1509   6.5350   6.5350   6.5374   6.6180   6.6334   6.6335   6.7997
     6.7999   7.0249   7.0250   7.2601   7.3995   7.5996   7.5999   8.5458
     8.5458   8.5535   9.1168   9.6207   9.6766   9.6767   9.7695  10.4307
    10.5257  10.5567  10.5567  10.5593  10.5593  10.8599  10.9708

     occupation numbers 
     1.0000   1.0000   1.0000   1.0000   1.0000   1.0000   1.0000   1.0000
     1.0000   1.0000   1.0000   1.0000   1.0000   1.0000   1.0000   1.0000
     1.0000   1.0000   1.0000   1.0000   1.0000   1.0000   1.0000   1.0000
     1.0000   1.0000   1.0000   1.0000   1.0000   1.0000   1.0000   1.0000
     1.0000   1.0000   1.0000   1.0000   1.0000   1.0000   1.0000   1.0000
     1.0000   1.0000   1.0000   1.0000   1.0000   1.0000   1.0000   1.0000
     1.0000   1.0000   1.0000   1.0000   1.0000   1.0000   1.0000   1.0000
     1.0000   1.0000   1.0000   1.0000   1.0000   1.0000   1.0000   1.0000
     1.0000   1.0000   1.0000   1.0000   1.0000   1.0000   1.0000   1.0000
     1.0000   1.0000   1.0000   1.0000   1.0000   1.0000   1.0000   1.0000
     1.0000   1.0000   1.0000   1.0000   1.0000   1.0000   1.0000   1.0000
     1.0000   1.0000   1.0000   1.0000   1.0000   1.0000   1.0000   1.0000
     1.0000   1.0000   1.0000   1.0000   1.0000   1.0000   1.0000   1.0000
     1.0000   1.0000   1.0000   1.0000   1.0000   1.0000   1.0000   1.0000
     1.0000   1.0000   1.0000   1.0000   1.0000   1.0000   1.0000   1.0000
     1.0000   1.0000   1.0000   1.0000   1.0000   1.0000   1.0000   1.0000
     1.0000   1.0000   1.0000   1.0000   1.0000   1.0000   1.0000   1.0000
     1.0000   1.0000   1.0000   1.0000   1.0000   1.0000   1.0000   1.0000
     1.0000   1.0000   1.0000   1.0000   1.0000   1.0000   1.0000   1.0000
     1.0000   1.0000   1.0000   1.0000   1.0000   1.0000   1.0000   1.0000
     1.0000   1.0000   1.0000   1.0000   1.0000   1.0000   1.0000   1.0000
     1.0000   1.0000   1.0000   1.0000   1.0000   1.0000   1.0000   1.0000
     1.0000   1.0000   0.9999   0.9998   0.9997   0.9907   0.9571   0.9569
     0.8068   0.8065   0.0000   0.0000   0.0000   0.0000   0.0000   0.0000
     0.0000   0.0000   0.0000   0.0000   0.0000   0.0000   0.0000   0.0000
     0.0000   0.0000   0.0000   0.0000   0.0000   0.0000   0.0000   0.0000
     0.0000   0.0000   0.0000   0.0000   0.0000   0.0000   0.0000   0.0000
     0.0000   0.0000   0.0000   0.0000   0.0000   0.0000   0.0000

          k = 0.0000-0.5774 0.0000 ( 75730 PWs)   bands (ev):

   -41.6343 -41.6343 -41.6342 -41.6342 -41.6342 -41.6342 -41.6337 -41.6337
   -41.6337 -41.6336 -41.6336 -41.6336 -41.6333 -41.6333 -41.6332 -41.6332
   -41.6332 -41.6332 -41.6330 -41.6330 -41.6329 -41.6329 -41.6329 -41.6328
   -41.6325 -41.6325 -41.6325 -41.6325 -41.6324 -41.6324 -41.5900 -41.5900
   -41.5899 -41.5899 -41.5888 -41.5887 -41.5887 -41.5887 -41.5883 -41.5883
   -41.1166 -41.1166 -41.1165 -41.1165 -41.1160 -41.1160 -41.1159 -41.1159
   -41.1159 -41.1158 -40.7014 -40.7012 -40.7012 -40.7011 -40.7011 -40.7011
   -40.7009 -40.7009 -40.7008 -40.7008 -40.7005 -40.7003 -40.6498 -40.6496
   -40.6496 -40.6495 -40.6495 -40.6489 -40.6487 -40.6485 -40.6485 -40.6485
   -40.6484 -40.6479 -40.6324 -40.6322 -40.6322 -40.6321 -40.6321 -40.6315
   -13.8383 -13.8369 -13.8241 -13.8224 -13.8219 -13.8094 -13.8048 -13.8011
   -13.7993 -13.7977 -13.7910 -13.7907 -13.7893 -13.7892 -13.7890 -13.7866
   -13.7857 -13.7851 -13.7842 -13.7803 -13.1405 -13.1329 -13.1256 -13.1148
   -13.1106 -13.1105 -13.1091 -13.1091 -13.1055 -13.0995 -13.0953 -13.0900
   -13.0807 -13.0798 -13.0789  -8.7208  -8.7104  -8.4778  -8.4609  -8.4059
    -8.3860  -8.3459  -8.3189  -8.0461  -7.9967  -7.5325  -7.5039  -7.4421
    -7.4283  -7.3567  -7.3482  -4.5094  -4.4944  -4.2516  -4.2366  -3.7591
    -3.6298  -3.5061   0.4263   0.4447   0.5821   0.6069   0.7515   0.7530
     1.0512   1.0596   1.1545   1.2070   1.2541   1.3018   1.4173   1.4315
     1.4364   1.5559   1.5911   1.6773   1.6993   1.8097   1.8360   1.9004
     1.9504   2.0133   2.0340   2.0670   2.0957   2.1535   2.2355   2.4060
     2.4060   2.4320   2.4523   2.5029   2.5187   2.5218   2.6570   2.7202
     2.7893   2.8202   2.8902   3.0375   3.1449   3.1654   3.2324   3.2698
     3.2963   3.3054   5.7289   5.7398   6.2774   6.2825   6.3243   6.3455
     6.3929   6.4687   6.4790   6.5000   6.5326   6.7557   6.7796   6.9333
     7.0372   7.1753   7.1899   7.1980   7.2404   7.2767   7.5017   9.1139
     9.1288   9.5312   9.5462   9.6018   9.6133   9.7600   9.9847  10.1724
    10.2800  10.3058  10.3290  10.3628  10.4092  10.6415  10.6502

     occupation numbers 
     1.0000   1.0000   1.0000   1.0000   1.0000   1.0000   1.0000   1.0000
     1.0000   1.0000   1.0000   1.0000   1.0000   1.0000   1.0000   1.0000
     1.0000   1.0000   1.0000   1.0000   1.0000   1.0000   1.0000   1.0000
     1.0000   1.0000   1.0000   1.0000   1.0000   1.0000   1.0000   1.0000
     1.0000   1.0000   1.0000   1.0000   1.0000   1.0000   1.0000   1.0000
     1.0000   1.0000   1.0000   1.0000   1.0000   1.0000   1.0000   1.0000
     1.0000   1.0000   1.0000   1.0000   1.0000   1.0000   1.0000   1.0000
     1.0000   1.0000   1.0000   1.0000   1.0000   1.0000   1.0000   1.0000
     1.0000   1.0000   1.0000   1.0000   1.0000   1.0000   1.0000   1.0000
     1.0000   1.0000   1.0000   1.0000   1.0000   1.0000   1.0000   1.0000
     1.0000   1.0000   1.0000   1.0000   1.0000   1.0000   1.0000   1.0000
     1.0000   1.0000   1.0000   1.0000   1.0000   1.0000   1.0000   1.0000
     1.0000   1.0000   1.0000   1.0000   1.0000   1.0000   1.0000   1.0000
     1.0000   1.0000   1.0000   1.0000   1.0000   1.0000   1.0000   1.0000
     1.0000   1.0000   1.0000   1.0000   1.0000   1.0000   1.0000   1.0000
     1.0000   1.0000   1.0000   1.0000   1.0000   1.0000   1.0000   1.0000
     1.0000   1.0000   1.0000   1.0000   1.0000   1.0000   1.0000   1.0000
     1.0000   1.0000   1.0000   1.0000   1.0000   1.0000   1.0000   1.0000
     1.0000   1.0000   1.0000   1.0000   1.0000   1.0000   1.0000   1.0000
     1.0000   1.0000   1.0000   1.0000   1.0000   1.0000   1.0000   1.0000
     1.0000   1.0000   1.0000   1.0000   1.0000   1.0000   1.0000   1.0000
     1.0000   1.0000   1.0000   1.0000   1.0000   1.0000   1.0000   1.0000
     1.0000   1.0000   1.0000   0.9999   0.9949   0.9908   0.9518   0.8987
     0.8410   0.8171   0.0000   0.0000   0.0000   0.0000   0.0000   0.0000
     0.0000   0.0000   0.0000   0.0000   0.0000   0.0000   0.0000   0.0000
     0.0000   0.0000   0.0000   0.0000   0.0000   0.0000   0.0000   0.0000
     0.0000   0.0000   0.0000   0.0000   0.0000   0.0000   0.0000   0.0000
     0.0000   0.0000   0.0000   0.0000   0.0000   0.0000   0.0000

          k = 0.5000-0.2887 0.0000 ( 75730 PWs)   bands (ev):

   -41.6343 -41.6343 -41.6342 -41.6342 -41.6342 -41.6342 -41.6337 -41.6337
   -41.6336 -41.6336 -41.6336 -41.6336 -41.6333 -41.6333 -41.6332 -41.6332
   -41.6332 -41.6332 -41.6330 -41.6330 -41.6329 -41.6329 -41.6329 -41.6328
   -41.6325 -41.6325 -41.6325 -41.6325 -41.6324 -41.6324 -41.5900 -41.5900
   -41.5899 -41.5899 -41.5888 -41.5887 -41.5887 -41.5887 -41.5883 -41.5883
   -41.1166 -41.1166 -41.1165 -41.1165 -41.1160 -41.1160 -41.1159 -41.1159
   -41.1159 -41.1158 -40.7014 -40.7012 -40.7012 -40.7011 -40.7011 -40.7011
   -40.7009 -40.7009 -40.7008 -40.7008 -40.7005 -40.7003 -40.6498 -40.6496
   -40.6496 -40.6495 -40.6495 -40.6489 -40.6487 -40.6485 -40.6485 -40.6485
   -40.6484 -40.6479 -40.6324 -40.6322 -40.6322 -40.6321 -40.6321 -40.6315
   -13.8383 -13.8369 -13.8241 -13.8224 -13.8219 -13.8094 -13.8048 -13.8011
   -13.7993 -13.7977 -13.7910 -13.7907 -13.7893 -13.7891 -13.7890 -13.7866
   -13.7857 -13.7851 -13.7842 -13.7803 -13.1406 -13.1328 -13.1256 -13.1149
   -13.1106 -13.1104 -13.1091 -13.1090 -13.1056 -13.0995 -13.0952 -13.0900
   -13.0807 -13.0797 -13.0789  -8.7209  -8.7103  -8.4778  -8.4608  -8.4059
    -8.3860  -8.3459  -8.3188  -8.0461  -7.9968  -7.5325  -7.5039  -7.4421
    -7.4283  -7.3567  -7.3482  -4.5094  -4.4943  -4.2516  -4.2367  -3.7591
    -3.6297  -3.5062   0.4263   0.4447   0.5820   0.6070   0.7514   0.7530
     1.0511   1.0596   1.1546   1.2070   1.2541   1.3018   1.4173   1.4314
     1.4365   1.5558   1.5911   1.6773   1.6993   1.8097   1.8360   1.9003
     1.9503   2.0131   2.0340   2.0670   2.0958   2.1534   2.2357   2.4060
     2.4060   2.4320   2.4523   2.5030   2.5187   2.5218   2.6571   2.7202
     2.7892   2.8202   2.8902   3.0376   3.1450   3.1654   3.2324   3.2699
     3.2963   3.3054   5.7289   5.7398   6.2775   6.2825   6.3243   6.3455
     6.3930   6.4687   6.4790   6.4999   6.5327   6.7557   6.7795   6.9335
     7.0370   7.1755   7.1904   7.1974   7.2401   7.2772   7.5013   9.1139
     9.1288   9.5313   9.5462   9.6018   9.6132   9.7598   9.9847  10.1723
    10.2799  10.3057  10.3289  10.3628  10.4091  10.6414  10.6501

     occupation numbers 
     1.0000   1.0000   1.0000   1.0000   1.0000   1.0000   1.0000   1.0000
     1.0000   1.0000   1.0000   1.0000   1.0000   1.0000   1.0000   1.0000
     1.0000   1.0000   1.0000   1.0000   1.0000   1.0000   1.0000   1.0000
     1.0000   1.0000   1.0000   1.0000   1.0000   1.0000   1.0000   1.0000
     1.0000   1.0000   1.0000   1.0000   1.0000   1.0000   1.0000   1.0000
     1.0000   1.0000   1.0000   1.0000   1.0000   1.0000   1.0000   1.0000
     1.0000   1.0000   1.0000   1.0000   1.0000   1.0000   1.0000   1.0000
     1.0000   1.0000   1.0000   1.0000   1.0000   1.0000   1.0000   1.0000
     1.0000   1.0000   1.0000   1.0000   1.0000   1.0000   1.0000   1.0000
     1.0000   1.0000   1.0000   1.0000   1.0000   1.0000   1.0000   1.0000
     1.0000   1.0000   1.0000   1.0000   1.0000   1.0000   1.0000   1.0000
     1.0000   1.0000   1.0000   1.0000   1.0000   1.0000   1.0000   1.0000
     1.0000   1.0000   1.0000   1.0000   1.0000   1.0000   1.0000   1.0000
     1.0000   1.0000   1.0000   1.0000   1.0000   1.0000   1.0000   1.0000
     1.0000   1.0000   1.0000   1.0000   1.0000   1.0000   1.0000   1.0000
     1.0000   1.0000   1.0000   1.0000   1.0000   1.0000   1.0000   1.0000
     1.0000   1.0000   1.0000   1.0000   1.0000   1.0000   1.0000   1.0000
     1.0000   1.0000   1.0000   1.0000   1.0000   1.0000   1.0000   1.0000
     1.0000   1.0000   1.0000   1.0000   1.0000   1.0000   1.0000   1.0000
     1.0000   1.0000   1.0000   1.0000   1.0000   1.0000   1.0000   1.0000
     1.0000   1.0000   1.0000   1.0000   1.0000   1.0000   1.0000   1.0000
     1.0000   1.0000   1.0000   1.0000   1.0000   1.0000   1.0000   1.0000
     1.0000   1.0000   1.0000   0.9999   0.9949   0.9908   0.9518   0.8985
     0.8410   0.8170   0.0000   0.0000   0.0000   0.0000   0.0000   0.0000
     0.0000   0.0000   0.0000   0.0000   0.0000   0.0000   0.0000   0.0000
     0.0000   0.0000   0.0000   0.0000   0.0000   0.0000   0.0000   0.0000
     0.0000   0.0000   0.0000   0.0000   0.0000   0.0000   0.0000   0.0000
     0.0000   0.0000   0.0000   0.0000   0.0000   0.0000   0.0000

          k =-0.5000-0.2887 0.0000 ( 75730 PWs)   bands (ev):

   -41.6343 -41.6343 -41.6342 -41.6342 -41.6342 -41.6342 -41.6337 -41.6337
   -41.6337 -41.6336 -41.6336 -41.6336 -41.6333 -41.6333 -41.6332 -41.6332
   -41.6332 -41.6331 -41.6330 -41.6330 -41.6329 -41.6329 -41.6329 -41.6328
   -41.6325 -41.6325 -41.6325 -41.6325 -41.6324 -41.6324 -41.5900 -41.5900
   -41.5899 -41.5899 -41.5888 -41.5887 -41.5887 -41.5887 -41.5883 -41.5883
   -41.1166 -41.1166 -41.1165 -41.1165 -41.1160 -41.1160 -41.1159 -41.1159
   -41.1159 -41.1158 -40.7014 -40.7012 -40.7012 -40.7011 -40.7011 -40.7011
   -40.7009 -40.7009 -40.7008 -40.7008 -40.7005 -40.7003 -40.6498 -40.6496
   -40.6496 -40.6495 -40.6495 -40.6489 -40.6487 -40.6485 -40.6485 -40.6485
   -40.6484 -40.6479 -40.6324 -40.6322 -40.6322 -40.6321 -40.6321 -40.6315
   -13.8383 -13.8369 -13.8241 -13.8224 -13.8219 -13.8093 -13.8048 -13.8011
   -13.7993 -13.7977 -13.7910 -13.7907 -13.7892 -13.7891 -13.7890 -13.7866
   -13.7857 -13.7851 -13.7842 -13.7802 -13.1405 -13.1330 -13.1255 -13.1148
   -13.1106 -13.1105 -13.1092 -13.1090 -13.1055 -13.0995 -13.0954 -13.0899
   -13.0806 -13.0799 -13.0788  -8.7208  -8.7103  -8.4778  -8.4609  -8.4059
    -8.3860  -8.3459  -8.3188  -8.0461  -7.9968  -7.5326  -7.5038  -7.4422
    -7.4281  -7.3566  -7.3483  -4.5094  -4.4943  -4.2516  -4.2366  -3.7591
    -3.6298  -3.5061   0.4263   0.4447   0.5821   0.6070   0.7515   0.7530
     1.0512   1.0596   1.1546   1.2070   1.2541   1.3018   1.4173   1.4315
     1.4364   1.5558   1.5910   1.6772   1.6993   1.8097   1.8360   1.9004
     1.9504   2.0132   2.0340   2.0670   2.0957   2.1535   2.2356   2.4060
     2.4060   2.4320   2.4523   2.5029   2.5187   2.5218   2.6570   2.7203
     2.7893   2.8203   2.8901   3.0377   3.1448   3.1654   3.2323   3.2698
     3.2962   3.3054   5.7289   5.7398   6.2774   6.2825   6.3243   6.3455
     6.3930   6.4687   6.4790   6.5000   6.5327   6.7557   6.7796   6.9332
     7.0372   7.1753   7.1900   7.1980   7.2402   7.2768   7.5017   9.1139
     9.1288   9.5313   9.5461   9.6018   9.6133   9.7600   9.9847  10.1724
    10.2800  10.3058  10.3290  10.3628  10.4092  10.6415  10.6501

     occupation numbers 
     1.0000   1.0000   1.0000   1.0000   1.0000   1.0000   1.0000   1.0000
     1.0000   1.0000   1.0000   1.0000   1.0000   1.0000   1.0000   1.0000
     1.0000   1.0000   1.0000   1.0000   1.0000   1.0000   1.0000   1.0000
     1.0000   1.0000   1.0000   1.0000   1.0000   1.0000   1.0000   1.0000
     1.0000   1.0000   1.0000   1.0000   1.0000   1.0000   1.0000   1.0000
     1.0000   1.0000   1.0000   1.0000   1.0000   1.0000   1.0000   1.0000
     1.0000   1.0000   1.0000   1.0000   1.0000   1.0000   1.0000   1.0000
     1.0000   1.0000   1.0000   1.0000   1.0000   1.0000   1.0000   1.0000
     1.0000   1.0000   1.0000   1.0000   1.0000   1.0000   1.0000   1.0000
     1.0000   1.0000   1.0000   1.0000   1.0000   1.0000   1.0000   1.0000
     1.0000   1.0000   1.0000   1.0000   1.0000   1.0000   1.0000   1.0000
     1.0000   1.0000   1.0000   1.0000   1.0000   1.0000   1.0000   1.0000
     1.0000   1.0000   1.0000   1.0000   1.0000   1.0000   1.0000   1.0000
     1.0000   1.0000   1.0000   1.0000   1.0000   1.0000   1.0000   1.0000
     1.0000   1.0000   1.0000   1.0000   1.0000   1.0000   1.0000   1.0000
     1.0000   1.0000   1.0000   1.0000   1.0000   1.0000   1.0000   1.0000
     1.0000   1.0000   1.0000   1.0000   1.0000   1.0000   1.0000   1.0000
     1.0000   1.0000   1.0000   1.0000   1.0000   1.0000   1.0000   1.0000
     1.0000   1.0000   1.0000   1.0000   1.0000   1.0000   1.0000   1.0000
     1.0000   1.0000   1.0000   1.0000   1.0000   1.0000   1.0000   1.0000
     1.0000   1.0000   1.0000   1.0000   1.0000   1.0000   1.0000   1.0000
     1.0000   1.0000   1.0000   1.0000   1.0000   1.0000   1.0000   1.0000
     1.0000   1.0000   1.0000   0.9999   0.9950   0.9908   0.9519   0.8986
     0.8412   0.8170   0.0000   0.0000   0.0000   0.0000   0.0000   0.0000
     0.0000   0.0000   0.0000   0.0000   0.0000   0.0000   0.0000   0.0000
     0.0000   0.0000   0.0000   0.0000   0.0000   0.0000   0.0000   0.0000
     0.0000   0.0000   0.0000   0.0000   0.0000   0.0000   0.0000   0.0000
     0.0000   0.0000   0.0000   0.0000   0.0000   0.0000   0.0000

     the Fermi energy is     3.3923 ev

!    total energy              =  -15292.25306563 Ry
     total all-electron energy =   -520452.248118 Ry
     estimated scf accuracy    <       0.00000007 Ry
     smearing contrib. (-TS)   =      -0.01142617 Ry
     internal energy E=F+TS    =  -15292.24163945 Ry

     The total energy is F=E-TS. E is the sum of the following terms:
     one-electron contribution =   -2991.98481748 Ry
     hartree contribution      =    1655.79789958 Ry
     xc contribution           =   -1100.79399617 Ry
     ewald contribution        =   -2352.92193536 Ry
     one-center paw contrib.   =  -10502.33879003 Ry
      -> PAW hartree energy AE =     191.92847089 Ry
      -> PAW hartree energy PS =    -192.40261245 Ry
      -> PAW xc energy AE      =   -1596.87191660 Ry
      -> PAW xc energy PS      =      66.62982946 Ry
      -> total E_H with PAW    =    1655.32375803 Ry
      -> total E_XC with PAW   =   -2631.03608331 Ry

     convergence has been achieved in  20 iterations


     -----------------------------------------------
     Non-local corr. energy    =      11.26507515 Ry
     -----------------------------------------------


     Forces acting on atoms (cartesian axes, Ry/au):

     atom    1 type  1   force =     0.00000567   -0.00000128    0.00001686
     atom    2 type  1   force =     0.00000668    0.00002219    0.00000160
     atom    3 type  1   force =     0.00000456    0.00000046    0.00001809
     atom    4 type  1   force =    -0.00002774   -0.00001077   -0.00000971
     atom    5 type  1   force =    -0.00000347   -0.00000341    0.00001349
     atom    6 type  1   force =    -0.00000677   -0.00000594   -0.00001755
     atom    7 type  1   force =    -0.00000043   -0.00000385    0.00001684
     atom    8 type  2   force =    -0.00000811    0.00019753    0.00176645
     atom    9 type  2   force =    -0.00001208   -0.00359270    0.00547090
     atom   10 type  2   force =     0.00016833   -0.00010050    0.00176837
     atom   11 type  2   force =    -0.00311525    0.00179952    0.00547753
     atom   12 type  2   force =     0.00000586    0.00000149    0.00264792
     atom   13 type  2   force =    -0.00000447    0.00000953   -0.00075844
     atom   14 type  2   force =    -0.00017137   -0.00009091    0.00177516
     atom   15 type  2   force =     0.00311611    0.00181139    0.00549401
     atom   16 type  2   force =    -0.00310702   -0.00180738   -0.00546563
     atom   17 type  2   force =     0.00016825    0.00008692   -0.00178504
     atom   18 type  2   force =    -0.00002833   -0.00002956    0.00072609
     atom   19 type  2   force =    -0.00004594   -0.00002096   -0.00262833
     atom   20 type  2   force =     0.00312519   -0.00176310   -0.00552012
     atom   21 type  2   force =    -0.00016577    0.00014165   -0.00175197
     atom   22 type  2   force =     0.00004758    0.00357237   -0.00550278
     atom   23 type  2   force =     0.00004850   -0.00021265   -0.00175373
     The non-local contrib.  to forces
     atom    1 type  1   force =    -0.00000039   -0.00000193    0.00001565
     atom    2 type  1   force =     0.00003117   -0.00002387   -0.00002890
     atom    3 type  1   force =    -0.00000784   -0.00001000   -0.00001604
     atom    4 type  1   force =     0.00001026   -0.00005191    0.00001668
     atom    5 type  1   force =    -0.00000837   -0.00001229    0.00003773
     atom    6 type  1   force =     0.00002237   -0.00005441   -0.00002157
     atom    7 type  1   force =    -0.00001329   -0.00002158    0.00000687
     atom    8 type  2   force =    -0.00000251   -0.00205520    0.26813955
     atom    9 type  2   force =    -0.00001198   -0.11939151    0.14017627
     atom   10 type  2   force =    -0.00176787    0.00104335    0.26814602
     atom   11 type  2   force =    -0.10337692    0.05971875    0.14018549
     atom   12 type  2   force =     0.00000843   -0.00001270    0.28253959
     atom   13 type  2   force =    -0.00000592    0.00000029    0.21665758
     atom   14 type  2   force =     0.00176602    0.00105281    0.26814740
     atom   15 type  2   force =     0.10337497    0.05973710    0.14020876
     atom   16 type  2   force =    -0.10340973   -0.05966544   -0.14017642
     atom   17 type  2   force =    -0.00178650   -0.00102212   -0.26813800
     atom   18 type  2   force =    -0.00005410   -0.00000586   -0.21668243
     atom   19 type  2   force =    -0.00004030   -0.00001966   -0.28251850
     atom   20 type  2   force =     0.10340263   -0.05963864   -0.14018605
     atom   21 type  2   force =     0.00178744   -0.00097620   -0.26811443
     atom   22 type  2   force =     0.00002915    0.11936608   -0.14022180
     atom   23 type  2   force =     0.00004690    0.00204098   -0.26811551
     The ionic contribution  to forces
     atom    1 type  1   force =     0.00004478   -0.00009016    0.00008025
     atom    2 type  1   force =    -0.00054582    0.00095613    0.00053015
     atom    3 type  1   force =     0.00017311    0.00031866    0.00027465
     atom    4 type  1   force =    -0.00064482    0.00083323   -0.00027440
     atom    5 type  1   force =     0.00010329    0.00013969   -0.00007332
     atom    6 type  1   force =    -0.00058692    0.00105050    0.00017504
     atom    7 type  1   force =     0.00026821    0.00051959    0.00012110
     atom    8 type  2   force =    -0.00070472    0.58279444  -17.00549497
     atom    9 type  2   force =    -0.00088828    7.76242888   -6.36917244
     atom   10 type  2   force =     0.50425579   -0.29179508  -17.00500545
     atom   11 type  2   force =     6.72156197   -3.88135217   -6.36858884
     atom   12 type  2   force =     0.00007819    0.00037030  -16.45782586
     atom   13 type  2   force =     0.00006685    0.00041254  -10.67287715
     atom   14 type  2   force =    -0.50449110   -0.29137130  -17.00544349
     atom   15 type  2   force =    -6.72214943   -3.88091976   -6.36922275
     atom   16 type  2   force =     6.72354948    3.87864626    6.36928840
     atom   17 type  2   force =     0.50507536    0.29046999   17.00525124
     atom   18 type  2   force =     0.00080915   -0.00000121   10.67282117
     atom   19 type  2   force =     0.00023229    0.00049864   16.45779555
     atom   20 type  2   force =    -6.72245018    3.87972974    6.36722899
     atom   21 type  2   force =    -0.50491611    0.29050658   17.00494498
     atom   22 type  2   force =     0.00126767   -7.76177011    6.37006049
     atom   23 type  2   force =    -0.00010876   -0.58237538   17.00540666
     The local contribution  to forces
     atom    1 type  1   force =    -0.00007309    0.00007697   -0.00009203
     atom    2 type  1   force =     0.00050012   -0.00093335   -0.00050447
     atom    3 type  1   force =    -0.00016171   -0.00030751   -0.00022982
     atom    4 type  1   force =     0.00085142   -0.00089781    0.00037973
     atom    5 type  1   force =    -0.00006575   -0.00014597    0.00003151
     atom    6 type  1   force =     0.00057149   -0.00073955   -0.00002949
     atom    7 type  1   force =    -0.00025637   -0.00046076   -0.00013314
     atom    8 type  2   force =     0.00071513   -0.58053782   16.74497497
     atom    9 type  2   force =     0.00090447   -7.64934958    6.23793802
     atom   10 type  2   force =    -0.50231572    0.29066117   16.74449476
     atom   11 type  2   force =    -6.62365711    3.82480346    6.23734828
     atom   12 type  2   force =    -0.00010462   -0.00035466   16.18408022
     atom   13 type  2   force =    -0.00008633   -0.00040636   10.46033174
     atom   14 type  2   force =     0.50254689    0.29021378   16.74491025
     atom   15 type  2   force =     6.62424506    3.82434958    6.23797610
     atom   16 type  2   force =    -6.62559825   -3.82213543   -6.23807048
     atom   17 type  2   force =    -0.50310720   -0.28933291  -16.74473352
     atom   18 type  2   force =    -0.00066042    0.00003376  -10.46019783
     atom   19 type  2   force =    -0.00009837   -0.00044032  -16.18413768
     atom   20 type  2   force =     6.62452195   -3.82333344   -6.23593789
     atom   21 type  2   force =     0.50294674   -0.28951450  -16.74453647
     atom   22 type  2   force =    -0.00137133    7.64875366   -6.23873300
     atom   23 type  2   force =    -0.00002460    0.58016395  -16.74497687
     The core correction contribution to forces
     atom    1 type  1   force =    -0.00000038   -0.00000018    0.00000033
     atom    2 type  1   force =     0.00000017    0.00000046   -0.00000056
     atom    3 type  1   force =     0.00000000    0.00000017    0.00000069
     atom    4 type  1   force =     0.00000181   -0.00000101    0.00000009
     atom    5 type  1   force =     0.00000038   -0.00000015    0.00000027
     atom    6 type  1   force =    -0.00000042    0.00000288    0.00000092
     atom    7 type  1   force =     0.00000007    0.00000070    0.00000033
     atom    8 type  2   force =    -0.00000083    0.00003148   -0.00594320
     atom    9 type  2   force =    -0.00000141    0.00274813   -0.00344412
     atom   10 type  2   force =     0.00002443   -0.00001265   -0.00594456
     atom   11 type  2   force =     0.00237534   -0.00137013   -0.00344544
     atom   12 type  2   force =    -0.00000084    0.00000268   -0.00626879
     atom   13 type  2   force =    -0.00000105    0.00000300   -0.00481716
     atom   14 type  2   force =    -0.00002563   -0.00001262   -0.00594366
     atom   15 type  2   force =    -0.00237812   -0.00137017   -0.00344533
     atom   16 type  2   force =     0.00237754    0.00137329    0.00344255
     atom   17 type  2   force =     0.00002467    0.00001664    0.00594284
     atom   18 type  2   force =     0.00000037    0.00000184    0.00481599
     atom   19 type  2   force =    -0.00000042    0.00000254    0.00626806
     atom   20 type  2   force =    -0.00237748    0.00137374    0.00344370
     atom   21 type  2   force =    -0.00002609    0.00001648    0.00594376
     atom   22 type  2   force =    -0.00000006   -0.00274279    0.00344300
     atom   23 type  2   force =    -0.00000098   -0.00002659    0.00594270
     The Hubbard contrib.    to forces
     atom    1 type  1   force =     0.00000000    0.00000000    0.00000000
     atom    2 type  1   force =     0.00000000    0.00000000    0.00000000
     atom    3 type  1   force =     0.00000000    0.00000000    0.00000000
     atom    4 type  1   force =     0.00000000    0.00000000    0.00000000
     atom    5 type  1   force =     0.00000000    0.00000000    0.00000000
     atom    6 type  1   force =     0.00000000    0.00000000    0.00000000
     atom    7 type  1   force =     0.00000000    0.00000000    0.00000000
     atom    8 type  2   force =     0.00000000    0.00000000    0.00000000
     atom    9 type  2   force =     0.00000000    0.00000000    0.00000000
     atom   10 type  2   force =     0.00000000    0.00000000    0.00000000
     atom   11 type  2   force =     0.00000000    0.00000000    0.00000000
     atom   12 type  2   force =     0.00000000    0.00000000    0.00000000
     atom   13 type  2   force =     0.00000000    0.00000000    0.00000000
     atom   14 type  2   force =     0.00000000    0.00000000    0.00000000
     atom   15 type  2   force =     0.00000000    0.00000000    0.00000000
     atom   16 type  2   force =     0.00000000    0.00000000    0.00000000
     atom   17 type  2   force =     0.00000000    0.00000000    0.00000000
     atom   18 type  2   force =     0.00000000    0.00000000    0.00000000
     atom   19 type  2   force =     0.00000000    0.00000000    0.00000000
     atom   20 type  2   force =     0.00000000    0.00000000    0.00000000
     atom   21 type  2   force =     0.00000000    0.00000000    0.00000000
     atom   22 type  2   force =     0.00000000    0.00000000    0.00000000
     atom   23 type  2   force =     0.00000000    0.00000000    0.00000000
     The SCF correction term to forces
     atom    1 type  1   force =     0.00003374    0.00001712    0.00001473
     atom    2 type  1   force =     0.00002003    0.00002592    0.00000746
     atom    3 type  1   force =     0.00000000    0.00000225   -0.00000931
     atom    4 type  1   force =    -0.00024743    0.00010982   -0.00012974
     atom    5 type  1   force =    -0.00003403    0.00001840    0.00001938
     atom    6 type  1   force =    -0.00001431   -0.00026227   -0.00014037
     atom    7 type  1   force =    -0.00000005   -0.00003871    0.00002376
     atom    8 type  2   force =    -0.00001618   -0.00003228    0.00009219
     atom    9 type  2   force =    -0.00001588   -0.00002552   -0.00002475
     atom   10 type  2   force =    -0.00002931    0.00000580    0.00007968
     atom   11 type  2   force =    -0.00001952    0.00000270   -0.00001988
     atom   12 type  2   force =     0.00002369   -0.00000103    0.00012483
     atom   13 type  2   force =     0.00002097    0.00000315   -0.00005137
     atom   14 type  2   force =     0.00003143    0.00002951    0.00010674
     atom   15 type  2   force =     0.00002262    0.00001773   -0.00002069
     atom   16 type  2   force =    -0.00002706   -0.00002297    0.00005240
     atom   17 type  2   force =    -0.00003908   -0.00004158   -0.00010553
     atom   18 type  2   force =    -0.00012432   -0.00005499   -0.00002873
     atom   19 type  2   force =    -0.00014015   -0.00005907   -0.00003368
     atom   20 type  2   force =     0.00002726    0.00010860   -0.00006679
     atom   21 type  2   force =     0.00004124    0.00011238    0.00001228
     atom   22 type  2   force =     0.00012114   -0.00003138   -0.00004939
     atom   23 type  2   force =     0.00013493   -0.00001250   -0.00000862

     Total force =     0.017092     Total SCF correction =     0.000607


     Computing stress (Cartesian axis) and pressure



     -----------------------------------------------
     Non-local corr. energy    =      11.26507515 Ry
     -----------------------------------------------

          total   stress  (Ry/bohr**3)                   (kbar)     P=       11.27
   0.00007522  -0.00000001   0.00000003           11.06       -0.00        0.00
  -0.00000001   0.00007519  -0.00000002           -0.00       11.06       -0.00
   0.00000003  -0.00000002   0.00007936            0.00       -0.00       11.67

     kinetic stress (kbar)  14172.02     -0.00      0.00
                               -0.00  14172.03     -0.00
                                0.00     -0.00  14183.82

     local   stress (kbar)  -7079.06      0.37     -0.37
                                0.37  -7078.47      0.32
                               -0.37      0.32   -302.21

     nonloc. stress (kbar)   -736.21     -0.00      0.00
                               -0.00   -736.21     -0.00
                                0.00     -0.00   -738.45

     hartree stress (kbar)  11628.08     -0.13      0.14
                               -0.13  11627.86     -0.12
                                0.14     -0.12   8558.20

     exc-cor stress (kbar)   6751.88     -0.00      0.00
                               -0.00   6751.88     -0.00
                                0.00     -0.00   6751.38

     corecor stress (kbar) -10976.61      0.00     -0.00
                                0.00 -10976.61      0.00
                               -0.00      0.00 -10976.69

     ewald   stress (kbar) -13830.65     -0.24      0.24
                               -0.24 -13831.04     -0.20
                                0.24     -0.20 -17546.84

     hubbard stress (kbar)      0.00      0.00      0.00
                                0.00      0.00      0.00
                                0.00      0.00      0.00

     DFT-D   stress (kbar)      0.00      0.00      0.00
                                0.00      0.00      0.00
                                0.00      0.00      0.00

     XDM     stress (kbar)      0.00      0.00      0.00
                                0.00      0.00      0.00
                                0.00      0.00      0.00

     dft-nl  stress (kbar)     81.62      0.00     -0.00
                                0.00     81.62      0.00
                               -0.00      0.00     82.45

     TS-vdW  stress (kbar)      0.00      0.00      0.00
                                0.00      0.00      0.00
                                0.00      0.00      0.00

     MDB     stress (kbar)      0.00      0.00      0.00
                                0.00      0.00      0.00
                                0.00      0.00      0.00

     3D-RISM stress (kbar)      0.00      0.00      0.00
                                0.00      0.00      0.00
                                0.00      0.00      0.00


     BFGS Geometry Optimization
     Energy error            =      0.0E+00 Ry
     Gradient error          =      5.5E-03 Ry/Bohr

     number of scf cycles    =   1
     number of bfgs steps    =   0

     energy             new  =  -15292.2530656293 Ry

     new trust radius        =       0.0065838536 bohr
     new conv_thr            =       0.0000001000 Ry


ATOMIC_POSITIONS (angstrom)
Pb            2.3557014279        4.0798033231        7.3776611108
Pb            0.0001479856        8.1597904873       14.7552878481
Pb            0.0000506190        8.1598641406        7.3775840687
Pb            7.0670490123        4.0796950029       14.7554209108
Pb            7.0669656104        4.0797840471        7.3777206846
Pb            4.7114098875        8.1597574573       14.7553390723
Pb            4.7113169969        8.1598437126        7.3776447635
I             2.3557313040        1.3598705244        5.4835791275
I             2.3558254546        1.3577796733       12.8632519443
I             0.0001744475        5.4397727115        5.4835024487
I            -0.0014668945        5.4406930089       12.8631777581
I             7.0670077169        1.3597486396        5.4841069370
I             7.0670984957        1.3596677439       12.8600168735
I             4.7112637049        5.4397596410        5.4835674034
I             4.7130996156        5.4406811453       12.8632478387
I            -0.0016762815        2.7189483553        1.8920834517
I             0.0001531680        2.7198656269        9.2717436389
I            -2.3556973294        6.7999490364        1.8952822732
I            -2.3556104028        6.7998684336        9.2712196998
I             4.7128906815        2.7189536417        1.8921159719
I             4.7112454293        2.7198764400        9.2718224990
I             2.3556118576        6.8018369466        1.8920474602
I             2.3557085945        6.7997488541        9.2717438747



     Writing config-only to output data dir ./PbI2.save/
     NEW-OLD atomic charge density approx. for the potential

     Check: negative core charge=   -0.000002


     -----------------------------------------------
     Non-local corr. energy    =      11.26492013 Ry
     -----------------------------------------------


     total cpu time spent up to now is      633.0 secs

     Self-consistent Calculation

     iteration #  1     ecut=    70.00 Ry     beta= 0.70
     Davidson diagonalization with overlap

---- Real-time Memory Report at c_bands before calling an iterative solver
           521 MiB given to the printing process from OS
             0 MiB allocation reported by mallinfo(arena+hblkhd)
       1986848 MiB available memory on the node where the printing process lives
------------------
     ethr =  1.00E-06,  avg # of iterations =  3.0

     Threshold (ethr) on eigenvalues was too large:
     Diagonalizing with lowered threshold

     Davidson diagonalization with overlap

---- Real-time Memory Report at c_bands before calling an iterative solver
           521 MiB given to the printing process from OS
             0 MiB allocation reported by mallinfo(arena+hblkhd)
       1989387 MiB available memory on the node where the printing process lives
------------------
     ethr =  2.49E-09,  avg # of iterations = 10.8


     -----------------------------------------------
     Non-local corr. energy    =      11.26470900 Ry
     -----------------------------------------------


     total cpu time spent up to now is      684.4 secs

     total energy              =  -15292.25333964 Ry
     estimated scf accuracy    <       0.00001007 Ry

     iteration #  2     ecut=    70.00 Ry     beta= 0.70
     Davidson diagonalization with overlap

---- Real-time Memory Report at c_bands before calling an iterative solver
           521 MiB given to the printing process from OS
             0 MiB allocation reported by mallinfo(arena+hblkhd)
       1984523 MiB available memory on the node where the printing process lives
------------------
     ethr =  2.72E-09,  avg # of iterations = 12.3


     -----------------------------------------------
     Non-local corr. energy    =      11.26475252 Ry
     -----------------------------------------------


     total cpu time spent up to now is      717.4 secs

     total energy              =  -15292.25332991 Ry
     estimated scf accuracy    <       0.00013302 Ry

     iteration #  3     ecut=    70.00 Ry     beta= 0.70
     Davidson diagonalization with overlap

---- Real-time Memory Report at c_bands before calling an iterative solver
           521 MiB given to the printing process from OS
             0 MiB allocation reported by mallinfo(arena+hblkhd)
       1986954 MiB available memory on the node where the printing process lives
------------------
     ethr =  2.72E-09,  avg # of iterations = 12.5


     -----------------------------------------------
     Non-local corr. energy    =      11.26479733 Ry
     -----------------------------------------------


     total cpu time spent up to now is      745.8 secs

     total energy              =  -15292.25334202 Ry
     estimated scf accuracy    <       0.00006913 Ry

     iteration #  4     ecut=    70.00 Ry     beta= 0.70
     Davidson diagonalization with overlap

---- Real-time Memory Report at c_bands before calling an iterative solver
           521 MiB given to the printing process from OS
             0 MiB allocation reported by mallinfo(arena+hblkhd)
       1988960 MiB available memory on the node where the printing process lives
------------------
     ethr =  2.72E-09,  avg # of iterations = 11.5


     -----------------------------------------------
     Non-local corr. energy    =      11.26484431 Ry
     -----------------------------------------------


     total cpu time spent up to now is      771.0 secs

     total energy              =  -15292.25334810 Ry
     estimated scf accuracy    <       0.00001060 Ry

     iteration #  5     ecut=    70.00 Ry     beta= 0.70
     Davidson diagonalization with overlap

---- Real-time Memory Report at c_bands before calling an iterative solver
           521 MiB given to the printing process from OS
             0 MiB allocation reported by mallinfo(arena+hblkhd)
       1987281 MiB available memory on the node where the printing process lives
------------------
     ethr =  2.72E-09,  avg # of iterations =  8.5


     -----------------------------------------------
     Non-local corr. energy    =      11.26487876 Ry
     -----------------------------------------------


     total cpu time spent up to now is      790.2 secs

     total energy              =  -15292.25335011 Ry
     estimated scf accuracy    <       0.00000038 Ry

     iteration #  6     ecut=    70.00 Ry     beta= 0.70
     Davidson diagonalization with overlap

---- Real-time Memory Report at c_bands before calling an iterative solver
           521 MiB given to the printing process from OS
             0 MiB allocation reported by mallinfo(arena+hblkhd)
       1984812 MiB available memory on the node where the printing process lives
------------------
     ethr =  1.03E-10,  avg # of iterations = 12.5


     -----------------------------------------------
     Non-local corr. energy    =      11.26492276 Ry
     -----------------------------------------------


     total cpu time spent up to now is      819.3 secs

     End of self-consistent calculation

          k = 0.0000 0.0000 0.0000 ( 75645 PWs)   bands (ev):

   -41.6358 -41.6358 -41.6357 -41.6357 -41.6356 -41.6356 -41.6352 -41.6352
   -41.6352 -41.6351 -41.6351 -41.6350 -41.6347 -41.6347 -41.6346 -41.6346
   -41.6346 -41.6345 -41.6344 -41.6344 -41.6343 -41.6343 -41.6343 -41.6342
   -41.6340 -41.6340 -41.6339 -41.6339 -41.6338 -41.6338 -41.5920 -41.5920
   -41.5919 -41.5919 -41.5906 -41.5906 -41.5906 -41.5906 -41.5902 -41.5901
   -41.1153 -41.1153 -41.1151 -41.1151 -41.1147 -41.1147 -41.1145 -41.1145
   -41.1145 -41.1143 -40.7021 -40.7020 -40.7019 -40.7018 -40.7018 -40.7018
   -40.7018 -40.7017 -40.7016 -40.7015 -40.7015 -40.7015 -40.6502 -40.6500
   -40.6499 -40.6499 -40.6498 -40.6498 -40.6488 -40.6487 -40.6486 -40.6485
   -40.6485 -40.6485 -40.6325 -40.6323 -40.6322 -40.6322 -40.6321 -40.6321
   -13.8407 -13.8407 -13.8252 -13.8228 -13.8228 -13.8128 -13.8060 -13.8060
   -13.7950 -13.7923 -13.7923 -13.7923 -13.7909 -13.7892 -13.7892 -13.7875
   -13.7875 -13.7813 -13.7812 -13.7787 -13.1447 -13.1227 -13.1227 -13.1124
   -13.1108 -13.1108 -13.1028 -13.1028 -13.1011 -13.0953 -13.0953 -13.0814
   -13.0779 -13.0752 -13.0752  -8.9125  -8.4947  -8.4619  -8.4619  -8.4199
    -8.3650  -8.3650  -8.3295  -8.1165  -7.9615  -7.5215  -7.4549  -7.4209
    -7.4209  -7.3714  -7.3713  -4.5285  -4.5073  -4.5073  -4.0314  -3.7689
    -3.7688  -3.4043   0.1246   0.1247   0.1247   1.0043   1.0044   1.0233
     1.0930   1.0930   1.1113   1.1283   1.1283   1.1751   1.6029   1.7779
     1.7969   1.7969   1.8786   1.8787   1.9109   1.9854   1.9854   1.9881
     2.0004   2.0010   2.0011   2.0202   2.0203   2.0548   2.0895   2.0895
     2.2198   2.2682   2.2685   2.4402   2.5634   2.5634   2.6267   2.9082
     2.9083   2.9234   3.0188   3.0590   3.0591   3.1664   3.2267   3.2268
     3.3090   3.3091   5.1623   5.8466   5.8467   5.8604   5.9659   5.9660
     6.1511   6.5365   6.5366   6.5384   6.6224   6.6371   6.6373   6.8010
     6.8012   7.0308   7.0309   7.2663   7.4076   7.6062   7.6065   8.5455
     8.5455   8.5531   9.1151   9.6217   9.6774   9.6776   9.7695  10.4308
    10.5256  10.5550  10.5551  10.5602  10.5602  10.8581  10.9719

     occupation numbers 
     1.0000   1.0000   1.0000   1.0000   1.0000   1.0000   1.0000   1.0000
     1.0000   1.0000   1.0000   1.0000   1.0000   1.0000   1.0000   1.0000
     1.0000   1.0000   1.0000   1.0000   1.0000   1.0000   1.0000   1.0000
     1.0000   1.0000   1.0000   1.0000   1.0000   1.0000   1.0000   1.0000
     1.0000   1.0000   1.0000   1.0000   1.0000   1.0000   1.0000   1.0000
     1.0000   1.0000   1.0000   1.0000   1.0000   1.0000   1.0000   1.0000
     1.0000   1.0000   1.0000   1.0000   1.0000   1.0000   1.0000   1.0000
     1.0000   1.0000   1.0000   1.0000   1.0000   1.0000   1.0000   1.0000
     1.0000   1.0000   1.0000   1.0000   1.0000   1.0000   1.0000   1.0000
     1.0000   1.0000   1.0000   1.0000   1.0000   1.0000   1.0000   1.0000
     1.0000   1.0000   1.0000   1.0000   1.0000   1.0000   1.0000   1.0000
     1.0000   1.0000   1.0000   1.0000   1.0000   1.0000   1.0000   1.0000
     1.0000   1.0000   1.0000   1.0000   1.0000   1.0000   1.0000   1.0000
     1.0000   1.0000   1.0000   1.0000   1.0000   1.0000   1.0000   1.0000
     1.0000   1.0000   1.0000   1.0000   1.0000   1.0000   1.0000   1.0000
     1.0000   1.0000   1.0000   1.0000   1.0000   1.0000   1.0000   1.0000
     1.0000   1.0000   1.0000   1.0000   1.0000   1.0000   1.0000   1.0000
     1.0000   1.0000   1.0000   1.0000   1.0000   1.0000   1.0000   1.0000
     1.0000   1.0000   1.0000   1.0000   1.0000   1.0000   1.0000   1.0000
     1.0000   1.0000   1.0000   1.0000   1.0000   1.0000   1.0000   1.0000
     1.0000   1.0000   1.0000   1.0000   1.0000   1.0000   1.0000   1.0000
     1.0000   1.0000   1.0000   1.0000   1.0000   1.0000   1.0000   1.0000
     1.0000   1.0000   1.0000   0.9997   0.9997   0.9909   0.9586   0.9585
     0.8103   0.8101   0.0000   0.0000   0.0000   0.0000   0.0000   0.0000
     0.0000   0.0000   0.0000   0.0000   0.0000   0.0000   0.0000   0.0000
     0.0000   0.0000   0.0000   0.0000   0.0000   0.0000   0.0000   0.0000
     0.0000   0.0000   0.0000   0.0000   0.0000   0.0000   0.0000   0.0000
     0.0000   0.0000   0.0000   0.0000   0.0000   0.0000   0.0000

          k = 0.0000-0.5774 0.0000 ( 75730 PWs)   bands (ev):

   -41.6358 -41.6358 -41.6357 -41.6357 -41.6356 -41.6356 -41.6352 -41.6352
   -41.6351 -41.6351 -41.6351 -41.6350 -41.6347 -41.6347 -41.6346 -41.6346
   -41.6346 -41.6345 -41.6344 -41.6344 -41.6343 -41.6343 -41.6343 -41.6342
   -41.6340 -41.6340 -41.6339 -41.6339 -41.6338 -41.6338 -41.5920 -41.5920
   -41.5919 -41.5919 -41.5906 -41.5906 -41.5906 -41.5906 -41.5902 -41.5901
   -41.1153 -41.1153 -41.1151 -41.1151 -41.1147 -41.1147 -41.1145 -41.1145
   -41.1145 -41.1143 -40.7021 -40.7020 -40.7019 -40.7018 -40.7018 -40.7018
   -40.7018 -40.7017 -40.7016 -40.7015 -40.7015 -40.7015 -40.6502 -40.6500
   -40.6499 -40.6499 -40.6498 -40.6498 -40.6488 -40.6487 -40.6486 -40.6486
   -40.6485 -40.6485 -40.6325 -40.6323 -40.6322 -40.6322 -40.6321 -40.6321
   -13.8383 -13.8369 -13.8241 -13.8223 -13.8219 -13.8099 -13.8054 -13.8016
   -13.7999 -13.7983 -13.7916 -13.7912 -13.7897 -13.7897 -13.7895 -13.7871
   -13.7862 -13.7855 -13.7846 -13.7807 -13.1372 -13.1297 -13.1223 -13.1114
   -13.1071 -13.1071 -13.1057 -13.1057 -13.1021 -13.0962 -13.0920 -13.0866
   -13.0770 -13.0762 -13.0752  -8.7232  -8.7128  -8.4797  -8.4629  -8.4075
    -8.3880  -8.3475  -8.3208  -8.0454  -7.9956  -7.5341  -7.5054  -7.4437
    -7.4296  -7.3569  -7.3491  -4.5107  -4.4960  -4.2522  -4.2373  -3.7580
    -3.6279  -3.5033   0.4238   0.4419   0.5798   0.6044   0.7491   0.7505
     1.0495   1.0575   1.1539   1.2064   1.2529   1.3006   1.4145   1.4309
     1.4333   1.5546   1.5902   1.6761   1.6985   1.8099   1.8331   1.8983
     1.9485   2.0113   2.0325   2.0653   2.0939   2.1526   2.2319   2.4055
     2.4060   2.4317   2.4515   2.5035   2.5191   2.5219   2.6566   2.7207
     2.7873   2.8199   2.8900   3.0378   3.1441   3.1669   3.2347   3.2715
     3.2970   3.3075   5.7281   5.7387   6.2780   6.2836   6.3246   6.3458
     6.3936   6.4695   6.4808   6.5021   6.5334   6.7566   6.7802   6.9381
     7.0399   7.1784   7.1970   7.2055   7.2484   7.2844   7.5083   9.1130
     9.1277   9.5294   9.5445   9.5997   9.6117   9.7597   9.9830  10.1736
    10.2763  10.3037  10.3266  10.3615  10.4081  10.6390  10.6524

     occupation numbers 
     1.0000   1.0000   1.0000   1.0000   1.0000   1.0000   1.0000   1.0000
     1.0000   1.0000   1.0000   1.0000   1.0000   1.0000   1.0000   1.0000
     1.0000   1.0000   1.0000   1.0000   1.0000   1.0000   1.0000   1.0000
     1.0000   1.0000   1.0000   1.0000   1.0000   1.0000   1.0000   1.0000
     1.0000   1.0000   1.0000   1.0000   1.0000   1.0000   1.0000   1.0000
     1.0000   1.0000   1.0000   1.0000   1.0000   1.0000   1.0000   1.0000
     1.0000   1.0000   1.0000   1.0000   1.0000   1.0000   1.0000   1.0000
     1.0000   1.0000   1.0000   1.0000   1.0000   1.0000   1.0000   1.0000
     1.0000   1.0000   1.0000   1.0000   1.0000   1.0000   1.0000   1.0000
     1.0000   1.0000   1.0000   1.0000   1.0000   1.0000   1.0000   1.0000
     1.0000   1.0000   1.0000   1.0000   1.0000   1.0000   1.0000   1.0000
     1.0000   1.0000   1.0000   1.0000   1.0000   1.0000   1.0000   1.0000
     1.0000   1.0000   1.0000   1.0000   1.0000   1.0000   1.0000   1.0000
[...]
     atom   19 type  2   force =     0.00000970    0.00000003    0.00014372
     atom   20 type  2   force =    -0.00011578    0.00008281   -0.00035366
     atom   21 type  2   force =    -0.00009760    0.00005314    0.00026202
     atom   22 type  2   force =     0.00001553   -0.00014238   -0.00036480
     atom   23 type  2   force =    -0.00000910   -0.00011248    0.00026755
     The non-local contrib.  to forces
     atom    1 type  1   force =     0.00003495   -0.00001010    0.00005028
     atom    2 type  1   force =    -0.00000624    0.00000010    0.00002443
     atom    3 type  1   force =     0.00000961   -0.00002744   -0.00012291
     atom    4 type  1   force =    -0.00003502    0.00004195   -0.00005232
     atom    5 type  1   force =    -0.00002039   -0.00001225    0.00003011
     atom    6 type  1   force =     0.00008435   -0.00011116   -0.00010106
     atom    7 type  1   force =     0.00000500   -0.00005477    0.00003058
     atom    8 type  2   force =     0.00002683   -0.00153470    0.26649691
     atom    9 type  2   force =    -0.00002452   -0.12003107    0.13545164
     atom   10 type  2   force =    -0.00133127    0.00080815    0.26650143
     atom   11 type  2   force =    -0.10394413    0.06000752    0.13542677
     atom   12 type  2   force =    -0.00002963   -0.00000019    0.28041148
     atom   13 type  2   force =    -0.00000742    0.00001288    0.21304706
     atom   14 type  2   force =     0.00132349    0.00076930    0.26649961
     atom   15 type  2   force =     0.10395448    0.06005019    0.13552021
     atom   16 type  2   force =    -0.10390940   -0.05995877   -0.13540456
     atom   17 type  2   force =    -0.00133258   -0.00074947   -0.26644842
     atom   18 type  2   force =    -0.00003664   -0.00000941   -0.21308212
     atom   19 type  2   force =    -0.00002180   -0.00001009   -0.28035662
     atom   20 type  2   force =     0.10390393   -0.05997755   -0.13549487
     atom   21 type  2   force =     0.00132604   -0.00072224   -0.26646396
     atom   22 type  2   force =    -0.00001178    0.11994630   -0.13548589
     atom   23 type  2   force =     0.00001777    0.00152433   -0.26646042
     The ionic contribution  to forces
     atom    1 type  1   force =    -0.00213513   -0.00056797    0.00470069
     atom    2 type  1   force =     0.00071479   -0.00014000   -0.00892425
     atom    3 type  1   force =    -0.00036470    0.00035774    0.01036549
     atom    4 type  1   force =     0.00092041   -0.00225157   -0.00524903
     atom    5 type  1   force =     0.00186703   -0.00037637    0.00585228
     atom    6 type  1   force =    -0.00353155    0.00341356   -0.00439180
     atom    7 type  1   force =     0.00003179    0.00261196    0.00550300
     atom    8 type  2   force =    -0.00196479    0.78195668  -17.46524576
     atom    9 type  2   force =    -0.00122615    8.56182953   -7.82741838
     atom   10 type  2   force =     0.67533514   -0.39379089  -17.46445411
     atom   11 type  2   force =     7.41358775   -4.28232476   -7.82820392
     atom   12 type  2   force =     0.00221683    0.00224539  -16.86053996
     atom   13 type  2   force =     0.00187342    0.00107430  -11.49640447
     atom   14 type  2   force =    -0.67537638   -0.39155708  -17.46785466
     atom   15 type  2   force =    -7.41489027   -4.28228849   -7.82829838
     atom   16 type  2   force =     7.41126855    4.27785314    7.80730038
     atom   17 type  2   force =     0.67529062    0.39107874   17.48114144
     atom   18 type  2   force =    -0.00233985   -0.00200041   11.48201915
     atom   19 type  2   force =     0.00379125    0.00034051   16.87757936
     atom   20 type  2   force =    -7.41128097    4.28423896    7.81031291
     atom   21 type  2   force =    -0.67525743    0.38695817   17.48146314
     atom   22 type  2   force =     0.00499243   -8.55923872    7.80856341
     atom   23 type  2   force =    -0.00352277   -0.77942244   17.48218346
     The local contribution  to forces
     atom    1 type  1   force =     0.00209446    0.00057789   -0.00474823
     atom    2 type  1   force =    -0.00069978    0.00013886    0.00890052
     atom    3 type  1   force =     0.00035337   -0.00032907   -0.01022833
     atom    4 type  1   force =    -0.00085812    0.00219089    0.00531789
     atom    5 type  1   force =    -0.00184199    0.00038955   -0.00587699
     atom    6 type  1   force =     0.00343380   -0.00326869    0.00451639
     atom    7 type  1   force =    -0.00003653   -0.00255002   -0.00552767
     atom    8 type  2   force =     0.00194097   -0.78029286   17.20414896
     atom    9 type  2   force =     0.00124530   -8.44433444    7.69540106
     atom   10 type  2   force =    -0.67389497    0.39291859   17.20335804
     atom   11 type  2   force =    -7.31183963    4.22357906    7.69620637
     atom   12 type  2   force =    -0.00218990   -0.00224061   16.58580783
     atom   13 type  2   force =    -0.00186373   -0.00108252   11.28727522
     atom   14 type  2   force =     0.67394295    0.39071911   17.20675124
     atom   15 type  2   force =     7.31312016    4.22349873    7.69620120
     atom   16 type  2   force =    -7.30957012   -4.21917275   -7.67537116
     atom   17 type  2   force =    -0.67385179   -0.39026181  -17.22006421
     atom   18 type  2   force =     0.00237106    0.00200416  -11.27287293
     atom   19 type  2   force =    -0.00375689   -0.00032925  -16.60287938
     atom   20 type  2   force =     7.30957987   -4.22552181   -7.67827993
     atom   21 type  2   force =     0.67382518   -0.38618178  -17.22037729
     atom   22 type  2   force =    -0.00496940    8.44183494   -7.67655001
     atom   23 type  2   force =     0.00349355    0.77777681  -17.22109524
     The core correction contribution to forces
     atom    1 type  1   force =    -0.00000018    0.00000013    0.00000046
     atom    2 type  1   force =     0.00000066    0.00000083   -0.00000109
     atom    3 type  1   force =     0.00000020    0.00000044    0.00000258
     atom    4 type  1   force =    -0.00000146   -0.00000071   -0.00000090
     atom    5 type  1   force =     0.00000004   -0.00000015    0.00000068
     atom    6 type  1   force =    -0.00000143   -0.00000012   -0.00000086
     atom    7 type  1   force =    -0.00000028    0.00000048    0.00000058
     atom    8 type  2   force =    -0.00000166   -0.00000053   -0.00564587
     atom    9 type  2   force =     0.00000056    0.00268367   -0.00310210
     atom   10 type  2   force =    -0.00000314    0.00000226   -0.00564658
     atom   11 type  2   force =     0.00232706   -0.00134278   -0.00310262
     atom   12 type  2   force =     0.00000046    0.00000280   -0.00580105
     atom   13 type  2   force =    -0.00000016    0.00000295   -0.00481158
     atom   14 type  2   force =     0.00000210    0.00000363   -0.00564675
     atom   15 type  2   force =    -0.00232508   -0.00134253   -0.00310410
     atom   16 type  2   force =     0.00232503    0.00134214    0.00309838
     atom   17 type  2   force =    -0.00000354    0.00000037    0.00563695
     atom   18 type  2   force =    -0.00000020    0.00000250    0.00481228
     atom   19 type  2   force =     0.00000069    0.00000294    0.00579711
     atom   20 type  2   force =    -0.00232228    0.00134060    0.00309937
     atom   21 type  2   force =     0.00000245   -0.00000113    0.00563855
     atom   22 type  2   force =    -0.00000009   -0.00268440    0.00309883
     atom   23 type  2   force =    -0.00000177    0.00000613    0.00563761
     The Hubbard contrib.    to forces
     atom    1 type  1   force =     0.00000000    0.00000000    0.00000000
     atom    2 type  1   force =     0.00000000    0.00000000    0.00000000
     atom    3 type  1   force =     0.00000000    0.00000000    0.00000000
     atom    4 type  1   force =     0.00000000    0.00000000    0.00000000
     atom    5 type  1   force =     0.00000000    0.00000000    0.00000000
     atom    6 type  1   force =     0.00000000    0.00000000    0.00000000
     atom    7 type  1   force =     0.00000000    0.00000000    0.00000000
     atom    8 type  2   force =     0.00000000    0.00000000    0.00000000
     atom    9 type  2   force =     0.00000000    0.00000000    0.00000000
     atom   10 type  2   force =     0.00000000    0.00000000    0.00000000
     atom   11 type  2   force =     0.00000000    0.00000000    0.00000000
     atom   12 type  2   force =     0.00000000    0.00000000    0.00000000
     atom   13 type  2   force =     0.00000000    0.00000000    0.00000000
     atom   14 type  2   force =     0.00000000    0.00000000    0.00000000
     atom   15 type  2   force =     0.00000000    0.00000000    0.00000000
     atom   16 type  2   force =     0.00000000    0.00000000    0.00000000
     atom   17 type  2   force =     0.00000000    0.00000000    0.00000000
     atom   18 type  2   force =     0.00000000    0.00000000    0.00000000
     atom   19 type  2   force =     0.00000000    0.00000000    0.00000000
     atom   20 type  2   force =     0.00000000    0.00000000    0.00000000
     atom   21 type  2   force =     0.00000000    0.00000000    0.00000000
     atom   22 type  2   force =     0.00000000    0.00000000    0.00000000
     atom   23 type  2   force =     0.00000000    0.00000000    0.00000000
     The SCF correction term to forces
     atom    1 type  1   force =     0.00000129    0.00000047   -0.00001646
     atom    2 type  1   force =    -0.00001132   -0.00000542    0.00000445
     atom    3 type  1   force =    -0.00000173   -0.00000078   -0.00001821
     atom    4 type  1   force =    -0.00000578    0.00001520    0.00000141
     atom    5 type  1   force =    -0.00000126    0.00000248   -0.00001717
     atom    6 type  1   force =     0.00001150   -0.00001187    0.00000053
     atom    7 type  1   force =     0.00000167   -0.00000215   -0.00001703
     atom    8 type  2   force =    -0.00000148   -0.00000858   -0.00001761
     atom    9 type  2   force =    -0.00000309   -0.00001163    0.00001319
     atom   10 type  2   force =    -0.00000898    0.00000258   -0.00001711
     atom   11 type  2   force =    -0.00001251    0.00000282    0.00001290
     atom   12 type  2   force =     0.00000122    0.00000156   -0.00001171
     atom   13 type  2   force =     0.00000304    0.00000291    0.00001184
     atom   14 type  2   force =     0.00000917    0.00000415   -0.00001392
     atom   15 type  2   force =     0.00001182    0.00000573    0.00001211
     atom   16 type  2   force =    -0.00000214   -0.00000053    0.00001044
     atom   17 type  2   force =    -0.00000607   -0.00000305   -0.00000385
     atom   18 type  2   force =    -0.00000421   -0.00000311   -0.00000036
     atom   19 type  2   force =    -0.00000370   -0.00000265    0.00000040
     atom   20 type  2   force =     0.00000353    0.00000403    0.00000601
     atom   21 type  2   force =     0.00000602    0.00000155   -0.00000128
     atom   22 type  2   force =     0.00000423    0.00000093    0.00000602
     atom   23 type  2   force =     0.00000397    0.00000413   -0.00000072

     Total force =     0.001713     Total SCF correction =     0.000068


     Computing stress (Cartesian axis) and pressure



     -----------------------------------------------
     Non-local corr. energy    =      11.26224398 Ry
     -----------------------------------------------

          total   stress  (Ry/bohr**3)                   (kbar)     P=       13.50
   0.00008924  -0.00000000   0.00000001           13.13       -0.00        0.00
  -0.00000000   0.00008925   0.00000000           -0.00       13.13        0.00
   0.00000001   0.00000000   0.00009683            0.00        0.00       14.24

     kinetic stress (kbar)  14173.47      0.00     -0.00
                                0.00  14173.46     -0.00
                               -0.00     -0.00  14187.09

     local   stress (kbar)  -7552.20     -0.18     -0.33
                               -0.18  -7551.97     -0.14
                               -0.33     -0.14    207.19

     nonloc. stress (kbar)   -735.65      0.00     -0.00
                                0.00   -735.65     -0.00
                               -0.00     -0.00   -737.39

     hartree stress (kbar)  11846.55      0.09      0.14
                                0.09  11846.43      0.05
                                0.14      0.05   8338.30

     exc-cor stress (kbar)   6751.56     -0.00      0.00
                               -0.00   6751.56      0.00
                                0.00      0.00   6750.70

     corecor stress (kbar) -10976.67      0.00     -0.00
                                0.00 -10976.67     -0.00
                               -0.00     -0.00 -10976.68

     ewald   stress (kbar) -13575.49      0.09      0.20
                                0.09 -13575.60      0.09
                                0.20      0.09 -17837.56

     hubbard stress (kbar)      0.00      0.00      0.00
                                0.00      0.00      0.00
                                0.00      0.00      0.00

     DFT-D   stress (kbar)      0.00      0.00      0.00
                                0.00      0.00      0.00
                                0.00      0.00      0.00

     XDM     stress (kbar)      0.00      0.00      0.00
                                0.00      0.00      0.00
                                0.00      0.00      0.00

     dft-nl  stress (kbar)     81.56      0.00     -0.00
                                0.00     81.56     -0.00
                               -0.00     -0.00     82.59

     TS-vdW  stress (kbar)      0.00      0.00      0.00
                                0.00      0.00      0.00
                                0.00      0.00      0.00

     MDB     stress (kbar)      0.00      0.00      0.00
                                0.00      0.00      0.00
                                0.00      0.00      0.00

     3D-RISM stress (kbar)      0.00      0.00      0.00
                                0.00      0.00      0.00
                                0.00      0.00      0.00

     Energy error            =      1.2E-05 Ry
     Gradient error          =      8.8E-04 Ry/Bohr

     bfgs converged in  11 scf cycles and  10 bfgs steps
     (criteria: energy <  1.0E-04 Ry, force <  1.0E-03 Ry/Bohr)

     End of BFGS Geometry Optimization

     Final energy             =  -15292.2561205576 Ry

     File ./PbI2.bfgs deleted, as requested
Begin final coordinates

ATOMIC_POSITIONS (angstrom)
Pb            2.3557755672        4.0797924486        7.3774719127
Pb            0.0001287011        8.1598893355       14.7555179076
Pb            0.0000883559        8.1598437481        7.3773974638
Pb            7.0668441587        4.0797497575       14.7554890042
Pb            7.0669338306        4.0797830759        7.3775122799
Pb            4.7113975408        8.1596823866       14.7553645621
Pb            4.7113507471        8.1597892770        7.3774844505
I             2.3557542900        1.3625344065        5.4967775295
I             2.3557855892        1.3257579805       12.9179911270
I             0.0025062773        5.4385358145        5.4967465688
I            -0.0292824477        5.4568189879       12.9181047303
I             7.0669239169        1.3597077448        5.5071073556
I             7.0669200102        1.3596868864       12.8447527725
I             4.7089030622        5.4384807835        5.4967158866
I             4.7408823590        5.4568984475       12.9181033034
I            -0.0292631308        2.7028576669        1.8378531072
I             0.0025604797        2.7211864568        9.2580550227
I            -2.3555057292        6.7999442687        1.9107609358
I            -2.3557067478        6.7998497165        9.2478434110
I             4.7408139358        2.7024916341        1.8378971066
I             4.7088429411        2.7213472479        9.2581471023
I             2.3555109561        6.8339614235        1.8379903572
I             2.3558364377        6.7969690983        9.2580837622
End final coordinates



     Writing all to output data dir ./PbI2.save/
 
     init_run     :      8.23s CPU      8.46s WALL (       1 calls)
     electrons    :   3499.65s CPU   3548.25s WALL (      11 calls)
     update_pot   :     22.32s CPU     22.52s WALL (      10 calls)
     forces       :     38.95s CPU     39.71s WALL (      11 calls)
     stress       :    402.55s CPU    405.61s WALL (      11 calls)

     Called by init_run:
     wfcinit      :      4.32s CPU      4.42s WALL (       1 calls)
     wfcinit:atom :      0.02s CPU      0.03s WALL (       4 calls)
     wfcinit:wfcr :      4.24s CPU      4.30s WALL (       4 calls)
     potinit      :      2.82s CPU      2.88s WALL (       1 calls)
     hinit0       :      0.45s CPU      0.46s WALL (       1 calls)

     Called by electrons:
     c_bands      :   3005.13s CPU   3036.19s WALL (     144 calls)
     sum_band     :    289.57s CPU    298.17s WALL (     144 calls)
     v_of_rho     :     81.87s CPU     83.65s WALL (     146 calls)
     v_h          :      0.85s CPU      0.85s WALL (     146 calls)
     v_xc         :     93.15s CPU     95.15s WALL (     168 calls)
     newd         :     63.14s CPU     69.29s WALL (     146 calls)
     PAW_pot      :     76.07s CPU     76.55s WALL (     156 calls)
     mix_rho      :      3.66s CPU      3.76s WALL (     144 calls)
     vdW_kernel   :      1.33s CPU      1.34s WALL (       1 calls)

     Called by c_bands:
     init_us_2    :      5.78s CPU      5.85s WALL (    1284 calls)
     init_us_2:cp :      5.77s CPU      5.84s WALL (    1284 calls)
     cegterg      :   2943.60s CPU   2973.83s WALL (     576 calls)

     Called by sum_band:
     sum_band:wei :      0.07s CPU      0.08s WALL (     144 calls)
     sum_band:loo :    213.12s CPU    214.76s WALL (     144 calls)
     sum_band:buf :      1.17s CPU      1.22s WALL (     576 calls)
     sum_band:ini :      2.64s CPU      2.66s WALL (     576 calls)
     sum_band:cal :     52.87s CPU     53.19s WALL (     616 calls)
     sum_band:bec :      0.38s CPU      0.39s WALL (     616 calls)
     addusdens    :     26.83s CPU     33.49s WALL (     144 calls)
     addusd:skk   :      0.45s CPU      0.54s WALL (     288 calls)
     addusd:dgemm :      6.99s CPU     13.26s WALL (     288 calls)
     addusd:qvan2 :     17.96s CPU     18.07s WALL (     288 calls)

     Called by *egterg:
     cdiaghg      :    946.05s CPU    951.61s WALL (    5727 calls)
     cegterg:over :    398.33s CPU    400.73s WALL (    5227 calls)
     cegterg:upda :    144.65s CPU    147.78s WALL (    5227 calls)
     cegterg:last :     65.21s CPU     65.63s WALL (     588 calls)
     h_psi        :   1074.89s CPU   1087.02s WALL (    5807 calls)
     s_psi        :    119.56s CPU    120.48s WALL (    5807 calls)
     g_psi        :      1.47s CPU      1.48s WALL (    5227 calls)

     Called by h_psi:
     h_psi:calbec :    174.86s CPU    175.97s WALL (    5807 calls)
     vloc_psi     :    775.40s CPU    782.08s WALL (    5807 calls)
     add_vuspsi   :    122.24s CPU    123.05s WALL (    5807 calls)

     General routines
     calbec       :    447.89s CPU    450.31s WALL (    6643 calls)
     fft          :    111.88s CPU    112.52s WALL (   11054 calls)
     ffts         :      1.06s CPU      1.08s WALL (     290 calls)
     fftw         :    887.04s CPU    894.55s WALL (  810614 calls)
     interpolate  :      1.37s CPU      1.39s WALL (     146 calls)
 
     Parallel routines

     PAW routines
     PAW_pot      :     76.07s CPU     76.55s WALL (     156 calls)
 
     PWSCF        :      1h 6m CPU      1h 7m WALL

 
   This run was terminated on:  23:43: 9  27Mar2024            

=------------------------------------------------------------------------------=
   JOB DONE.
=------------------------------------------------------------------------------=
