
     Program PWSCF v.7.1 starts on 28Mar2024 at  6:31:37 

     This program is part of the open-source Quantum ESPRESSO suite
     for quantum simulation of materials; please cite
         "P. Giannozzi et al., J. Phys.:Condens. Matter 21 395502 (2009);
         "P. Giannozzi et al., J. Phys.:Condens. Matter 29 465901 (2017);
         "P. Giannozzi et al., J. Chem. Phys. 152 154105 (2020);
          URL http://www.quantum-espresso.org", 
     in publications or presentations arising from this work. More details at
     http://www.quantum-espresso.org/quote

     Parallel version (MPI & OpenMP), running on      20 processor cores
     Number of MPI processes:                20
     Threads/MPI process:                     1

     MPI processes distributed on     1 nodes
     1958319 MiB available memory on the printing compute node when the environment starts
 
     Reading input from espresso.pwi
Warning: card &CELL ignored
Warning: card    CELL_DYNAMICS    = 'BFGS' ignored
Warning: card / ignored

     Current dimensions of program PWSCF are:
     Max number of different atomic species (ntypx) = 10
     Max number of k-points (npk) =  40000
     Max angular momentum in pseudopotentials (lmaxx) =  4
     file Pb.pbe-dn-kjpaw_psl.1.0.0.UPF: wavefunction(s)  6S 6P 5D renormalized
     file I.pbe-dn-kjpaw_psl.1.0.0.UPF: wavefunction(s)  5S 5P renormalized

     **************************************************************************
     Initializing libbeef V0.1.2 with the BEEF-vdW functional.
     Citation: Wellendorff et al., PRB 85, 235149 (2012).
     **************************************************************************


     IMPORTANT: XC functional enforced from input :
     Exchange-correlation= BEEF-VDW
                           (   1   4  43  14   2   0   0)
     Any further DFT definition will be discarded
     Please, verify this is what you really want

 
     R & G space division:  proc/nbgrp/npool/nimage =      20
     Subspace diagonalization in iterative solution of the eigenvalue problem:
     a serial algorithm will be used

 
     Parallelization info
     --------------------
     sticks:   dense  smooth     PW     G-vecs:    dense   smooth      PW
     Min         381     306     80                42326    30292    4074
     Max         383     307     81                42331    30298    4079
     Sum        7639    6121   1615               846533   605897   81527
 
     Using Slab Decomposition
 


     bravais-lattice index     =            4
     lattice parameter (alat)  =      17.8060  a.u.
     unit-cell volume          =    7656.2263 (a.u.)^3
     number of atoms/cell      =           23
     number of atomic types    =            2
     number of electrons       =       371.00
     number of Kohn-Sham states=          223
     kinetic-energy cutoff     =      70.0000  Ry
     charge density cutoff     =     350.0000  Ry
     scf convergence threshold =      1.0E-07
     mixing beta               =       0.7000
     number of iterations used =            8  plain     mixing
     Exchange-correlation= BEEF-VDW
                           (   1   4  43  14   2   0   0)

     celldm(1)=  17.806016  celldm(2)=   0.000000  celldm(3)=   1.565971
     celldm(4)=   0.000000  celldm(5)=   0.000000  celldm(6)=   0.000000

     crystal axes: (cart. coord. in units of alat)
               a(1) = (   1.000000   0.000000   0.000000 )  
               a(2) = (  -0.500000   0.866025   0.000000 )  
               a(3) = (   0.000000   0.000000   1.565971 )  

     reciprocal axes: (cart. coord. in units 2 pi/alat)
               b(1) = (  1.000000  0.577350 -0.000000 )  
               b(2) = (  0.000000  1.154701  0.000000 )  
               b(3) = (  0.000000 -0.000000  0.638581 )  


     PseudoPot. # 1 for Pb read from file:
     /trace/group/acmegroup/atimmins/packages/espresso/pseudo/psl_1.0.0/pslibrary.1.0.0/pbe/PSEUDOPOTENTIALS/Pb.pbe-dn-kjpaw_psl.1.0.0.UPF
     MD5 check sum: 39ab5b8a6bbd56b7735ad9f188aac93a
     Pseudo is Projector augmented-wave + core cor, Zval = 14.0
     Generated using 'atomic' code by A. Dal Corso  v.7.1
     Shape of augmentation charge: PSQ
     Using radial grid of 1281 points,  6 beta functions with: 
                l(1) =   0
                l(2) =   0
                l(3) =   1
                l(4) =   1
                l(5) =   2
                l(6) =   2
     Q(r) pseudized with 0 coefficients 


     PseudoPot. # 2 for I  read from file:
     /trace/group/acmegroup/atimmins/packages/espresso/pseudo/psl_1.0.0/pslibrary.1.0.0/pbe/PSEUDOPOTENTIALS/I.pbe-dn-kjpaw_psl.1.0.0.UPF
     MD5 check sum: bfa8781bc1224d19af3f3980e3fab11e
     Pseudo is Projector augmented-wave + core cor, Zval = 17.0
     Generated using 'atomic' code by A. Dal Corso  v.7.1
     Shape of augmentation charge: PSQ
     Using radial grid of 1247 points,  6 beta functions with: 
                l(1) =   0
                l(2) =   0
                l(3) =   1
                l(4) =   1
                l(5) =   2
                l(6) =   2
     Q(r) pseudized with 0 coefficients 


     atomic species   valence    mass     pseudopotential
        Pb            14.00   207.20000     Pb( 1.00)
        I             17.00   126.90447     I ( 1.00)

     No symmetry found


                                    s                        frac. trans.

      isym =  1     identity                                     

 cryst.   s( 1) = (     1          0          0      )
                  (     0          1          0      )
                  (     0          0          1      )

 cart.    s( 1) = (  1.0000000  0.0000000  0.0000000 )
                  (  0.0000000  1.0000000  0.0000000 )
                  (  0.0000000  0.0000000  1.0000000 )


     point group C_1 (1)    
     there are  1 classes
     the character table:

       E    
A      1.00

     the symmetry operations in each class and the name of the first element:

     E        1
          identity                                               

   Cartesian axes

     site n.     atom                  positions (alat units)
         1           Pb  tau(   1) = (   0.2500068   0.4329836   0.7829793  )
         2           Pb  tau(   2) = (   0.0000153   0.8659852   1.5659567  )
         3           Pb  tau(   3) = (   0.0000051   0.8659943   0.7829710  )
         4           Pb  tau(   4) = (   0.7500170   0.4329726   1.5659715  )
         5           Pb  tau(   5) = (   0.7500068   0.4329816   0.7829858  )
         6           Pb  tau(   6) = (   0.5000153   0.8659833   1.5659633  )
         7           Pb  tau(   7) = (   0.5000051   0.8659923   0.7829776  )
         8           I   tau(   8) = (   0.2500107   0.1443099   0.5818649  )
         9           I   tau(   9) = (   0.2500209   0.1443009   1.3648506  )
        10           I   tau(  10) = (   0.0000091   0.5773207   0.5818567  )
        11           I   tau(  11) = (   0.0000193   0.5773116   1.3648424  )
        12           I   tau(  12) = (   0.7500107   0.1443080   0.5818714  )
        13           I   tau(  13) = (   0.7500209   0.1442990   1.3648571  )
        14           I   tau(  14) = (   0.5000091   0.5773187   0.5818632  )
        15           I   tau(  15) = (   0.5000193   0.5773097   1.3648489  )
        16           I   tau(  16) = (  -0.0000034   0.2886595   0.2011110  )
        17           I   tau(  17) = (   0.0000068   0.2886504   0.9840967  )
        18           I   tau(  18) = (  -0.2500051   0.7216702   0.2011027  )
        19           I   tau(  19) = (  -0.2499949   0.7216611   0.9840884  )
        20           I   tau(  20) = (   0.4999966   0.2886575   0.2011175  )
        21           I   tau(  21) = (   0.5000068   0.2886485   0.9841032  )
        22           I   tau(  22) = (   0.2499949   0.7216682   0.2011092  )
        23           I   tau(  23) = (   0.2500051   0.7216592   0.9840949  )

   Crystallographic axes

     site n.     atom                  positions (cryst. coord.)
         1           Pb  tau(   1) = (  0.4999900  0.4999663  0.4999959  )
         2           Pb  tau(   2) = (  0.4999921  0.9999536  0.9999906  )
         3           Pb  tau(   3) = (  0.4999871  0.9999640  0.4999906  )
         4           Pb  tau(   4) = (  0.9999938  0.4999537  1.0000001  )
         5           Pb  tau(   5) = (  0.9999888  0.4999641  0.5000001  )
         6           Pb  tau(   6) = (  0.9999910  0.9999514  0.9999948  )
         7           Pb  tau(   7) = (  0.9999860  0.9999618  0.4999948  )
         8           I   tau(   8) = (  0.3333281  0.1666348  0.3715680  )
         9           I   tau(   9) = (  0.3333331  0.1666243  0.8715680  )
        10           I   tau(  10) = (  0.3333253  0.6666325  0.3715628  )
        11           I   tau(  11) = (  0.3333303  0.6666220  0.8715628  )
        12           I   tau(  12) = (  0.8333270  0.1666326  0.3715722  )
        13           I   tau(  13) = (  0.8333320  0.1666221  0.8715722  )
        14           I   tau(  14) = (  0.8333242  0.6666303  0.3715669  )
        15           I   tau(  15) = (  0.8333292  0.6666198  0.8715669  )
        16           I   tau(  16) = (  0.1666542  0.3333152  0.1284257  )
        17           I   tau(  17) = (  0.1666592  0.3333048  0.6284257  )
        18           I   tau(  18) = (  0.1666514  0.8333129  0.1284204  )
        19           I   tau(  19) = (  0.1666564  0.8333025  0.6284204  )
        20           I   tau(  20) = (  0.6666531  0.3333130  0.1284299  )
        21           I   tau(  21) = (  0.6666581  0.3333026  0.6284299  )
        22           I   tau(  22) = (  0.6666503  0.8333107  0.1284246  )
        23           I   tau(  23) = (  0.6666553  0.8333003  0.6284246  )

     number of k points=     4  Gaussian smearing, width (Ry)=  0.0100
                       cart. coord. in units 2pi/alat
        k(    1) = (   0.0000000   0.0000000   0.0000000), wk =   0.5000000
        k(    2) = (   0.0000000  -0.5773503   0.0000000), wk =   0.5000000
        k(    3) = (   0.5000000  -0.2886751   0.0000000), wk =   0.5000000
        k(    4) = (  -0.5000000  -0.2886751   0.0000000), wk =   0.5000000

                       cryst. coord.
        k(    1) = (   0.0000000   0.0000000   0.0000000), wk =   0.5000000
        k(    2) = (   0.0000000  -0.5000000   0.0000000), wk =   0.5000000
        k(    3) = (   0.5000000  -0.5000000   0.0000000), wk =   0.5000000
        k(    4) = (  -0.5000000  -0.0000000   0.0000000), wk =   0.5000000

     Dense  grid:   846533 G-vectors     FFT dimensions: ( 108, 108, 180)

     Smooth grid:   605897 G-vectors     FFT dimensions: (  96,  96, 150)

     Dynamical RAM for                 wfc:      12.88 MB

     Dynamical RAM for     wfc (w. buffer):      64.41 MB

     Dynamical RAM for           str. fact:       1.29 MB

     Dynamical RAM for           local pot:       0.00 MB

     Dynamical RAM for          nlocal pot:      23.92 MB

     Dynamical RAM for                qrad:       3.00 MB

     Dynamical RAM for          rho,v,vnew:       4.34 MB

     Dynamical RAM for               rhoin:       1.45 MB

     Dynamical RAM for            rho*nmix:      10.33 MB

     Dynamical RAM for           G-vectors:       2.65 MB

     Dynamical RAM for          h,s,v(r/c):      36.42 MB

     Dynamical RAM for          <psi|beta>:       1.41 MB

     Dynamical RAM for                 psi:      51.53 MB

     Dynamical RAM for                hpsi:      51.53 MB

     Dynamical RAM for                spsi:      51.53 MB

     Dynamical RAM for      wfcinit/wfcrot:      26.91 MB

     Dynamical RAM for           addusdens:     130.48 MB

     Dynamical RAM for          addusforce:     150.24 MB

     Dynamical RAM for         addusstress:     129.83 MB

     Estimated static dynamical RAM per process >     107.01 MB

     Estimated max dynamical RAM per process >     309.77 MB

     Estimated total dynamical RAM >       6.05 GB

     Atomic positions and unit cell read from directory:
     ./PbI2.save/
     Atomic positions from file used, from input discarded
 

     Check: negative core charge=   -0.000002

     The initial density is read from file :
     ./PbI2.save/charge-density



     %%%%%%%%%%%%%%%%%%%%%%%%%%%%%%%%%%%%%%%%%%%%%%%%%%%%%%%%%%%%%%%%%%%%%%%%
     %                                                                      %
     % You are using vdW-DF, which was implemented by the Thonhauser group. %
     % Please cite the following two papers that made this development      %
     % possible and the two reviews that describe the various versions:     %
     %                                                                      %
     %   T. Thonhauser et al., PRL 115, 136402 (2015).                      %
     %   T. Thonhauser et al., PRB 76, 125112 (2007).                       %
     %   K. Berland et al., Rep. Prog. Phys. 78, 066501 (2015).             %
     %   D.C. Langreth et al., J. Phys.: Condens. Matter 21, 084203 (2009). %
     %                                                                      %
     % If you are calculating stress with vdW-DF, please also cite:         %
     %                                                                      %
     %   R. Sabatini et al., J. Phys.: Condens. Matter 24, 424209 (2012).   %
     %                                                                      %
     %%%%%%%%%%%%%%%%%%%%%%%%%%%%%%%%%%%%%%%%%%%%%%%%%%%%%%%%%%%%%%%%%%%%%%%%

     %%%%%%%%%%%%%%%%%%%%%%%%%%%%%%%%%%%%%%%%%%%%%%%%%%%%%%%%%%%%%%%%%%%%%%%%
     %                                                                      %
     %  vdW-DF NEWS:                                                        %
     %                                                                      %
     %  * vdW-DF3 is now available. DOI: 10.1021/acs.jctc.0c00471           %
     %    use with input_dft = 'vdW-DF3-opt1' or 'vdW-DF3-opt2'             %
     %                                                                      %
     %  * Unscreened and range-separated vdW-DF hybrid functionals          %
     %    DOI: 10.1063/1.4986522 and 10.1088/1361-648X/ac2ad2               %
     %    use with input_dft = 'vdW-DF-cx0' (etc) and 'vdW-DF-ahcx'         %
     %                                                                      %
     %%%%%%%%%%%%%%%%%%%%%%%%%%%%%%%%%%%%%%%%%%%%%%%%%%%%%%%%%%%%%%%%%%%%%%%%


     Carrying out vdW-DF run using the following parameters:
     Nqs    =  20  Npoints =  1024  r_max =  100.000
     q_mesh =  0.00001000  0.04494208  0.09755937  0.15916263
               0.23128650  0.31572767  0.41458969  0.53033537
               0.66584808  0.82450364  1.01025438  1.22772762
               1.48234092  1.78043706  2.12944203  2.53805004
               3.01644009  3.57652955  4.23227104  5.00000000


     -----------------------------------------------
     Non-local corr. energy    =      11.26224398 Ry
     -----------------------------------------------

     Starting wfcs from file
     Checking if some PAW data can be deallocated... 
       PAW data deallocated on   16 nodes for type:  1
       PAW data deallocated on    4 nodes for type:  2

     total cpu time spent up to now is        8.0 secs

     Self-consistent Calculation

     iteration #  1     ecut=    70.00 Ry     beta= 0.70
     Davidson diagonalization with overlap

---- Real-time Memory Report at c_bands before calling an iterative solver
           356 MiB given to the printing process from OS
             0 MiB allocation reported by mallinfo(arena+hblkhd)
       1954574 MiB available memory on the node where the printing process lives
------------------
     ethr =  1.00E-05,  avg # of iterations =  1.0

     Threshold (ethr) on eigenvalues was too large:
     Diagonalizing with lowered threshold

     Davidson diagonalization with overlap

---- Real-time Memory Report at c_bands before calling an iterative solver
           452 MiB given to the printing process from OS
             0 MiB allocation reported by mallinfo(arena+hblkhd)
       1954128 MiB available memory on the node where the printing process lives
------------------
     ethr =  1.31E-12,  avg # of iterations =  9.8


     -----------------------------------------------
     Non-local corr. energy    =      11.26224482 Ry
     -----------------------------------------------


     total cpu time spent up to now is       46.4 secs

     End of self-consistent calculation

          k = 0.0000 0.0000 0.0000 ( 75645 PWs)   bands (ev):

   -41.6588 -41.6587 -41.6587 -41.6587 -41.6586 -41.6586 -41.6585 -41.6585
   -41.6584 -41.6584 -41.6584 -41.6583 -41.6569 -41.6568 -41.6568 -41.6568
   -41.6567 -41.6567 -41.6566 -41.6566 -41.6565 -41.6565 -41.6565 -41.6564
   -41.6560 -41.6560 -41.6559 -41.6559 -41.6559 -41.6559 -41.6260 -41.6260
   -41.6260 -41.6260 -41.6229 -41.6229 -41.6229 -41.6229 -41.6216 -41.6216
   -41.0890 -41.0890 -41.0889 -41.0889 -41.0875 -41.0874 -41.0874 -41.0874
   -41.0865 -41.0864 -40.7104 -40.7100 -40.7100 -40.7099 -40.7099 -40.7098
   -40.7096 -40.7096 -40.7096 -40.7095 -40.7094 -40.7092 -40.6503 -40.6500
   -40.6500 -40.6499 -40.6499 -40.6497 -40.6441 -40.6438 -40.6438 -40.6437
   -40.6437 -40.6435 -40.6268 -40.6265 -40.6264 -40.6264 -40.6264 -40.6262
   -13.8408 -13.8408 -13.8271 -13.8200 -13.8194 -13.8194 -13.8144 -13.8143
   -13.8056 -13.8028 -13.8027 -13.8026 -13.8001 -13.7991 -13.7991 -13.7969
   -13.7969 -13.7905 -13.7905 -13.7877 -13.0955 -13.0739 -13.0738 -13.0610
   -13.0590 -13.0590 -13.0516 -13.0516 -13.0499 -13.0457 -13.0456 -13.0293
   -13.0222 -13.0193 -13.0192  -8.9535  -8.5193  -8.4911  -8.4910  -8.4624
    -8.3899  -8.3899  -8.3648  -8.1139  -7.9297  -7.5389  -7.4754  -7.4473
    -7.4472  -7.3889  -7.3888  -4.5457  -4.5346  -4.5346  -4.0289  -3.7551
    -3.7551  -3.3483   0.0857   0.0857   0.0877   0.9905   0.9906   1.0036
     1.0641   1.0641   1.0683   1.0867   1.0867   1.1531   1.6077   1.7793
     1.7975   1.7975   1.8391   1.8391   1.9058   1.9457   1.9664   1.9709
     1.9710   1.9787   1.9789   1.9838   1.9839   1.9918   2.0538   2.0538
     2.2366   2.2468   2.2468   2.4055   2.5787   2.5787   2.6462   2.8969
     2.8969   2.9034   3.0249   3.0947   3.0948   3.1797   3.2200   3.2200
     3.3100   3.3101   5.1299   5.8412   5.8412   5.8603   5.9522   5.9522
     6.1531   6.5506   6.5583   6.5583   6.6900   6.6991   6.6992   6.8147
     6.8148   7.1336   7.1338   7.3712   7.5592   7.7238   7.7239   8.5412
     8.5413   8.5471   9.0864   9.6377   9.6970   9.6971   9.7656  10.4309
    10.5219  10.5289  10.5289  10.5733  10.5733  10.8198  10.9481

     occupation numbers 
     1.0000   1.0000   1.0000   1.0000   1.0000   1.0000   1.0000   1.0000
     1.0000   1.0000   1.0000   1.0000   1.0000   1.0000   1.0000   1.0000
     1.0000   1.0000   1.0000   1.0000   1.0000   1.0000   1.0000   1.0000
     1.0000   1.0000   1.0000   1.0000   1.0000   1.0000   1.0000   1.0000
     1.0000   1.0000   1.0000   1.0000   1.0000   1.0000   1.0000   1.0000
     1.0000   1.0000   1.0000   1.0000   1.0000   1.0000   1.0000   1.0000
     1.0000   1.0000   1.0000   1.0000   1.0000   1.0000   1.0000   1.0000
     1.0000   1.0000   1.0000   1.0000   1.0000   1.0000   1.0000   1.0000
     1.0000   1.0000   1.0000   1.0000   1.0000   1.0000   1.0000   1.0000
     1.0000   1.0000   1.0000   1.0000   1.0000   1.0000   1.0000   1.0000
     1.0000   1.0000   1.0000   1.0000   1.0000   1.0000   1.0000   1.0000
     1.0000   1.0000   1.0000   1.0000   1.0000   1.0000   1.0000   1.0000
     1.0000   1.0000   1.0000   1.0000   1.0000   1.0000   1.0000   1.0000
     1.0000   1.0000   1.0000   1.0000   1.0000   1.0000   1.0000   1.0000
     1.0000   1.0000   1.0000   1.0000   1.0000   1.0000   1.0000   1.0000
     1.0000   1.0000   1.0000   1.0000   1.0000   1.0000   1.0000   1.0000
     1.0000   1.0000   1.0000   1.0000   1.0000   1.0000   1.0000   1.0000
     1.0000   1.0000   1.0000   1.0000   1.0000   1.0000   1.0000   1.0000
     1.0000   1.0000   1.0000   1.0000   1.0000   1.0000   1.0000   1.0000
     1.0000   1.0000   1.0000   1.0000   1.0000   1.0000   1.0000   1.0000
     1.0000   1.0000   1.0000   1.0000   1.0000   1.0000   1.0000   1.0000
     1.0000   1.0000   1.0000   1.0000   1.0000   1.0000   1.0000   1.0000
     1.0000   1.0000   1.0000   0.9996   0.9996   0.9938   0.9814   0.9814
     0.8743   0.8741   0.0000   0.0000   0.0000   0.0000   0.0000   0.0000
     0.0000   0.0000   0.0000   0.0000   0.0000   0.0000   0.0000   0.0000
     0.0000   0.0000   0.0000   0.0000   0.0000   0.0000   0.0000   0.0000
     0.0000   0.0000   0.0000   0.0000   0.0000   0.0000   0.0000   0.0000
     0.0000   0.0000   0.0000   0.0000   0.0000   0.0000   0.0000

          k = 0.0000-0.5774 0.0000 ( 75730 PWs)   bands (ev):

   -41.6587 -41.6587 -41.6587 -41.6587 -41.6586 -41.6586 -41.6585 -41.6585
   -41.6584 -41.6584 -41.6584 -41.6583 -41.6569 -41.6568 -41.6568 -41.6568
   -41.6567 -41.6567 -41.6566 -41.6566 -41.6565 -41.6565 -41.6565 -41.6564
   -41.6560 -41.6560 -41.6559 -41.6559 -41.6559 -41.6559 -41.6260 -41.6260
   -41.6260 -41.6260 -41.6229 -41.6229 -41.6229 -41.6229 -41.6216 -41.6216
   -41.0890 -41.0890 -41.0889 -41.0889 -41.0875 -41.0874 -41.0874 -41.0874
   -41.0865 -41.0864 -40.7104 -40.7100 -40.7100 -40.7099 -40.7099 -40.7098
   -40.7096 -40.7096 -40.7096 -40.7095 -40.7094 -40.7092 -40.6503 -40.6500
   -40.6500 -40.6499 -40.6499 -40.6497 -40.6441 -40.6438 -40.6438 -40.6437
   -40.6437 -40.6435 -40.6268 -40.6265 -40.6264 -40.6264 -40.6264 -40.6262
   -13.8372 -13.8348 -13.8213 -13.8209 -13.8187 -13.8178 -13.8166 -13.8111
   -13.8107 -13.8090 -13.8020 -13.8019 -13.7999 -13.7995 -13.7992 -13.7966
   -13.7955 -13.7948 -13.7939 -13.7900 -13.0881 -13.0806 -13.0733 -13.0598
   -13.0556 -13.0553 -13.0540 -13.0540 -13.0507 -13.0472 -13.0421 -13.0354
   -13.0212 -13.0203 -13.0192  -8.7596  -8.7520  -8.5092  -8.4965  -8.4326
    -8.4195  -8.3720  -8.3531  -8.0307  -7.9712  -7.5640  -7.5334  -7.4730
    -7.4545  -7.3633  -7.3618  -4.5309  -4.5232  -4.2610  -4.2492  -3.7446
    -3.5994  -3.4600   0.3854   0.3967   0.5454   0.5639   0.7099   0.7132
     1.0224   1.0244   1.1427   1.1970   1.2347   1.2825   1.3716   1.3828
     1.4226   1.5285   1.5734   1.6547   1.6858   1.7790   1.8157   1.8629
     1.9026   1.9849   2.0061   2.0384   2.0636   2.1383   2.1714   2.3958
     2.4042   2.4254   2.4409   2.5123   2.5242   2.5270   2.6503   2.7281
     2.7514   2.8151   2.8887   3.0422   3.1307   3.1986   3.2793   3.3046
     3.3130   3.3519   5.7145   5.7183   6.2837   6.3011   6.3291   6.3477
     6.3998   6.4826   6.5076   6.5274   6.5459   6.7685   6.7877   7.0038
     7.0698   7.2405   7.3286   7.3305   7.3941   7.4247   7.6306   9.0996
     9.1108   9.5009   9.5195   9.5654   9.5890   9.7526   9.9556  10.1928
    10.2184  10.2711  10.2828  10.3416  10.3918  10.5983  10.6846

     occupation numbers 
     1.0000   1.0000   1.0000   1.0000   1.0000   1.0000   1.0000   1.0000
     1.0000   1.0000   1.0000   1.0000   1.0000   1.0000   1.0000   1.0000
     1.0000   1.0000   1.0000   1.0000   1.0000   1.0000   1.0000   1.0000
     1.0000   1.0000   1.0000   1.0000   1.0000   1.0000   1.0000   1.0000
     1.0000   1.0000   1.0000   1.0000   1.0000   1.0000   1.0000   1.0000
     1.0000   1.0000   1.0000   1.0000   1.0000   1.0000   1.0000   1.0000
     1.0000   1.0000   1.0000   1.0000   1.0000   1.0000   1.0000   1.0000
     1.0000   1.0000   1.0000   1.0000   1.0000   1.0000   1.0000   1.0000
     1.0000   1.0000   1.0000   1.0000   1.0000   1.0000   1.0000   1.0000
     1.0000   1.0000   1.0000   1.0000   1.0000   1.0000   1.0000   1.0000
     1.0000   1.0000   1.0000   1.0000   1.0000   1.0000   1.0000   1.0000
     1.0000   1.0000   1.0000   1.0000   1.0000   1.0000   1.0000   1.0000
     1.0000   1.0000   1.0000   1.0000   1.0000   1.0000   1.0000   1.0000
     1.0000   1.0000   1.0000   1.0000   1.0000   1.0000   1.0000   1.0000
     1.0000   1.0000   1.0000   1.0000   1.0000   1.0000   1.0000   1.0000
     1.0000   1.0000   1.0000   1.0000   1.0000   1.0000   1.0000   1.0000
     1.0000   1.0000   1.0000   1.0000   1.0000   1.0000   1.0000   1.0000
     1.0000   1.0000   1.0000   1.0000   1.0000   1.0000   1.0000   1.0000
     1.0000   1.0000   1.0000   1.0000   1.0000   1.0000   1.0000   1.0000
     1.0000   1.0000   1.0000   1.0000   1.0000   1.0000   1.0000   1.0000
     1.0000   1.0000   1.0000   1.0000   1.0000   1.0000   1.0000   1.0000
     1.0000   1.0000   1.0000   1.0000   1.0000   1.0000   1.0000   1.0000
     1.0000   1.0000   1.0000   1.0000   0.9987   0.9894   0.9287   0.8856
     0.8679   0.7616   0.0000   0.0000   0.0000   0.0000   0.0000   0.0000
     0.0000   0.0000   0.0000   0.0000   0.0000   0.0000   0.0000   0.0000
     0.0000   0.0000   0.0000   0.0000   0.0000   0.0000   0.0000   0.0000
     0.0000   0.0000   0.0000   0.0000   0.0000   0.0000   0.0000   0.0000
     0.0000   0.0000   0.0000   0.0000   0.0000   0.0000   0.0000

          k = 0.5000-0.2887 0.0000 ( 75730 PWs)   bands (ev):

   -41.6587 -41.6587 -41.6587 -41.6587 -41.6586 -41.6586 -41.6585 -41.6585
   -41.6584 -41.6584 -41.6584 -41.6583 -41.6569 -41.6568 -41.6568 -41.6568
   -41.6567 -41.6567 -41.6566 -41.6566 -41.6565 -41.6565 -41.6565 -41.6564
   -41.6560 -41.6560 -41.6559 -41.6559 -41.6559 -41.6559 -41.6260 -41.6260
   -41.6260 -41.6260 -41.6229 -41.6229 -41.6229 -41.6229 -41.6216 -41.6216
   -41.0890 -41.0890 -41.0889 -41.0889 -41.0875 -41.0874 -41.0874 -41.0874
   -41.0865 -41.0864 -40.7104 -40.7100 -40.7100 -40.7099 -40.7099 -40.7098
   -40.7096 -40.7096 -40.7096 -40.7095 -40.7094 -40.7092 -40.6503 -40.6500
   -40.6500 -40.6499 -40.6499 -40.6497 -40.6441 -40.6438 -40.6438 -40.6437
   -40.6437 -40.6435 -40.6268 -40.6265 -40.6264 -40.6264 -40.6264 -40.6262
   -13.8371 -13.8347 -13.8213 -13.8210 -13.8187 -13.8178 -13.8167 -13.8110
   -13.8107 -13.8089 -13.8021 -13.8020 -13.7999 -13.7993 -13.7992 -13.7967
   -13.7954 -13.7947 -13.7940 -13.7901 -13.0881 -13.0806 -13.0733 -13.0599
   -13.0556 -13.0553 -13.0540 -13.0540 -13.0507 -13.0472 -13.0420 -13.0354
   -13.0212 -13.0203 -13.0192  -8.7596  -8.7520  -8.5092  -8.4965  -8.4326
    -8.4195  -8.3720  -8.3531  -8.0307  -7.9712  -7.5640  -7.5334  -7.4729
    -7.4546  -7.3632  -7.3618  -4.5309  -4.5232  -4.2609  -4.2493  -3.7446
    -3.5994  -3.4600   0.3854   0.3968   0.5453   0.5640   0.7099   0.7132
     1.0224   1.0245   1.1426   1.1970   1.2347   1.2825   1.3715   1.3829
     1.4226   1.5286   1.5734   1.6547   1.6858   1.7791   1.8157   1.8629
     1.9026   1.9850   2.0061   2.0384   2.0636   2.1383   2.1713   2.3958
     2.4043   2.4254   2.4409   2.5124   2.5243   2.5270   2.6503   2.7280
     2.7513   2.8150   2.8887   3.0422   3.1308   3.1986   3.2793   3.3046
     3.3130   3.3519   5.7145   5.7183   6.2836   6.3011   6.3292   6.3477
     6.3997   6.4827   6.5078   6.5273   6.5458   6.7686   6.7876   7.0039
     7.0697   7.2406   7.3285   7.3306   7.3940   7.4247   7.6307   9.0996
     9.1108   9.5009   9.5195   9.5654   9.5890   9.7526   9.9556  10.1929
    10.2184  10.2711  10.2828  10.3416  10.3918  10.5983  10.6845

     occupation numbers 
     1.0000   1.0000   1.0000   1.0000   1.0000   1.0000   1.0000   1.0000
     1.0000   1.0000   1.0000   1.0000   1.0000   1.0000   1.0000   1.0000
     1.0000   1.0000   1.0000   1.0000   1.0000   1.0000   1.0000   1.0000
     1.0000   1.0000   1.0000   1.0000   1.0000   1.0000   1.0000   1.0000
     1.0000   1.0000   1.0000   1.0000   1.0000   1.0000   1.0000   1.0000
     1.0000   1.0000   1.0000   1.0000   1.0000   1.0000   1.0000   1.0000
     1.0000   1.0000   1.0000   1.0000   1.0000   1.0000   1.0000   1.0000
     1.0000   1.0000   1.0000   1.0000   1.0000   1.0000   1.0000   1.0000
     1.0000   1.0000   1.0000   1.0000   1.0000   1.0000   1.0000   1.0000
     1.0000   1.0000   1.0000   1.0000   1.0000   1.0000   1.0000   1.0000
     1.0000   1.0000   1.0000   1.0000   1.0000   1.0000   1.0000   1.0000
     1.0000   1.0000   1.0000   1.0000   1.0000   1.0000   1.0000   1.0000
     1.0000   1.0000   1.0000   1.0000   1.0000   1.0000   1.0000   1.0000
     1.0000   1.0000   1.0000   1.0000   1.0000   1.0000   1.0000   1.0000
     1.0000   1.0000   1.0000   1.0000   1.0000   1.0000   1.0000   1.0000
     1.0000   1.0000   1.0000   1.0000   1.0000   1.0000   1.0000   1.0000
     1.0000   1.0000   1.0000   1.0000   1.0000   1.0000   1.0000   1.0000
     1.0000   1.0000   1.0000   1.0000   1.0000   1.0000   1.0000   1.0000
     1.0000   1.0000   1.0000   1.0000   1.0000   1.0000   1.0000   1.0000
     1.0000   1.0000   1.0000   1.0000   1.0000   1.0000   1.0000   1.0000
     1.0000   1.0000   1.0000   1.0000   1.0000   1.0000   1.0000   1.0000
     1.0000   1.0000   1.0000   1.0000   1.0000   1.0000   1.0000   1.0000
     1.0000   1.0000   1.0000   1.0000   0.9987   0.9894   0.9287   0.8856
     0.8678   0.7616   0.0000   0.0000   0.0000   0.0000   0.0000   0.0000
     0.0000   0.0000   0.0000   0.0000   0.0000   0.0000   0.0000   0.0000
     0.0000   0.0000   0.0000   0.0000   0.0000   0.0000   0.0000   0.0000
     0.0000   0.0000   0.0000   0.0000   0.0000   0.0000   0.0000   0.0000
     0.0000   0.0000   0.0000   0.0000   0.0000   0.0000   0.0000

          k =-0.5000-0.2887 0.0000 ( 75730 PWs)   bands (ev):

   -41.6588 -41.6587 -41.6587 -41.6587 -41.6586 -41.6586 -41.6585 -41.6584
   -41.6584 -41.6584 -41.6584 -41.6583 -41.6569 -41.6568 -41.6568 -41.6568
   -41.6567 -41.6567 -41.6566 -41.6566 -41.6565 -41.6565 -41.6565 -41.6564
   -41.6560 -41.6560 -41.6559 -41.6559 -41.6559 -41.6559 -41.6260 -41.6260
   -41.6260 -41.6260 -41.6229 -41.6229 -41.6229 -41.6229 -41.6216 -41.6216
   -41.0890 -41.0890 -41.0889 -41.0889 -41.0875 -41.0874 -41.0874 -41.0874
   -41.0865 -41.0864 -40.7104 -40.7100 -40.7100 -40.7099 -40.7099 -40.7098
   -40.7096 -40.7096 -40.7096 -40.7095 -40.7094 -40.7092 -40.6503 -40.6500
   -40.6500 -40.6499 -40.6498 -40.6497 -40.6441 -40.6438 -40.6438 -40.6437
   -40.6437 -40.6435 -40.6268 -40.6265 -40.6264 -40.6264 -40.6264 -40.6262
   -13.8372 -13.8348 -13.8213 -13.8209 -13.8187 -13.8178 -13.8166 -13.8111
   -13.8107 -13.8090 -13.8020 -13.8019 -13.7999 -13.7995 -13.7992 -13.7966
   -13.7955 -13.7948 -13.7939 -13.7900 -13.0882 -13.0804 -13.0734 -13.0599
   -13.0554 -13.0554 -13.0541 -13.0538 -13.0508 -13.0473 -13.0419 -13.0355
   -13.0213 -13.0201 -13.0193  -8.7596  -8.7520  -8.5092  -8.4965  -8.4326
    -8.4195  -8.3720  -8.3531  -8.0307  -7.9712  -7.5640  -7.5334  -7.4729
    -7.4545  -7.3632  -7.3619  -4.5310  -4.5232  -4.2610  -4.2492  -3.7446
    -3.5993  -3.4600   0.3854   0.3967   0.5454   0.5639   0.7099   0.7132
     1.0224   1.0244   1.1427   1.1970   1.2347   1.2825   1.3716   1.3828
     1.4226   1.5286   1.5734   1.6545   1.6858   1.7789   1.8156   1.8630
     1.9028   1.9850   2.0060   2.0384   2.0636   2.1383   2.1714   2.3958
     2.4042   2.4254   2.4409   2.5123   2.5242   2.5270   2.6503   2.7280
     2.7514   2.8150   2.8886   3.0422   3.1308   3.1985   3.2795   3.3045
     3.3130   3.3519   5.7144   5.7183   6.2837   6.3011   6.3291   6.3477
     6.3998   6.4825   6.5076   6.5274   6.5459   6.7685   6.7877   7.0042
     7.0696   7.2410   7.3281   7.3304   7.3945   7.4243   7.6306   9.0996
     9.1108   9.5008   9.5195   9.5654   9.5890   9.7526   9.9555  10.1929
    10.2183  10.2711  10.2828  10.3416  10.3917  10.5983  10.6847

     occupation numbers 
     1.0000   1.0000   1.0000   1.0000   1.0000   1.0000   1.0000   1.0000
     1.0000   1.0000   1.0000   1.0000   1.0000   1.0000   1.0000   1.0000
     1.0000   1.0000   1.0000   1.0000   1.0000   1.0000   1.0000   1.0000
     1.0000   1.0000   1.0000   1.0000   1.0000   1.0000   1.0000   1.0000
     1.0000   1.0000   1.0000   1.0000   1.0000   1.0000   1.0000   1.0000
     1.0000   1.0000   1.0000   1.0000   1.0000   1.0000   1.0000   1.0000
     1.0000   1.0000   1.0000   1.0000   1.0000   1.0000   1.0000   1.0000
     1.0000   1.0000   1.0000   1.0000   1.0000   1.0000   1.0000   1.0000
     1.0000   1.0000   1.0000   1.0000   1.0000   1.0000   1.0000   1.0000
     1.0000   1.0000   1.0000   1.0000   1.0000   1.0000   1.0000   1.0000
     1.0000   1.0000   1.0000   1.0000   1.0000   1.0000   1.0000   1.0000
     1.0000   1.0000   1.0000   1.0000   1.0000   1.0000   1.0000   1.0000
     1.0000   1.0000   1.0000   1.0000   1.0000   1.0000   1.0000   1.0000
     1.0000   1.0000   1.0000   1.0000   1.0000   1.0000   1.0000   1.0000
     1.0000   1.0000   1.0000   1.0000   1.0000   1.0000   1.0000   1.0000
     1.0000   1.0000   1.0000   1.0000   1.0000   1.0000   1.0000   1.0000
     1.0000   1.0000   1.0000   1.0000   1.0000   1.0000   1.0000   1.0000
     1.0000   1.0000   1.0000   1.0000   1.0000   1.0000   1.0000   1.0000
     1.0000   1.0000   1.0000   1.0000   1.0000   1.0000   1.0000   1.0000
     1.0000   1.0000   1.0000   1.0000   1.0000   1.0000   1.0000   1.0000
     1.0000   1.0000   1.0000   1.0000   1.0000   1.0000   1.0000   1.0000
     1.0000   1.0000   1.0000   1.0000   1.0000   1.0000   1.0000   1.0000
     1.0000   1.0000   1.0000   1.0000   0.9987   0.9894   0.9285   0.8857
     0.8678   0.7618   0.0000   0.0000   0.0000   0.0000   0.0000   0.0000
     0.0000   0.0000   0.0000   0.0000   0.0000   0.0000   0.0000   0.0000
     0.0000   0.0000   0.0000   0.0000   0.0000   0.0000   0.0000   0.0000
     0.0000   0.0000   0.0000   0.0000   0.0000   0.0000   0.0000   0.0000
     0.0000   0.0000   0.0000   0.0000   0.0000   0.0000   0.0000

     the Fermi energy is     3.4204 ev

!    total energy              =  -15292.25612055 Ry
     total all-electron energy =   -520452.251173 Ry
     estimated scf accuracy    <          5.2E-09 Ry
     smearing contrib. (-TS)   =      -0.01124906 Ry
     internal energy E=F+TS    =  -15292.24487150 Ry

     The total energy is F=E-TS. E is the sum of the following terms:
     one-electron contribution =   -3014.63718272 Ry
     hartree contribution      =    1667.09884730 Ry
     xc contribution           =   -1100.87834596 Ry
     ewald contribution        =   -2341.47778820 Ry
     one-center paw contrib.   =  -10502.35040191 Ry
      -> PAW hartree energy AE =     192.08749995 Ry
      -> PAW hartree energy PS =    -192.56388791 Ry
      -> PAW xc energy AE      =   -1596.88415197 Ry
      -> PAW xc energy PS      =      66.64173194 Ry
      -> total E_H with PAW    =    1666.62245933 Ry
      -> total E_XC with PAW   =   -2631.12076599 Ry

     convergence has been achieved in   1 iterations


     -----------------------------------------------
     Non-local corr. energy    =      11.26224482 Ry
     -----------------------------------------------


     Forces acting on atoms (cartesian axes, Ry/au):

     atom    1 type  1   force =    -0.00000416   -0.00000090   -0.00001123
     atom    2 type  1   force =    -0.00000196   -0.00000736    0.00000930
     atom    3 type  1   force =    -0.00000325   -0.00000058   -0.00000042
     atom    4 type  1   force =     0.00002019   -0.00000398    0.00002230
     atom    5 type  1   force =     0.00000348    0.00000218   -0.00000960
     atom    6 type  1   force =    -0.00000172    0.00001927    0.00002845
     atom    7 type  1   force =     0.00000204    0.00000383   -0.00000907
     atom    8 type  2   force =     0.00000464    0.00013085   -0.00023245
     atom    9 type  2   force =    -0.00000030    0.00014946    0.00032757
     atom   10 type  2   force =     0.00011177   -0.00006173   -0.00022848
     atom   11 type  2   force =     0.00013727   -0.00007932    0.00032271
     atom   12 type  2   force =    -0.00000517    0.00000275   -0.00011211
     atom   13 type  2   force =    -0.00000176    0.00000236   -0.00089406
     atom   14 type  2   force =    -0.00011340   -0.00006831   -0.00024133
     atom   15 type  2   force =    -0.00014909   -0.00008678    0.00031076
     atom   16 type  2   force =     0.00011619    0.00006260   -0.00038126
     atom   17 type  2   force =     0.00010619    0.00006775    0.00027465
     atom   18 type  2   force =     0.00000181    0.00000044    0.00088173
     atom   19 type  2   force =     0.00001982    0.00000705    0.00014718
     atom   20 type  2   force =    -0.00012069    0.00007050   -0.00036351
     atom   21 type  2   force =    -0.00010679    0.00004576    0.00026504
     atom   22 type  2   force =     0.00000411   -0.00013974   -0.00037558
     atom   23 type  2   force =    -0.00001922   -0.00011612    0.00026939
     The non-local contrib.  to forces
     atom    1 type  1   force =     0.00003520   -0.00001003    0.00004894
     atom    2 type  1   force =    -0.00000699   -0.00000041    0.00002486
     atom    3 type  1   force =     0.00000940   -0.00002755   -0.00012560
     atom    4 type  1   force =    -0.00003560    0.00004398   -0.00005205
     atom    5 type  1   force =    -0.00002063   -0.00001198    0.00002804
     atom    6 type  1   force =     0.00008590   -0.00011274   -0.00010084
     atom    7 type  1   force =     0.00000509   -0.00005509    0.00002856
     atom    8 type  2   force =     0.00003060   -0.00152694    0.26651384
     atom    9 type  2   force =    -0.00002023   -0.12002245    0.13543606
     atom   10 type  2   force =    -0.00132118    0.00080849    0.26651767
     atom   11 type  2   force =    -0.10393289    0.06000791    0.13541192
     atom   12 type  2   force =    -0.00003341   -0.00000417    0.28042193
     atom   13 type  2   force =    -0.00001257    0.00000795    0.21303932
     atom   14 type  2   force =     0.00131339    0.00076551    0.26651056
     atom   15 type  2   force =     0.10394068    0.06004422    0.13550055
     atom   16 type  2   force =    -0.10390737   -0.05995858   -0.13541868
     atom   17 type  2   force =    -0.00132672   -0.00074691   -0.26644350
     atom   18 type  2   force =    -0.00002768   -0.00000326   -0.21308135
     atom   19 type  2   force =    -0.00001387   -0.00000458   -0.28035512
     atom   20 type  2   force =     0.10390164   -0.05998683   -0.13550314
     atom   21 type  2   force =     0.00132010   -0.00072901   -0.26646438
     atom   22 type  2   force =    -0.00001999    0.11994944   -0.13549537
     atom   23 type  2   force =     0.00000959    0.00152303   -0.26646177
     The ionic contribution  to forces
     atom    1 type  1   force =    -0.00213513   -0.00056797    0.00470069
     atom    2 type  1   force =     0.00071479   -0.00014000   -0.00892425
     atom    3 type  1   force =    -0.00036470    0.00035774    0.01036549
     atom    4 type  1   force =     0.00092041   -0.00225157   -0.00524903
     atom    5 type  1   force =     0.00186703   -0.00037637    0.00585228
     atom    6 type  1   force =    -0.00353155    0.00341356   -0.00439180
     atom    7 type  1   force =     0.00003179    0.00261196    0.00550300
     atom    8 type  2   force =    -0.00196479    0.78195668  -17.46524576
     atom    9 type  2   force =    -0.00122615    8.56182953   -7.82741838
     atom   10 type  2   force =     0.67533514   -0.39379089  -17.46445411
     atom   11 type  2   force =     7.41358775   -4.28232476   -7.82820392
     atom   12 type  2   force =     0.00221683    0.00224539  -16.86053996
     atom   13 type  2   force =     0.00187342    0.00107430  -11.49640447
     atom   14 type  2   force =    -0.67537638   -0.39155708  -17.46785466
     atom   15 type  2   force =    -7.41489027   -4.28228849   -7.82829838
     atom   16 type  2   force =     7.41126855    4.27785314    7.80730038
     atom   17 type  2   force =     0.67529062    0.39107874   17.48114144
     atom   18 type  2   force =    -0.00233985   -0.00200041   11.48201915
     atom   19 type  2   force =     0.00379125    0.00034051   16.87757936
     atom   20 type  2   force =    -7.41128097    4.28423896    7.81031291
     atom   21 type  2   force =    -0.67525743    0.38695817   17.48146314
     atom   22 type  2   force =     0.00499243   -8.55923872    7.80856341
     atom   23 type  2   force =    -0.00352277   -0.77942244   17.48218346
     The local contribution  to forces
     atom    1 type  1   force =     0.00210089    0.00058003   -0.00483207
     atom    2 type  1   force =    -0.00074775    0.00011959    0.00893308
     atom    3 type  1   force =     0.00034474   -0.00033260   -0.01031878
     atom    4 type  1   force =    -0.00089434    0.00225936    0.00533340
     atom    5 type  1   force =    -0.00184834    0.00040171   -0.00596306
     atom    6 type  1   force =     0.00348295   -0.00332988    0.00452700
     atom    7 type  1   force =    -0.00002800   -0.00256073   -0.00561299
     atom    8 type  2   force =     0.00192845   -0.78032020   17.20407952
     atom    9 type  2   force =     0.00122771   -8.44436600    7.69545914
     atom   10 type  2   force =    -0.67393039    0.39291825   17.20329251
     atom   11 type  2   force =    -7.31188213    4.22357609    7.69626157
     atom   12 type  2   force =    -0.00217774   -0.00222747   16.58576300
     atom   13 type  2   force =    -0.00184458   -0.00106425   11.28730826
     atom   14 type  2   force =     0.67397854    0.39073292   17.20670122
     atom   15 type  2   force =     7.31315941    4.22351430    7.69625187
     atom   16 type  2   force =    -7.30957615   -4.21917239   -7.67532110
     atom   17 type  2   force =    -0.67387286   -0.39027117  -17.22009497
     atom   18 type  2   force =     0.00233932    0.00198205  -11.27285630
     atom   19 type  2   force =    -0.00378397   -0.00034779  -16.60289107
     atom   20 type  2   force =     7.30958914   -4.22548776   -7.67825299
     atom   21 type  2   force =     0.67384610   -0.38615958  -17.22038698
     atom   22 type  2   force =    -0.00493925    8.44182515   -7.67652324
     atom   23 type  2   force =     0.00352093    0.77778230  -17.22110244
     The core correction contribution to forces
     atom    1 type  1   force =    -0.00000008    0.00000017   -0.00000092
     atom    2 type  1   force =    -0.00000016    0.00000042   -0.00000069
     atom    3 type  1   force =     0.00000006    0.00000038    0.00000108
     atom    4 type  1   force =    -0.00000183    0.00000041   -0.00000072
     atom    5 type  1   force =    -0.00000006    0.00000004   -0.00000074
     atom    6 type  1   force =    -0.00000056   -0.00000096   -0.00000074
     atom    7 type  1   force =    -0.00000014    0.00000031   -0.00000084
     atom    8 type  2   force =    -0.00000168   -0.00000067   -0.00564610
     atom    9 type  2   force =     0.00000058    0.00268345   -0.00310192
     atom   10 type  2   force =    -0.00000328    0.00000230   -0.00564682
     atom   11 type  2   force =     0.00232685   -0.00134265   -0.00310241
     atom   12 type  2   force =     0.00000048    0.00000281   -0.00580118
     atom   13 type  2   force =    -0.00000015    0.00000297   -0.00481154
     atom   14 type  2   force =     0.00000224    0.00000369   -0.00564689
     atom   15 type  2   force =    -0.00232481   -0.00134239   -0.00310370
     atom   16 type  2   force =     0.00232503    0.00134214    0.00309857
     atom   17 type  2   force =    -0.00000363    0.00000033    0.00563709
     atom   18 type  2   force =    -0.00000022    0.00000248    0.00481216
     atom   19 type  2   force =     0.00000065    0.00000290    0.00579723
     atom   20 type  2   force =    -0.00232223    0.00134060    0.00309951
     atom   21 type  2   force =     0.00000255   -0.00000111    0.00563870
     atom   22 type  2   force =    -0.00000008   -0.00268436    0.00309901
     atom   23 type  2   force =    -0.00000170    0.00000619    0.00563778
     The Hubbard contrib.    to forces
     atom    1 type  1   force =     0.00000000    0.00000000    0.00000000
     atom    2 type  1   force =     0.00000000    0.00000000    0.00000000
     atom    3 type  1   force =     0.00000000    0.00000000    0.00000000
     atom    4 type  1   force =     0.00000000    0.00000000    0.00000000
     atom    5 type  1   force =     0.00000000    0.00000000    0.00000000
     atom    6 type  1   force =     0.00000000    0.00000000    0.00000000
     atom    7 type  1   force =     0.00000000    0.00000000    0.00000000
     atom    8 type  2   force =     0.00000000    0.00000000    0.00000000
     atom    9 type  2   force =     0.00000000    0.00000000    0.00000000
     atom   10 type  2   force =     0.00000000    0.00000000    0.00000000
     atom   11 type  2   force =     0.00000000    0.00000000    0.00000000
     atom   12 type  2   force =     0.00000000    0.00000000    0.00000000
     atom   13 type  2   force =     0.00000000    0.00000000    0.00000000
     atom   14 type  2   force =     0.00000000    0.00000000    0.00000000
     atom   15 type  2   force =     0.00000000    0.00000000    0.00000000
     atom   16 type  2   force =     0.00000000    0.00000000    0.00000000
     atom   17 type  2   force =     0.00000000    0.00000000    0.00000000
     atom   18 type  2   force =     0.00000000    0.00000000    0.00000000
     atom   19 type  2   force =     0.00000000    0.00000000    0.00000000
     atom   20 type  2   force =     0.00000000    0.00000000    0.00000000
     atom   21 type  2   force =     0.00000000    0.00000000    0.00000000
     atom   22 type  2   force =     0.00000000    0.00000000    0.00000000
     atom   23 type  2   force =     0.00000000    0.00000000    0.00000000
     The SCF correction term to forces
     atom    1 type  1   force =    -0.00000528   -0.00000174    0.00006766
     atom    2 type  1   force =     0.00003791    0.00001440   -0.00002817
     atom    3 type  1   force =     0.00000701    0.00000281    0.00007292
     atom    4 type  1   force =     0.00003131   -0.00005480   -0.00001378
     atom    5 type  1   force =     0.00000524   -0.00000987    0.00006940
     atom    6 type  1   force =    -0.00003871    0.00005066   -0.00000965
     atom    7 type  1   force =    -0.00000694    0.00000875    0.00006872
     atom    8 type  2   force =     0.00001180    0.00002333    0.00006156
     atom    9 type  2   force =     0.00001754    0.00002628   -0.00005181
     atom   10 type  2   force =     0.00003122    0.00000149    0.00005779
     atom   11 type  2   force =     0.00003745    0.00000544   -0.00004893
     atom   12 type  2   force =    -0.00001158   -0.00001246    0.00003963
     atom   13 type  2   force =    -0.00001812   -0.00001724   -0.00003011
     atom   14 type  2   force =    -0.00003145   -0.00001199    0.00004396
     atom   15 type  2   force =    -0.00003434   -0.00001306   -0.00004405
     atom   16 type  2   force =     0.00000588   -0.00000035   -0.00004490
     atom   17 type  2   force =     0.00001853    0.00000812    0.00003011
     atom   18 type  2   force =     0.00002999    0.00002094   -0.00001640
     atom   19 type  2   force =     0.00002552    0.00001737    0.00001229
     atom   20 type  2   force =    -0.00000852   -0.00003312   -0.00002428
     atom   21 type  2   force =    -0.00001837   -0.00002135    0.00001007
     atom   22 type  2   force =    -0.00002924    0.00001011   -0.00002388
     atom   23 type  2   force =    -0.00002552   -0.00000384    0.00000787

     Total force =     0.001718     Total SCF correction =     0.000260
     SCF correction compared to forces is large: reduce conv_thr to get better values


     Computing stress (Cartesian axis) and pressure



     -----------------------------------------------
     Non-local corr. energy    =      11.26224482 Ry
     -----------------------------------------------

          total   stress  (Ry/bohr**3)                   (kbar)     P=       13.50
   0.00008923  -0.00000000   0.00000001           13.13       -0.00        0.00
  -0.00000000   0.00008924   0.00000000           -0.00       13.13        0.00
   0.00000001   0.00000000   0.00009681            0.00        0.00       14.24

     kinetic stress (kbar)  14173.47      0.00     -0.00
                                0.00  14173.47     -0.00
                               -0.00     -0.00  14187.09

     local   stress (kbar)  -7552.20     -0.18     -0.34
                               -0.18  -7551.97     -0.14
                               -0.34     -0.14    207.19

     nonloc. stress (kbar)   -735.65      0.00     -0.00
                                0.00   -735.65     -0.00
                               -0.00     -0.00   -737.39

     hartree stress (kbar)  11846.55      0.09      0.14
                                0.09  11846.43      0.06
                                0.14      0.06   8338.30

     exc-cor stress (kbar)   6751.56     -0.00      0.00
                               -0.00   6751.56      0.00
                                0.00      0.00   6750.70

     corecor stress (kbar) -10976.67      0.00      0.00
                                0.00 -10976.67      0.00
                                0.00      0.00 -10976.68

     ewald   stress (kbar) -13575.49      0.09      0.20
                                0.09 -13575.60      0.09
                                0.20      0.09 -17837.56

     hubbard stress (kbar)      0.00      0.00      0.00
                                0.00      0.00      0.00
                                0.00      0.00      0.00

     DFT-D   stress (kbar)      0.00      0.00      0.00
                                0.00      0.00      0.00
                                0.00      0.00      0.00

     XDM     stress (kbar)      0.00      0.00      0.00
                                0.00      0.00      0.00
                                0.00      0.00      0.00

     dft-nl  stress (kbar)     81.56      0.00     -0.00
                                0.00     81.56     -0.00
                               -0.00     -0.00     82.59

     TS-vdW  stress (kbar)      0.00      0.00      0.00
                                0.00      0.00      0.00
                                0.00      0.00      0.00

     MDB     stress (kbar)      0.00      0.00      0.00
                                0.00      0.00      0.00
                                0.00      0.00      0.00

     3D-RISM stress (kbar)      0.00      0.00      0.00
                                0.00      0.00      0.00
                                0.00      0.00      0.00



     -----------------------------------------------
     Non-local corr. energy    =      11.26224482 Ry
     -----------------------------------------------



     -----------------------------------------------
     Non-local corr. energy    =      11.26224482 Ry
     -----------------------------------------------



     -----------------------------------------------
     Non-local corr. energy    =      11.26224482 Ry
     -----------------------------------------------



     -----------------------------------------------
     Non-local corr. energy    =      11.26224482 Ry
     -----------------------------------------------



     -----------------------------------------------
     Non-local corr. energy    =      11.26224482 Ry
     -----------------------------------------------



     -----------------------------------------------
     Non-local corr. energy    =      11.26224482 Ry
     -----------------------------------------------



     -----------------------------------------------
     Non-local corr. energy    =      11.26224482 Ry
     -----------------------------------------------



     -----------------------------------------------
     Non-local corr. energy    =      11.26224482 Ry
     -----------------------------------------------



     -----------------------------------------------
     Non-local corr. energy    =      11.26224482 Ry
     -----------------------------------------------



     -----------------------------------------------
     Non-local corr. energy    =      11.26224482 Ry
     -----------------------------------------------



     -----------------------------------------------
     Non-local corr. energy    =      11.26224482 Ry
     -----------------------------------------------



     -----------------------------------------------
     Non-local corr. energy    =      11.26224482 Ry
     -----------------------------------------------



     -----------------------------------------------
     Non-local corr. energy    =      11.26224482 Ry
     -----------------------------------------------



     -----------------------------------------------
     Non-local corr. energy    =      11.26224482 Ry
     -----------------------------------------------



     -----------------------------------------------
     Non-local corr. energy    =      11.26224482 Ry
     -----------------------------------------------



     -----------------------------------------------
     Non-local corr. energy    =      11.26224482 Ry
     -----------------------------------------------



     -----------------------------------------------
     Non-local corr. energy    =      11.26224482 Ry
     -----------------------------------------------



     -----------------------------------------------
     Non-local corr. energy    =      11.26224482 Ry
     -----------------------------------------------



     -----------------------------------------------
     Non-local corr. energy    =      11.26224482 Ry
     -----------------------------------------------



     -----------------------------------------------
     Non-local corr. energy    =      11.26224482 Ry
     -----------------------------------------------



     -----------------------------------------------
     Non-local corr. energy    =      11.26224482 Ry
     -----------------------------------------------



     -----------------------------------------------
     Non-local corr. energy    =      11.26224482 Ry
     -----------------------------------------------



     -----------------------------------------------
     Non-local corr. energy    =      11.26224482 Ry
     -----------------------------------------------



     -----------------------------------------------
     Non-local corr. energy    =      11.26224482 Ry
     -----------------------------------------------



     -----------------------------------------------
     Non-local corr. energy    =      11.26224482 Ry
     -----------------------------------------------



     -----------------------------------------------
     Non-local corr. energy    =      11.26224482 Ry
     -----------------------------------------------



     -----------------------------------------------
     Non-local corr. energy    =      11.26224482 Ry
     -----------------------------------------------



     -----------------------------------------------
     Non-local corr. energy    =      11.26224482 Ry
     -----------------------------------------------



     -----------------------------------------------
     Non-local corr. energy    =      11.26224482 Ry
     -----------------------------------------------



     -----------------------------------------------
     Non-local corr. energy    =      11.26224482 Ry
     -----------------------------------------------



     -----------------------------------------------
     Non-local corr. energy    =      11.26224482 Ry
     -----------------------------------------------



     -----------------------------------------------
     Non-local corr. energy    =      11.26224482 Ry
     -----------------------------------------------



     -----------------------------------------------
     Non-local corr. energy    =      11.26224482 Ry
     -----------------------------------------------



     -----------------------------------------------
     Non-local corr. energy    =      11.26224482 Ry
     -----------------------------------------------

 BEEFens 2000 ensemble energies
             -0.939972839999871E+01
             -0.945208283426162E+02
             -0.430036778726436E+02
              0.329937274758099E+02
             -0.721777877827036E+02
             -0.884303978988694E+02
              0.453951181193995E+02
              0.243810764511409E+00
              0.765081484775968E+02
             -0.486124699248501E+01
              0.391354748093151E+02
              0.403741234674436E+01
             -0.298667721235191E+01
             -0.239635099683352E+01
              0.488772142662071E+02
             -0.367176924957193E+02
             -0.721787382500555E+02
             -0.233066279346974E+02
              0.209203104046102E+02
             -0.383309571884865E+00
              0.106398021111857E+03
              0.888460571431454E+02
             -0.547024195435558E+02
              0.189325949623625E+02
             -0.113991270958208E+03
              0.936029198650975E+02
              0.319962670199588E+02
              0.845261455442825E+02
              0.569720073469098E+02
             -0.264682143416547E+02
              0.208226598040680E+02
             -0.373567667360302E+02
              0.155575756536631E+02
              0.566485991030511E+02
              0.608957319650328E+02
             -0.265548690016653E+02
              0.134523646423505E+03
             -0.540525655168589E+02
             -0.361077217597304E+02
              0.538126103913539E+02
              0.236904191715188E+02
              0.408146529747384E+02
             -0.789193463770582E+02
             -0.513244271660369E+01
              0.757430281386621E+02
              0.989798354209147E+02
             -0.100445009943363E+03
              0.648937020706368E+01
              0.348711248275829E+02
              0.224916077199171E+02
              0.393260424872125E+02
              0.862944364177959E+02
             -0.560136773611310E+02
             -0.543214482982094E+02
             -0.757955760369287E+02
             -0.110578844518184E+02
             -0.646859502285576E+02
              0.835041110853348E+01
             -0.932969881698511E+01
             -0.512614754256311E+02
              0.837245837894330E+02
              0.848946572059707E+02
             -0.233722165812066E+02
             -0.640863386349256E+02
             -0.388904845161439E+02
             -0.257339358860178E+01
              0.617441289602079E+02
             -0.866035533370382E+01
             -0.616784236183777E+02
              0.569857874945270E+02
             -0.105663199645405E+03
              0.934834239747648E+02
             -0.108307708673970E+03
             -0.475001380752938E+02
             -0.155816721617943E+02
             -0.990394030312763E+01
              0.563564183922097E+01
              0.748544804572024E+02
              0.469796663474111E+02
             -0.787738485743039E+02
             -0.104534165432594E+03
             -0.545648581416602E+02
             -0.405220278632968E+02
              0.615522789914598E+01
             -0.129636047007079E+02
             -0.379505563111780E+02
              0.463720043329905E+02
             -0.397130339643746E+02
              0.154359791123002E+03
             -0.708280323204265E+02
              0.154477078463565E+02
              0.161045138310176E+02
              0.232092370266943E+02
              0.536481187920537E+02
              0.382461423555718E+02
              0.362926571432481E+02
             -0.596111136082545E+02
              0.352899971549120E+02
              0.866018287979546E+01
             -0.115216655959097E+01
              0.699280410203345E+02
             -0.826220256800051E+02
              0.139863960263136E+03
             -0.328933380913448E+02
             -0.149257584854214E+03
              0.827727237293516E+01
              0.136201587129491E+02
             -0.409053067803131E+02
             -0.785504872199459E+02
             -0.394831708154506E+02
             -0.291191887127381E+02
              0.979818837713538E+00
             -0.619465844184526E+02
              0.337045286761872E+01
              0.672347939459780E+01
              0.143149917636011E+02
              0.134582280887006E+03
              0.160331759226400E+02
             -0.816427374067657E+02
             -0.613188275789693E+02
             -0.192484896597368E+02
             -0.529994771245720E+02
              0.900463750972993E+02
             -0.571639243802042E+02
              0.268741550057445E+01
             -0.114330858192293E+02
              0.148705832566650E+02
              0.530387046304007E+02
             -0.577534520827132E+02
             -0.113751926745396E+03
             -0.206915158285378E+02
             -0.237006397040170E+02
             -0.169522185353320E+02
              0.576005650483780E+02
             -0.998536974797447E+02
             -0.112859717343245E+03
             -0.147414013182403E+02
             -0.246490935909941E+02
             -0.406598412528450E+01
              0.309052799619038E+02
              0.682371703862469E+02
              0.346288537144062E+02
             -0.336914227095483E+02
             -0.356851122425803E+02
             -0.103224190665795E+03
             -0.774528793003549E+01
             -0.490588667224353E+02
             -0.307914116811050E+02
              0.856952759767048E+02
             -0.660993408462227E+02
             -0.226049063199224E+02
              0.797645081801792E+02
             -0.108453412172839E+02
             -0.207610654234096E+02
              0.135652929187967E+02
              0.316485606025553E+02
             -0.511149654657493E+02
              0.299096099918881E+02
              0.199353021675724E+02
              0.468906793577590E+02
             -0.483460317653723E+02
             -0.393444290300178E+02
              0.598063131615410E+02
             -0.499045980048334E+01
             -0.234608910735320E+02
             -0.203981099794382E+02
             -0.281950363981749E+02
             -0.379859752683812E+02
             -0.892618551736566E+02
             -0.112751528305392E+03
             -0.355095628884009E+02
             -0.351997439542727E+02
             -0.412243928786480E+02
             -0.687247994557834E+02
             -0.355514780328622E+02
              0.610952772704387E+02
              0.264083559240976E+02
              0.866566601804826E+02
             -0.368806011196997E+02
              0.296551165619614E+02
              0.160573221376659E+02
             -0.912002343740711E+02
             -0.216358719664983E+02
              0.488663236314829E+02
             -0.146622079533730E+03
              0.318270230206892E+02
              0.245105694854755E+02
              0.935027332428619E+02
             -0.288248191379618E+02
              0.807724051315726E+02
              0.123615974140927E+03
              0.102481969176300E+03
             -0.577458834674819E+02
             -0.314604904306898E+02
             -0.176942655118696E+02
              0.410224659678165E+02
              0.209970301239399E+02
             -0.221752818863570E+02
              0.598134755139891E+02
              0.119281156880117E+03
             -0.416310407196354E+02
             -0.293363479548455E+02
              0.197874885045945E+02
             -0.677873093571807E+02
             -0.583537516746568E+02
              0.518667628464843E+01
              0.175169309935359E+01
             -0.108621776755687E+02
              0.102215030957809E+03
              0.323428113608534E+02
             -0.170353579539190E+02
             -0.661483582429773E+01
             -0.134372448776939E+03
             -0.144138891011981E+02
             -0.306743609789179E+02
             -0.370915347338661E+01
              0.668412631890017E+02
             -0.353790842585624E+01
              0.932359079596664E+02
             -0.602541286038188E+02
             -0.609410624917539E+02
              0.615408136805889E+02
              0.810759539031653E+02
              0.107764094645879E+03
             -0.613955831289566E+02
             -0.343901411611744E+02
              0.640799184734793E+02
              0.706584289628076E+02
             -0.792826301507376E+02
             -0.200970418818922E+02
              0.850829745407607E+02
              0.551971550228095E+02
              0.331810066751420E+02
              0.306860087521060E+02
             -0.220398716423613E+02
             -0.485619198876259E+01
              0.354910615416647E+02
             -0.371870557301259E+02
             -0.471972118694225E+02
              0.113670675770398E+02
             -0.217658876619959E+02
              0.321799153600853E+02
             -0.548982872859426E+02
              0.659464326393543E+02
             -0.965594344522390E+01
              0.646957736531237E+02
             -0.236497132513448E+02
             -0.797104446348313E+02
             -0.752589696496671E+00
              0.209468356525982E+02
              0.175765862231772E+02
              0.776915298888446E+01
              0.926353637611606E+01
              0.151685371612900E+02
              0.121489216348976E+03
             -0.895370434333265E+02
              0.199173486069502E+02
             -0.467622582168210E+01
              0.204642354280656E+01
              0.485560637644987E+02
              0.353484928084420E+02
             -0.367744701249049E+02
              0.106262528275279E+02
             -0.618907632864199E+02
             -0.202469352153956E+02
             -0.139106636450941E+01
             -0.134186525190368E+03
              0.322433385722808E+02
              0.658543618798985E+02
              0.334694951354929E+02
              0.486238754028681E+02
             -0.289202989340189E+02
              0.281775090238168E+02
              0.722879652313147E+02
             -0.552921587357329E+02
              0.325234932008152E+02
              0.901533588790590E+02
             -0.123869337472143E+02
              0.574005142905357E+02
             -0.175953917667263E+02
             -0.243503401569455E+02
             -0.556142818726204E+01
             -0.630206512563321E+02
              0.365855470592264E+02
              0.344022792526481E+02
              0.672654002035347E+02
             -0.369588914765882E+02
              0.599130939207756E+02
              0.119733911766068E+03
              0.643931610577828E+02
             -0.546966232500575E+02
             -0.211859949534318E+02
             -0.104841269763657E+03
              0.992965822482705E+01
              0.142175782602183E+02
             -0.328221838866193E+01
             -0.206098365830087E+02
              0.157135851879842E+02
              0.755716285063267E+02
             -0.862530800030299E+00
              0.348818080179245E+02
              0.339878163197967E+02
             -0.168510355040694E+02
             -0.108553940509481E+03
              0.400071938498768E+02
             -0.692024520484715E+00
              0.564537624205906E+02
             -0.150803453515630E+02
             -0.207437503294269E+02
             -0.245318299885031E+02
              0.158021681115307E+02
              0.491616779280730E+01
              0.282507364853070E+02
              0.291146178041236E+02
             -0.785476941905267E+02
              0.425592837715618E+02
              0.514390457443031E+02
              0.416245912748022E+02
              0.804742590930437E+02
              0.323502705042469E+02
              0.931707783855991E+02
             -0.279160014407971E+02
             -0.314997480902217E+02
              0.457029332335404E+02
              0.460598212451564E+02
              0.128856230177541E+01
              0.729651807002683E+01
              0.496932376387200E+02
              0.381335533244388E+02
             -0.241366927795743E+02
             -0.472456058510318E+01
             -0.832832156926702E+01
             -0.832867698615706E+01
             -0.877153264803784E+02
             -0.277420222349598E+02
              0.422418859259960E+02
              0.241508691191224E+02
              0.356194680394246E+02
             -0.669952722453206E+02
             -0.950848715670595E+02
              0.236323794471634E+02
              0.935887628862640E+02
              0.485125866453346E+02
             -0.478333685329450E+02
             -0.936154100804088E+02
             -0.516393896288503E+01
              0.308268750803737E+02
              0.309825044329779E+02
             -0.121291429617061E+02
              0.818973984983928E+02
              0.250823975112238E+02
             -0.573266709829448E+02
              0.625179525021464E+02
              0.336302776727254E+02
              0.475385929993149E+01
             -0.196156003026852E+02
             -0.415719091823455E+02
             -0.638792892206956E+02
              0.204035357139800E+02
             -0.127510612479945E+02
             -0.413146428466574E+02
              0.306927109895952E+01
             -0.381818811831329E+02
              0.233908489135569E+02
             -0.101753447266430E+03
              0.240592101971773E+02
             -0.110334930682725E+02
             -0.491579436478636E+01
              0.309007553018306E+02
              0.295483539184702E+02
              0.129620359507347E+03
              0.335690685170584E+01
             -0.421354283099170E+02
             -0.958587909010460E+02
              0.497819009854603E+02
             -0.511027406280618E+01
              0.346731414927769E+02
              0.209617382268215E+02
             -0.122414911387666E+02
              0.792086863001230E+02
              0.653366899089256E+02
             -0.163570203206657E+02
              0.687280071110097E+02
             -0.863105302505610E+02
              0.207602497504784E+02
              0.502952331133948E+02
             -0.614674778130557E+02
             -0.798474526702148E+02
             -0.874437999508202E+02
             -0.863359277275323E+02
              0.824230754373914E+02
             -0.667644838008598E+02
             -0.107604840232987E+02
              0.413086006952350E+02
             -0.334494114149664E+02
              0.132567938725603E+02
              0.208916923051426E+02
              0.461772913065535E+02
             -0.744678549200205E+02
              0.526380543584907E+02
             -0.258005212243800E+02
             -0.110118847879066E+03
              0.406788220106599E+02
             -0.263480514716688E+02
             -0.615759908608136E+02
             -0.287464344797439E+02
              0.516750474229200E+02
              0.400549514283048E+02
              0.139125711075181E+02
              0.241787829817830E+02
             -0.145616802891442E+01
              0.214272914275884E+02
             -0.677174144640117E+02
              0.124108804604004E+02
             -0.142857091632490E+02
             -0.554076372124643E+02
              0.155368024568936E+02
             -0.840424509390863E+01
              0.793130212671022E+02
              0.130892884392614E+02
              0.884468055501695E+02
              0.123951740494954E+02
              0.250097358633176E+02
             -0.239283905808236E+02
             -0.218647686024606E+02
              0.506647444467482E+02
              0.196185993630715E+02
             -0.439308094042174E+02
              0.992339451010482E+02
              0.733746911277296E+02
              0.741293824956835E+02
              0.497685628682135E+02
             -0.178867308715543E+02
             -0.122968274311335E+03
             -0.888255909712325E+01
             -0.343494371559627E+02
             -0.470841388647714E+02
              0.526307293155080E+02
             -0.114918690192658E+03
              0.489449719134959E+02
              0.394794888559045E+02
             -0.392127214094751E+02
             -0.652958220761525E+01
             -0.160578854763394E+02
             -0.350949176276025E+02
              0.372909617016521E+02
              0.460165858378537E+02
             -0.660349385950985E+01
             -0.271133191712361E+02
              0.103059223972550E+02
             -0.126578444712931E+01
             -0.722099824124207E+02
             -0.503317634097011E+02
             -0.377024899657238E+01
             -0.561563509946373E+02
             -0.302286681523045E+02
              0.185124154149150E+01
             -0.934280752010266E+02
             -0.489197877539889E+02
              0.312891622138046E+01
             -0.118728844825866E+03
              0.154182802598913E+02
             -0.113691987192966E+03
              0.619583272716171E+02
             -0.491800170522920E+02
              0.659200138669570E+02
             -0.234016069014022E+02
             -0.937545498389052E+02
             -0.512760786789092E+01
             -0.504521742990504E+02
             -0.278898878756343E+02
              0.181313239745318E+02
             -0.104700540457043E+03
              0.179000538907808E+02
              0.509868102320056E+02
             -0.100613461809235E+03
             -0.117500552761993E+02
             -0.929768947912386E+02
             -0.103577321824535E+03
             -0.662522457048724E+02
             -0.100931290470216E+02
             -0.511680744485801E+02
              0.504910592314874E+02
              0.561977823497216E+02
             -0.414055970177452E+02
              0.286429511541841E+02
             -0.402533431184651E+02
              0.359103093554806E+02
             -0.542661654475110E+02
             -0.543150224595303E+02
              0.507595544242911E+02
              0.386908372611401E+02
              0.147643832918642E+02
              0.565169360811784E+02
              0.124877281392778E+03
             -0.204267061880738E+02
              0.386481917605799E+02
             -0.110110608238390E+03
             -0.101404630737855E+03
             -0.485463991235048E+01
              0.108897824099139E+02
              0.318356132179646E+02
             -0.816575281796191E+02
              0.158080572420923E+02
              0.985730334760743E+02
             -0.778888467721184E+02
             -0.142251824613392E+02
             -0.107943475914096E+03
             -0.111157520047674E+02
              0.580893116522702E+01
             -0.749354861802751E+02
              0.229065012058703E+02
             -0.111166153005400E+03
             -0.481923393843977E+01
             -0.828092782407253E+01
              0.106826058366808E+02
             -0.678469422763021E+02
              0.505467975920593E+02
             -0.832535148957572E+01
             -0.932360540134533E+01
              0.877269313988131E+01
              0.346058255331966E+02
              0.712541274134894E+02
             -0.197702698642757E+02
              0.543760819041850E+02
              0.930665714539558E+02
              0.176475978785072E+02
             -0.376398181108937E+01
              0.285700637289782E+02
              0.852230755354012E+01
             -0.111433577658034E+02
              0.431671738829446E+02
             -0.123442054442779E+02
             -0.611012909116650E+02
              0.339931241294811E+02
             -0.434527073244665E+02
             -0.349191154926975E+02
             -0.627708423205664E+00
             -0.796150382891730E+02
             -0.203028792692790E+02
             -0.872006207931548E+02
             -0.481986148182578E+01
             -0.234477168514055E+02
              0.438165497699682E+02
             -0.927664640680490E+02
              0.842527688377078E+01
              0.284674322860704E+01
             -0.750181254541983E+02
              0.439058972193183E+02
              0.829788981008983E+02
              0.219431877147729E+02
             -0.716968768261963E+02
             -0.793889133340244E+02
              0.106701436918129E+03
              0.805269493255940E+02
              0.347917680799214E+02
             -0.266109643702765E+02
             -0.496956654116466E+02
              0.468574855748514E+02
              0.196846559967198E+02
              0.921780544656697E+02
              0.845212446271657E+02
              0.716141349397806E+02
              0.374740714394988E+02
             -0.148858211093218E+03
             -0.400288642128157E+02
              0.189902678939595E+02
             -0.314585727024177E+02
              0.862469885847508E+02
              0.370099511841092E+02
             -0.342089619005529E+02
             -0.103434613143997E+02
              0.998514934510441E+02
              0.972465282309179E+01
             -0.109902744448629E+02
             -0.168913330891325E+03
              0.414275170449620E+02
             -0.367144035992408E+02
              0.757212464108704E+02
             -0.653926390202551E+02
             -0.100465547960059E+02
              0.263460806162439E+02
             -0.574131892056942E+02
             -0.949849758401773E+02
              0.434934892148317E+01
              0.325295710817578E+02
             -0.378424869868832E+01
             -0.247982526940484E+02
             -0.138673501751647E+02
             -0.570911661586105E+02
             -0.107895395762369E+03
              0.135579826084123E+01
             -0.406136054360394E+02
             -0.100544139700544E+02
             -0.431118585788743E+02
              0.172357220262138E+03
              0.362077425107877E+02
             -0.579902434531970E+02
             -0.543203045142153E+02
              0.228563950603211E+02
              0.419630445353312E+02
              0.661021795067330E+02
             -0.474269876679782E+02
             -0.104258734859182E+03
             -0.303677953985149E+02
             -0.568374891666596E+02
              0.584757237173861E+02
              0.666934785456515E+02
              0.903983143369362E+01
              0.261064775002530E+02
              0.454992438465654E+02
              0.551758040187043E+02
             -0.104761050678293E+03
             -0.222157335518627E+02
              0.694478472272203E+01
             -0.157673418974645E+02
             -0.455208445409050E+02
              0.185332872116362E+01
             -0.174965548027157E+02
             -0.421179348501147E+02
             -0.424965622172036E+02
              0.175024283980853E+02
             -0.131492508546131E+03
             -0.671382408245832E+02
             -0.569135527672986E+02
              0.118152345577669E+03
             -0.207724584252774E+02
             -0.122355556665063E+02
              0.127696655055129E+03
             -0.626980836064179E+02
              0.775741433829959E+02
             -0.487917753896550E+02
             -0.157631001049012E+01
              0.232694401848204E+01
             -0.107812351411583E+02
             -0.586139121927291E+02
              0.164284637795206E+02
              0.923242550520331E+01
             -0.452622905328849E+02
              0.411271589246068E+02
             -0.446952773610922E+02
             -0.125060128188985E+02
              0.123956346562201E+02
              0.566149433876637E+01
             -0.293964737850691E+02
             -0.225030505015831E+02
              0.590111409033824E+02
              0.137058905987227E+02
              0.239381815276498E+02
             -0.528514978823995E+02
             -0.471790370994665E+01
             -0.198929766469127E+02
             -0.196189717564460E+02
              0.100365420531674E+02
             -0.516228260931371E+02
             -0.368447235875500E+02
             -0.293302546386142E+02
             -0.255591182528906E+01
              0.612810804759281E+02
              0.116177514436786E+03
              0.199326598247308E+01
              0.641495332027960E+02
             -0.645493832000562E+01
             -0.568430336573069E+02
              0.262161961966615E+01
             -0.565419317683406E+02
             -0.320967042976965E+02
              0.233083706087788E+02
[...]
              0.537997888081470E+02
              0.244129726391263E+02
              0.397613913701716E+02
             -0.226539289162520E+01
              0.122212110716997E+03
              0.204696883628297E+02
             -0.188545913835660E+02
              0.227000449287675E+01
             -0.123338565223270E+02
              0.100306768617669E+03
             -0.571374725286643E+01
              0.215453730536867E+02
              0.723579242676382E+02
              0.159054084429951E+02
             -0.571220709900325E+02
             -0.831905355287444E+02
              0.896777447655268E+00
             -0.935896589695740E+02
              0.317206195811320E+02
             -0.189654520132599E+02
             -0.438688515391941E+02
              0.395071717912707E+02
              0.151913334864414E+02
              0.356681726077066E+02
              0.315306659953274E+01
              0.567474476060942E+02
             -0.928038383900360E+02
             -0.847872757852826E+01
             -0.809102409236206E+02
              0.146244690983859E+02
              0.438103819238721E+02
             -0.803612920845802E+01
             -0.304540562456378E+02
              0.651910822335675E+02
             -0.302818654573972E+02
              0.212231561593479E+02
             -0.189994824996678E+02
              0.465556149359412E+02
              0.561967495627288E+02
             -0.242180462536217E+02
              0.484419417572843E+02
              0.185649556831141E+02
             -0.499143569271662E+02
             -0.298146648028138E+02
              0.804337627660445E+02
              0.380931457306693E+02
             -0.366525566550661E+01
             -0.107554650815654E+02
              0.118250052945245E+03
              0.708843687808684E+02
              0.259910528670478E+02
             -0.756962122491611E+02
              0.118657625232177E+03
             -0.536514716076125E+02
             -0.665364443800744E+02
             -0.103019468048655E+03
              0.496800769756694E+02
             -0.942814580656440E+02
              0.409169554523104E+02
              0.671409628069972E+02
              0.497819992910497E+02
              0.105683106901539E+02
              0.296179229838400E+02
             -0.743357174358046E+02
             -0.264614542440746E+02
             -0.239062416998096E+02
              0.358859816585337E+02
              0.800948305953745E+02
              0.789977879958970E+02
              0.604384008129878E+02
             -0.149115923731824E+02
              0.214511994588879E+02
              0.300170029104430E+01
             -0.237356002914854E+02
              0.354175485843204E+02
              0.338602750025683E+02
             -0.483942280926508E+02
             -0.490280486733946E+02
             -0.224546191611911E+02
              0.520734431359497E+02
              0.265430599745095E+02
             -0.355084537329395E+02
             -0.617417973245698E+02
             -0.848090474983086E+02
              0.176378176884215E+01
              0.241417332440354E+02
             -0.328097500968766E+02
              0.120506922739229E+03
              0.111470863211855E+01
             -0.139954741579947E+03
              0.351020263755427E+02
              0.577705595484278E+02
             -0.210055771318900E+02
              0.223859376137347E+01
             -0.316429074743351E+02
              0.537299941307118E+02
              0.265721855153134E+02
             -0.707290716433823E+02
              0.839983166849349E+02
              0.564876193773344E+01
             -0.335419558719741E+02
             -0.413730320304468E+02
              0.168393662519791E+03
              0.752467232654080E+02
             -0.188811184524545E+02
              0.415766294651826E+02
             -0.820902282345834E+02
             -0.177947441109476E+02
             -0.729590771380660E+02
              0.282064433100286E+02
              0.523396463209385E+02
              0.575503382324703E+02
             -0.252253854472513E+02
              0.436262416197758E+01
              0.717468625596906E+02
              0.229690608205333E+02
              0.427337031423794E+02
              0.173767668346285E+02
             -0.963300420119640E+01
              0.188817798123409E+00
             -0.133641068142348E+02
              0.148740775397363E+02
              0.497214025607423E+01
             -0.651673861218520E+02
              0.998274920552404E+02
              0.383832855029379E+02
             -0.707614951111156E+02
             -0.519544766132023E+02
             -0.733839048902120E+02
             -0.318490406067706E+02
             -0.230707759640979E+02
             -0.580959050580758E+02
             -0.573233566123899E+02
              0.690171692069265E+02
              0.549445321780413E+02
             -0.757436786283290E+01
              0.825004107413142E+02
              0.119609589224069E+02
             -0.132514840732619E+03
              0.711364887220085E+02
              0.121394681883661E+02
              0.558761058161741E+02
              0.755327586013786E+01
              0.623989967492577E+01
              0.113551523557952E+02
              0.301781319033656E+02
             -0.553143926069960E+02
             -0.261003705782310E+02
             -0.522192555564318E+02
             -0.432971093498020E+02
              0.180024248145672E+02
             -0.479788107453998E+02
              0.231513007305394E+02
              0.317975005247913E+02
             -0.294144095163538E+02
             -0.187706906041381E+02
              0.120831810746736E+01
              0.823704152076442E+02
              0.124890964020831E+02
              0.790796541077715E+02
              0.282862342312135E+02
             -0.104577849856328E+03
             -0.346886693213071E+02
              0.356510417291771E+02
              0.822430980061662E+02
              0.136087991876391E+02
              0.337943908465953E+02
              0.757010520345602E+02
             -0.438589892803517E+02
             -0.672491876821106E+02
              0.932858556899261E+02
              0.537467682700185E+01
             -0.986363478575305E+02
              0.359935174400202E+02
              0.624308927354764E+02
             -0.159530587800045E+02
             -0.650002156015383E+02
              0.135525126435955E+02
              0.277157598472672E+01
             -0.316019766027691E+02
              0.121030531537174E+02
             -0.105666141544462E+02
              0.146731924471951E+03
              0.427109796170901E+02
             -0.621518668419807E+02
              0.183921058665815E+02
              0.893346704170082E+02
             -0.603545805193517E+02
             -0.156836047394923E+02
             -0.570806085583480E+02
              0.456996843212690E+02
              0.145096733286642E+02
              0.302219732363833E+02
              0.548647958284499E+01
              0.103796585900330E+03
             -0.589583778268770E+02
             -0.466284297335332E+02
             -0.449933432033687E+02
              0.395223802628836E+02
              0.103148869206124E+03
             -0.172404141387640E+02
              0.422263475497500E+02
             -0.599491226548672E+02
              0.114707351012918E+02
             -0.192185597730897E+02
              0.414148997546613E+01
             -0.232052698356046E+02
             -0.189594865972588E+02
             -0.185850764688521E+02
              0.153793850628313E+02
              0.300337511568463E+02
             -0.653110840005603E+02
              0.483841754041181E+02
             -0.778929567107406E+02
              0.588360431692731E+02
             -0.621486714359493E+02
              0.100686975746599E+03
              0.553102714398172E+02
              0.636399604048449E+02
              0.157879476597006E+02
              0.185837655542928E+02
             -0.139054934195528E+03
              0.226758028383410E+02
              0.513609593420688E+01
              0.133029330677493E+02
             -0.227062630399030E+02
              0.107497237706506E+03
             -0.249973104546330E+02
             -0.444588214791328E+02
             -0.104116550409817E+03
             -0.361293011274490E+02
             -0.499289187119218E+02
             -0.433825888512562E+02
             -0.982921715909566E+01
             -0.237850619759450E+02
             -0.301611387869067E+02
             -0.462885469442867E+02
              0.354504949367584E+02
              0.111678683797817E+03
              0.943846071831848E+02
             -0.167713339756492E+02
             -0.113499009171299E+03
             -0.483551569717009E+02
              0.232196625637949E+02
              0.231802455844330E+02
              0.370937998816037E+02
              0.260665762910309E+02
              0.462153616752249E+01
              0.110885235127726E+03
             -0.269737012912208E+02
              0.544722136470783E+02
              0.279427123496307E+02
             -0.377275746290926E+02
             -0.180792527103596E+02
              0.502443300114172E+02
             -0.267946220938463E+02
             -0.164700280542991E+02
             -0.122212945570355E+02
              0.647019210335552E+02
             -0.850451485807974E+02
             -0.677886300608952E+01
             -0.656354648637594E+02
             -0.139508694001656E+03
             -0.311693949687196E+00
             -0.205455662461134E+02
              0.542085704300646E+02
              0.603285948886251E+02
              0.824875174411738E+02
             -0.536445645325289E+02
              0.833277765759514E+02
              0.208324021678106E+02
             -0.309023189610246E+02
              0.111404746481639E+02
             -0.263823264164789E+02
             -0.156275705299786E+02
              0.481065931829685E+02
             -0.398470038972591E+02
              0.106928070143978E+03
             -0.285400610644062E+02
             -0.590597445806717E+02
              0.111817927695467E+03
             -0.605233040033808E+02
             -0.489633541998364E+01
              0.591722709485754E+01
              0.323273944850667E+02
             -0.472794221720818E+02
             -0.360281855637751E+02
              0.574318226507241E+02
             -0.863622987466582E+02
              0.712672385202696E+02
              0.105401267265499E+02
              0.510381984300215E+02
              0.740279454854877E+02
              0.189132869901323E+02
             -0.102793888916836E+03
             -0.444996431742069E+02
             -0.741676326327525E+02
             -0.441633999322585E+02
             -0.117690025413830E+02
              0.158937394997357E+02
             -0.346494109879809E+02
             -0.608207725341003E+00
             -0.103321540786893E+03
              0.579811542097127E+01
             -0.666013673667488E+02
              0.645688216699960E+02
             -0.379029434061214E+02
             -0.908436192747891E+01
              0.487132655870620E+02
              0.960587835299020E+01
              0.453019582599858E+02
             -0.862970386820160E+02
              0.143867858447150E+02
              0.590910958598832E+01
              0.371343291100010E+02
              0.595516116938598E+02
             -0.109959548215431E+02
             -0.678611221705558E+02
             -0.391099706503501E+02
             -0.277042227112213E+02
             -0.819272750835034E+01
              0.632585926928791E+02
              0.410591436683268E+02
             -0.416075723391194E+02
             -0.390197506060267E+02
              0.286379047515663E+02
              0.311985216021249E+02
             -0.842627912524194E+02
              0.196802920267746E+02
              0.605101530136108E+02
             -0.266914807900140E+01
              0.760777193733579E+02
              0.351993323204637E+02
              0.599503869575410E+02
              0.910520428172618E+02
              0.137782076691638E+02
             -0.124199427234986E+03
              0.171461705275216E+02
              0.134212409107653E+03
              0.975595196849428E+02
             -0.672844347902023E+02
              0.605716398631501E+01
              0.873043609992834E+02
              0.757271810116718E+02
              0.332706045286510E+02
             -0.201277475773590E+02
              0.333912340702689E+02
              0.691922557982352E+02
             -0.319470305458099E+02
             -0.205660750644431E+02
              0.468547995208591E+02
             -0.283726113961114E+01
              0.419833601083897E+02
             -0.130634332008995E+02
              0.876794821517926E+02
             -0.335205777801480E+02
              0.201174699334215E+02
             -0.372193599433538E+02
              0.434308566550093E+02
             -0.590685297993673E+01
              0.646846073368367E+02
              0.464933817072389E+01
              0.289088966806293E+02
             -0.410887845073645E+02
             -0.287878252460659E+02
             -0.146672856257083E+02
             -0.133467327555425E+02
              0.703589105012153E+02
              0.346026397543536E+02
              0.854636181697391E+02
              0.788619524049963E+02
              0.221108649427152E+02
              0.402777751830392E+01
              0.840613212261626E+02
              0.472478895442168E+02
              0.537846516033369E-02
              0.818376618396180E+02
             -0.671914661385233E+02
              0.235616393379367E+02
             -0.437368046175004E+02
             -0.119176323356819E+02
              0.113209925479650E+03
             -0.158621505880209E+02
             -0.468363603268847E+01
             -0.123431867859580E+02
              0.929810374410369E+02
             -0.199806754858064E+02
             -0.170226268061612E+01
              0.187646488712391E+03
             -0.555693138473265E+02
             -0.692771086183237E+02
             -0.693783267911202E+02
             -0.443233999599822E+02
              0.403506518568788E+02
             -0.181590927844506E+02
              0.102881835086583E+02
             -0.473096382652534E+01
              0.237215254762266E+02
              0.382084872558224E+02
              0.445189330359495E+02
              0.640346414599472E+02
              0.410468513624364E+02
              0.418271023357748E+02
             -0.773898729231905E+02
             -0.799179713089657E+02
             -0.180250697997809E+02
             -0.714506735696799E+02
              0.113443349983732E+03
              0.956028089479625E+02
              0.450655334098368E+02
              0.124258940454275E+03
             -0.621435270051740E+02
             -0.267247253739261E+02
             -0.385043209912888E+02
              0.107459109807662E+03
 
 BEEF-vdW xc energy contributions
            1 :    -971.5406717524925     
            2 :     890.2581104977637     
            3 :    -751.6951589245050     
            4 :     592.7381084628785     
            5 :    -448.0156562193383     
            6 :     338.8665435811924     
            7 :    -270.0066191236660     
            8 :     232.6552870478798     
            9 :    -211.1561807627754     
           10 :     190.4171773284536     
           11 :    -161.7280553115620     
           12 :     124.8476660788738     
           13 :    -85.81916154175951     
           14 :     52.26606090887753     
           15 :    -29.07478877335870     
           16 :     16.51380084437278     
           17 :    -11.01210175770120     
           18 :     7.522666750615826     
           19 :    -2.094124324527002     
           20 :    -6.465087395863975     
           21 :     16.47467764715111     
           22 :    -24.77742575847878     
           23 :     28.81596183543968     
           24 :    -28.18228323951553     
           25 :     24.79973905981069     
           26 :    -21.76997570599951     
           27 :     21.65702868888002     
           28 :    -25.16627698629190     
           29 :     30.85387416798017     
           30 :    -35.95030321996683     
           31 :    -83.27452976813925     
           32 :    -59.84321339702967     

     Writing all to output data dir ./PbI2.save/
 
     init_run     :      4.30s CPU      7.38s WALL (       1 calls)
     electrons    :     36.63s CPU     38.47s WALL (       1 calls)
     forces       :      3.52s CPU      3.81s WALL (       1 calls)
     stress       :     41.78s CPU     42.36s WALL (       1 calls)

     Called by init_run:
     wfcinit      :      0.92s CPU      3.65s WALL (       1 calls)
     potinit      :      2.27s CPU      2.39s WALL (       1 calls)
     hinit0       :      0.47s CPU      0.51s WALL (       1 calls)

     Called by electrons:
     c_bands      :     30.25s CPU     31.29s WALL (       2 calls)
     sum_band     :      4.86s CPU      5.31s WALL (       2 calls)
     v_of_rho     :      2.39s CPU      2.54s WALL (       2 calls)
     v_h          :      0.01s CPU      0.01s WALL (       2 calls)
     v_xc         :     23.09s CPU     25.49s WALL (      38 calls)
     newd         :      0.80s CPU      1.13s WALL (       2 calls)
     PAW_pot      :      0.90s CPU      0.90s WALL (       2 calls)
     mix_rho      :      0.00s CPU      0.00s WALL (       2 calls)
     vdW_kernel   :      1.18s CPU      1.18s WALL (       1 calls)

     Called by c_bands:
     init_us_2    :      0.48s CPU      0.51s WALL (      24 calls)
     init_us_2:cp :      0.48s CPU      0.51s WALL (      24 calls)
     cegterg      :     29.52s CPU     30.34s WALL (       8 calls)

     Called by sum_band:
     sum_band:wei :      0.00s CPU      0.00s WALL (       2 calls)
     sum_band:loo :      3.91s CPU      3.94s WALL (       2 calls)
     sum_band:buf :      0.14s CPU      0.15s WALL (       8 calls)
     sum_band:ini :      0.18s CPU      0.18s WALL (       8 calls)
     sum_band:cal :      0.58s CPU      0.58s WALL (       8 calls)
     sum_band:bec :      0.01s CPU      0.01s WALL (       8 calls)
     addusdens    :      0.88s CPU      1.30s WALL (       2 calls)
     addusd:skk   :      0.01s CPU      0.02s WALL (       4 calls)
     addusd:dgemm :      0.48s CPU      0.88s WALL (       4 calls)
     addusd:qvan2 :      0.37s CPU      0.37s WALL (       4 calls)

     Called by *egterg:
     cdiaghg      :      4.99s CPU      5.02s WALL (      43 calls)
     cegterg:over :      2.47s CPU      2.52s WALL (      43 calls)
     cegterg:upda :      1.81s CPU      1.93s WALL (      43 calls)
     cegterg:last :      0.70s CPU      0.71s WALL (       8 calls)
     h_psi        :     16.80s CPU     17.08s WALL (      51 calls)
     s_psi        :      1.55s CPU      1.56s WALL (      51 calls)
     g_psi        :      0.09s CPU      0.09s WALL (      43 calls)

     Called by h_psi:
     h_psi:calbec :      1.68s CPU      1.69s WALL (      51 calls)
     vloc_psi     :     13.37s CPU     13.47s WALL (      51 calls)
     add_vuspsi   :      1.55s CPU      1.57s WALL (      51 calls)

     General routines
     calbec       :      4.13s CPU      4.15s WALL (      79 calls)
     fft          :     11.40s CPU     11.52s WALL (    2232 calls)
     ffts         :      0.02s CPU      0.02s WALL (       4 calls)
     fftw         :     15.51s CPU     15.62s WALL (    9380 calls)
     interpolate  :      0.03s CPU      0.03s WALL (       2 calls)
 
     Parallel routines

     PAW routines
     PAW_pot      :      0.90s CPU      0.90s WALL (       2 calls)
 
     PWSCF        :   1m46.97s CPU   1m56.96s WALL

 
   This run was terminated on:   6:33:34  28Mar2024            

=------------------------------------------------------------------------------=
   JOB DONE.
=------------------------------------------------------------------------------=
